
                                 *****************
                                 * O   R   C   A *
                                 *****************

                                            #,                                       
                                            ###                                      
                                            ####                                     
                                            #####                                    
                                            ######                                   
                                           ########,                                 
                                     ,,################,,,,,                         
                               ,,#################################,,                 
                          ,,##########################################,,             
                       ,#########################################, ''#####,          
                    ,#############################################,,   '####,        
                  ,##################################################,,,,####,       
                ,###########''''           ''''###############################       
              ,#####''   ,,,,##########,,,,          '''####'''          '####       
            ,##' ,,,,###########################,,,                        '##       
           ' ,,###''''                  '''############,,,                           
         ,,##''                                '''############,,,,        ,,,,,,###''
      ,#''                                            '''#######################'''  
     '                                                          ''''####''''         
             ,#######,   #######,   ,#######,      ##                                
            ,#'     '#,  ##    ##  ,#'     '#,    #''#        ######   ,####,        
            ##       ##  ##   ,#'  ##            #'  '#       #        #'  '#        
            ##       ##  #######   ##           ,######,      #####,   #    #        
            '#,     ,#'  ##    ##  '#,     ,#' ,#      #,         ##   #,  ,#        
             '#######'   ##     ##  '#######'  #'      '#     #####' # '####'        



                  #######################################################
                  #                        -***-                        #
                  #          Department of theory and spectroscopy      #
                  #    Directorship and core code : Frank Neese         #
                  #        Max Planck Institute fuer Kohlenforschung    #
                  #                Kaiser Wilhelm Platz 1               #
                  #                 D-45470 Muelheim/Ruhr               #
                  #                      Germany                        #
                  #                                                     #
                  #                  All rights reserved                #
                  #                        -***-                        #
                  #######################################################


                         Program Version 5.0.2 -  RELEASE  -


 With contributions from (in alphabetic order):
   Daniel Aravena         : Magnetic Suceptibility
   Michael Atanasov       : Ab Initio Ligand Field Theory (pilot matlab implementation)
   Alexander A. Auer      : GIAO ZORA, VPT2 properties, NMR spectrum
   Ute Becker             : Parallelization
   Giovanni Bistoni       : ED, misc. LED, open-shell LED, HFLD
   Martin Brehm           : Molecular dynamics
   Dmytro Bykov           : SCF Hessian
   Vijay G. Chilkuri      : MRCI spin determinant printing, contributions to CSF-ICE
   Dipayan Datta          : RHF DLPNO-CCSD density
   Achintya Kumar Dutta   : EOM-CC, STEOM-CC
   Dmitry Ganyushin       : Spin-Orbit,Spin-Spin,Magnetic field MRCI
   Miquel Garcia          : C-PCM and meta-GGA Hessian, CC/C-PCM, Gaussian charge scheme
   Yang Guo               : DLPNO-NEVPT2, F12-NEVPT2, CIM, IAO-localization
   Andreas Hansen         : Spin unrestricted coupled pair/coupled cluster methods
   Benjamin Helmich-Paris : MC-RPA, TRAH-SCF, COSX integrals
   Lee Huntington         : MR-EOM, pCC
   Robert Izsak           : Overlap fitted RIJCOSX, COSX-SCS-MP3, EOM
   Marcus Kettner         : VPT2
   Christian Kollmar      : KDIIS, OOCD, Brueckner-CCSD(T), CCSD density, CASPT2, CASPT2-K
   Simone Kossmann        : Meta GGA functionals, TD-DFT gradient, OOMP2, MP2 Hessian
   Martin Krupicka        : Initial AUTO-CI
   Lucas Lang             : DCDCAS
   Marvin Lechner         : AUTO-CI (C++ implementation), FIC-MRCC
   Dagmar Lenk            : GEPOL surface, SMD
   Dimitrios Liakos       : Extrapolation schemes; Compound Job, initial MDCI parallelization
   Dimitrios Manganas     : Further ROCIS development; embedding schemes
   Dimitrios Pantazis     : SARC Basis sets
   Anastasios Papadopoulos: AUTO-CI, single reference methods and gradients
   Taras Petrenko         : DFT Hessian,TD-DFT gradient, ASA, ECA, R-Raman, ABS, FL, XAS/XES, NRVS
   Peter Pinski           : DLPNO-MP2, DLPNO-MP2 Gradient
   Christoph Reimann      : Effective Core Potentials
   Marius Retegan         : Local ZFS, SOC
   Christoph Riplinger    : Optimizer, TS searches, QM/MM, DLPNO-CCSD(T), (RO)-DLPNO pert. Triples
   Tobias Risthaus        : Range-separated hybrids, TD-DFT gradient, RPA, STAB
   Michael Roemelt        : Original ROCIS implementation
   Masaaki Saitow         : Open-shell DLPNO-CCSD energy and density
   Barbara Sandhoefer     : DKH picture change effects
   Avijit Sen             : IP-ROCIS
   Kantharuban Sivalingam : CASSCF convergence, NEVPT2, FIC-MRCI
   Bernardo de Souza      : ESD, SOC TD-DFT
   Georgi Stoychev        : AutoAux, RI-MP2 NMR, DLPNO-MP2 response
   Willem Van den Heuvel  : Paramagnetic NMR
   Boris Wezisla          : Elementary symmetry handling
   Frank Wennmohs         : Technical directorship


 We gratefully acknowledge several colleagues who have allowed us to
 interface, adapt or use parts of their codes:
   Stefan Grimme, W. Hujo, H. Kruse, P. Pracht,  : VdW corrections, initial TS optimization,
                  C. Bannwarth, S. Ehlert          DFT functionals, gCP, sTDA/sTD-DF
   Ed Valeev, F. Pavosevic, A. Kumar             : LibInt (2-el integral package), F12 methods
   Garnet Chan, S. Sharma, J. Yang, R. Olivares  : DMRG
   Ulf Ekstrom                                   : XCFun DFT Library
   Mihaly Kallay                                 : mrcc  (arbitrary order and MRCC methods)
   Jiri Pittner, Ondrej Demel                    : Mk-CCSD
   Frank Weinhold                                : gennbo (NPA and NBO analysis)
   Christopher J. Cramer and Donald G. Truhlar   : smd solvation model
   Lars Goerigk                                  : TD-DFT with DH, B97 family of functionals
   V. Asgeirsson, H. Jonsson                     : NEB implementation
   FAccTs GmbH                                   : IRC, NEB, NEB-TS, DLPNO-Multilevel, CI-OPT
                                                   MM, QMMM, 2- and 3-layer-ONIOM, Crystal-QMMM,
                                                   LR-CPCM, SF, NACMEs, symmetry and pop. for TD-DFT,
                                                   nearIR, NL-DFT gradient (VV10), updates on ESD,
                                                   ML-optimized integration grids
   S Lehtola, MJT Oliveira, MAL Marques          : LibXC Library
   Liviu Ungur et al                             : ANISO software


 Your calculation uses the libint2 library for the computation of 2-el integrals
 For citations please refer to: http://libint.valeyev.net

 Your ORCA version has been built with support for libXC version: 5.1.0
 For citations please refer to: https://tddft.org/programs/libxc/

 This ORCA versions uses:
   CBLAS   interface :  Fast vector & matrix operations
   LAPACKE interface :  Fast linear algebra routines
   SCALAPACK package :  Parallel linear algebra routines
   Shared memory     :  Shared parallel matrices
   BLAS/LAPACK       :  OpenBLAS 0.3.15  USE64BITINT DYNAMIC_ARCH NO_AFFINITY Prescott SINGLE_THREADED
        Core in use  :  Prescott
   Copyright (c) 2011-2014, The OpenBLAS Project


Your calculation utilizes the SMD solvation module
Please cite in your paper:
A.V. Marenich, C.J. Cramer, D.G. Truhlar J. Phys. Chem. B, 113, (2009), 6378 

================================================================================

----- Orbital basis set information -----
Your calculation utilizes the basis: def2-TZVP
   F. Weigend and R. Ahlrichs, Phys. Chem. Chem. Phys. 7, 3297 (2005).

----- AuxJ basis set information -----
Your calculation utilizes the auxiliary basis: def2/J
   F. Weigend, Phys. Chem. Chem. Phys. 8, 1057 (2006).

----- AuxC basis set information -----
Your calculation utilizes the auxiliary basis: def2-TZVP/C
  H-La, Hf-Rn : A. Hellweg, C. Hattig, S. Hofener and W. Klopper, Theor. Chem. Acc. 117, 587 (2007).
        Ce-Lu : J. Chmela and M. E. Harding, Mol. Phys. (2018).

================================================================================
                                        WARNINGS
                       Please study these warnings very carefully!
================================================================================

INFO   : Checking CIS options ...
  ===> : (D) CORRECTION FOUND - SETTING MODE=3
  ===> : JK MODE FOUND - ACTIVATING RI-MP2 CODE
  ===> : MP2 AND CIS FOUND - CHECKING
WARNING: CIS(D) and MP2 runs must have the same orbital window
  ===> : adjusting orbital windows

WARNING: No MP2 level density has been requested!
         To caclulate MP2 level properties use
         %mp2 Density relaxed end
         or
         %mp2 Density unrelaxed end
         Otherwise for double-hybrid DFT only the energy is correct!

WARNING: The frozen-core approximation is turned on by default for 
         the MP2 part of double-hybrid DFT.

WARNING: CIS/ROCIS methods need fully converged wavefunctions
  ===> : Setting SCFConvForced true
         You can overwrite this default with %scf ConvForced false 


INFO   : the flag for use of the SHARK integral package has been found!

================================================================================
                                       INPUT FILE
================================================================================
NAME = POZ_5_M06L_def2TZVP_coords.inp
|  1> %maxcore 20000
|  2> %pal
|  3>  nprocs= 6
|  4> end
|  5> ! RI-SCS-PBE-QIDH   def2-TZVP def2/J def2-TZVP/C RIJCOSX CPCM TightSCF
|  6> %TDDFT  
|  7>    NROOTS   30
|  8>    dcorr 4
|  9>    doscs true 
| 10>    TDA      FALSE
| 11> END
| 12> 
| 13> %CPCM
| 14>    SMD          TRUE
| 15>    SMDsolvent   "N,N-DIMETHYLACETAMIDE"
| 16> END
| 17>    
| 18> 
| 19> * xyz 0 1
| 20> C                  -3.61688000    1.95222700    0.00979700
| 21> C                  -2.44498300    2.69219500    0.00577400
| 22> C                  -1.20128400    2.06784400   -0.00149600
| 23> C                  -1.17907300    0.66788400   -0.00746600
| 24> C                  -2.34227100   -0.06585600   -0.00741200
| 25> C                  -3.59805500    0.55825700    0.00165200
| 26> C                   1.17925100    0.66797700    0.00012600
| 27> C                   1.20135300    2.06794100   -0.00564300
| 28> C                   2.44501800    2.69237500   -0.01150300
| 29> H                   2.49303900    3.77321800   -0.00557800
| 30> C                   3.61696900    1.95248600   -0.01421200
| 31> C                   3.59827200    0.55852100   -0.00584900
| 32> C                   2.34249600   -0.06566900    0.00156900
| 33> H                  -2.49308300    3.77303600   -0.00006600
| 34> H                  -2.25543500   -1.14453900    0.00896800
| 35> H                   4.56073300    2.48154200    0.00265200
| 36> N                   0.00000900    2.76974200   -0.00410800
| 37> C                  -0.00004400    4.19949700   -0.00031200
| 38> C                   0.00177500    4.89081800   -1.20408000
| 39> C                  -0.00193000    4.88400000    1.20737700
| 40> C                   0.00177600    6.27761900   -1.19683800
| 41> C                  -0.00208600    6.27078300    1.20807700
| 42> H                  -0.00331900    4.32511400    2.13518600
| 43> C                  -0.00019500    6.96725300    0.00757900
| 44> H                  -0.00358800    6.80775300    2.14807900
| 45> H                  -0.00025800    8.04987200    0.01064200
| 46> H                   2.25571800   -1.14436300   -0.01477100
| 47> H                  -4.56071600    2.48121500   -0.00600400
| 48> C                  -4.83465400   -0.23344000   -0.00549800
| 49> C                  -4.86912000   -1.53095200   -0.52941200
| 50> C                  -6.03242900    0.27587300    0.50971700
| 51> C                  -6.03346800   -2.27397400   -0.54043000
| 52> H                  -3.97000500   -1.96338800   -0.95084000
| 53> C                  -7.19568500   -0.46915300    0.50181400
| 54> H                  -6.05130600    1.27062200    0.93751300
| 55> C                  -7.22900300   -1.76453000   -0.02454400
| 56> H                  -6.01072000   -3.27794800   -0.94633800
| 57> H                  -8.10232300   -0.03070500    0.90091100
| 58> C                  -8.46775000   -2.55848400   -0.03671700
| 59> C                  -8.69537900   -3.52297100   -1.02463100
| 60> C                  -9.45568300   -2.37552800    0.93692500
| 61> C                  -9.86027200   -4.27171800   -1.03872000
| 62> H                  -7.95862700   -3.67262300   -1.80424300
| 63> C                 -10.62003700   -3.12578400    0.92352900
| 64> H                  -9.29910100   -1.65084400    1.72667100
| 65> C                 -10.82954000   -4.07809300   -0.06437200
| 66> H                 -10.01498200   -5.00597100   -1.81977700
| 67> H                 -11.36515500   -2.97070200    1.69415900
| 68> H                 -11.74002800   -4.66387300   -0.07456800
| 69> C                   4.83493800   -0.23306800    0.00315900
| 70> C                   4.86829700   -1.53110400    0.52585200
| 71> C                   6.03385300    0.27676000   -0.50893300
| 72> C                   6.03252800   -2.27425500    0.53845900
| 73> H                   3.96829300   -1.96390300    0.94498200
| 74> C                   7.19702400   -0.46839400   -0.49941800
| 75> H                   6.05370500    1.27200400   -0.93557100
| 76> C                   7.22914400   -1.76437800    0.02552300
| 77> H                   6.00883900   -3.27870400    0.94315900
| 78> H                   8.10456900   -0.02959600   -0.89607400
| 79> C                   8.46773800   -2.55854200    0.03917500
| 80> C                   8.69365700   -3.52365500    1.02687300
| 81> C                   9.45714600   -2.37529900   -0.93288700
| 82> C                   9.85829700   -4.27277200    1.04223400
| 83> H                   7.95576200   -3.67358200    1.80535600
| 84> C                  10.62126300   -3.12591200   -0.91821500
| 85> H                   9.30198600   -1.65016900   -1.72250000
| 86> C                  10.82903400   -4.07888800    0.06940600
| 87> H                  10.01163200   -5.00753100    1.82308600
| 88> H                  11.36754600   -2.97055700   -1.68766400
| 89> H                  11.73931500   -4.66497100    0.08052700
| 90> O                   0.00012000   -0.03539000   -0.00456200
| 91> H                   0.00321700    6.81993700   -2.13376300
| 92> H                   0.00321900    4.33723700   -2.13505800
| 93> *
| 94> 
| 95> 
| 96>                          ****END OF INPUT****
================================================================================

                       ****************************
                       * Single Point Calculation *
                       ****************************

---------------------------------
CARTESIAN COORDINATES (ANGSTROEM)
---------------------------------
  C     -3.616880    1.952227    0.009797
  C     -2.444983    2.692195    0.005774
  C     -1.201284    2.067844   -0.001496
  C     -1.179073    0.667884   -0.007466
  C     -2.342271   -0.065856   -0.007412
  C     -3.598055    0.558257    0.001652
  C      1.179251    0.667977    0.000126
  C      1.201353    2.067941   -0.005643
  C      2.445018    2.692375   -0.011503
  H      2.493039    3.773218   -0.005578
  C      3.616969    1.952486   -0.014212
  C      3.598272    0.558521   -0.005849
  C      2.342496   -0.065669    0.001569
  H     -2.493083    3.773036   -0.000066
  H     -2.255435   -1.144539    0.008968
  H      4.560733    2.481542    0.002652
  N      0.000009    2.769742   -0.004108
  C     -0.000044    4.199497   -0.000312
  C      0.001775    4.890818   -1.204080
  C     -0.001930    4.884000    1.207377
  C      0.001776    6.277619   -1.196838
  C     -0.002086    6.270783    1.208077
  H     -0.003319    4.325114    2.135186
  C     -0.000195    6.967253    0.007579
  H     -0.003588    6.807753    2.148079
  H     -0.000258    8.049872    0.010642
  H      2.255718   -1.144363   -0.014771
  H     -4.560716    2.481215   -0.006004
  C     -4.834654   -0.233440   -0.005498
  C     -4.869120   -1.530952   -0.529412
  C     -6.032429    0.275873    0.509717
  C     -6.033468   -2.273974   -0.540430
  H     -3.970005   -1.963388   -0.950840
  C     -7.195685   -0.469153    0.501814
  H     -6.051306    1.270622    0.937513
  C     -7.229003   -1.764530   -0.024544
  H     -6.010720   -3.277948   -0.946338
  H     -8.102323   -0.030705    0.900911
  C     -8.467750   -2.558484   -0.036717
  C     -8.695379   -3.522971   -1.024631
  C     -9.455683   -2.375528    0.936925
  C     -9.860272   -4.271718   -1.038720
  H     -7.958627   -3.672623   -1.804243
  C    -10.620037   -3.125784    0.923529
  H     -9.299101   -1.650844    1.726671
  C    -10.829540   -4.078093   -0.064372
  H    -10.014982   -5.005971   -1.819777
  H    -11.365155   -2.970702    1.694159
  H    -11.740028   -4.663873   -0.074568
  C      4.834938   -0.233068    0.003159
  C      4.868297   -1.531104    0.525852
  C      6.033853    0.276760   -0.508933
  C      6.032528   -2.274255    0.538459
  H      3.968293   -1.963903    0.944982
  C      7.197024   -0.468394   -0.499418
  H      6.053705    1.272004   -0.935571
  C      7.229144   -1.764378    0.025523
  H      6.008839   -3.278704    0.943159
  H      8.104569   -0.029596   -0.896074
  C      8.467738   -2.558542    0.039175
  C      8.693657   -3.523655    1.026873
  C      9.457146   -2.375299   -0.932887
  C      9.858297   -4.272772    1.042234
  H      7.955762   -3.673582    1.805356
  C     10.621263   -3.125912   -0.918215
  H      9.301986   -1.650169   -1.722500
  C     10.829034   -4.078888    0.069406
  H     10.011632   -5.007531    1.823086
  H     11.367546   -2.970557   -1.687664
  H     11.739315   -4.664971    0.080527
  O      0.000120   -0.035390   -0.004562
  H      0.003217    6.819937   -2.133763
  H      0.003219    4.337237   -2.135058

----------------------------
CARTESIAN COORDINATES (A.U.)
----------------------------
  NO LB      ZA    FRAG     MASS         X           Y           Z
   0 C     6.0000    0    12.011   -6.834913    3.689174    0.018514
   1 C     6.0000    0    12.011   -4.620348    5.087511    0.010911
   2 C     6.0000    0    12.011   -2.270098    3.907659   -0.002827
   3 C     6.0000    0    12.011   -2.228125    1.262118   -0.014109
   4 C     6.0000    0    12.011   -4.426251   -0.124450   -0.014007
   5 C     6.0000    0    12.011   -6.799339    1.054953    0.003122
   6 C     6.0000    0    12.011    2.228461    1.262294    0.000238
   7 C     6.0000    0    12.011    2.270228    3.907842   -0.010664
   8 C     6.0000    0    12.011    4.620414    5.087851   -0.021738
   9 H     1.0000    0     1.008    4.711161    7.130349   -0.010541
  10 C     6.0000    0    12.011    6.835081    3.689664   -0.026857
  11 C     6.0000    0    12.011    6.799749    1.055452   -0.011053
  12 C     6.0000    0    12.011    4.426676   -0.124096    0.002965
  13 H     1.0000    0     1.008   -4.711244    7.130005   -0.000125
  14 H     1.0000    0     1.008   -4.262154   -2.162865    0.016947
  15 H     1.0000    0     1.008    8.618536    4.689435    0.005012
  16 N     7.0000    0    14.007    0.000017    5.234054   -0.007763
  17 C     6.0000    0    12.011   -0.000083    7.935899   -0.000590
  18 C     6.0000    0    12.011    0.003354    9.242307   -2.275381
  19 C     6.0000    0    12.011   -0.003647    9.229422    2.281612
  20 C     6.0000    0    12.011    0.003356   11.862981   -2.261696
  21 C     6.0000    0    12.011   -0.003942   11.850063    2.282935
  22 H     1.0000    0     1.008   -0.006272    8.173281    4.034917
  23 C     6.0000    0    12.011   -0.000368   13.166200    0.014322
  24 H     1.0000    0     1.008   -0.006780   12.864789    4.059281
  25 H     1.0000    0     1.008   -0.000488   15.212053    0.020110
  26 H     1.0000    0     1.008    4.262689   -2.162533   -0.027913
  27 H     1.0000    0     1.008   -8.618504    4.688817   -0.011346
  28 C     6.0000    0    12.011   -9.136172   -0.441138   -0.010390
  29 C     6.0000    0    12.011   -9.201303   -2.893080   -1.000444
  30 C     6.0000    0    12.011  -11.399639    0.521324    0.963226
  31 C     6.0000    0    12.011  -11.401602   -4.297188   -1.021265
  32 H     1.0000    0     1.008   -7.502222   -3.710266   -1.796827
  33 C     6.0000    0    12.011  -13.597874   -0.886571    0.948291
  34 H     1.0000    0     1.008  -11.435311    2.401128    1.771643
  35 C     6.0000    0    12.011  -13.660836   -3.334478   -0.046381
  36 H     1.0000    0     1.008  -11.358615   -6.194424   -1.788320
  37 H     1.0000    0     1.008  -15.311172   -0.058024    1.702475
  38 C     6.0000    0    12.011  -16.001728   -4.834834   -0.069385
  39 C     6.0000    0    12.011  -16.431885   -6.657450   -1.936272
  40 C     6.0000    0    12.011  -17.868651   -4.489097    1.770532
  41 C     6.0000    0    12.011  -18.633214   -8.072377   -1.962896
  42 H     1.0000    0     1.008  -15.039625   -6.940252   -3.409525
  43 C     6.0000    0    12.011  -20.068961   -5.906876    1.745217
  44 H     1.0000    0     1.008  -17.572754   -3.119643    3.262935
  45 C     6.0000    0    12.011  -20.464865   -7.706479   -0.121645
  46 H     1.0000    0     1.008  -18.925573   -9.459914   -3.438880
  47 H     1.0000    0     1.008  -21.477030   -5.613813    3.201497
  48 H     1.0000    0     1.008  -22.185438   -8.813443   -0.140913
  49 C     6.0000    0    12.011    9.136709   -0.440435    0.005970
  50 C     6.0000    0    12.011    9.199748   -2.893367    0.993716
  51 C     6.0000    0    12.011   11.402330    0.523001   -0.961744
  52 C     6.0000    0    12.011   11.399826   -4.297719    1.017540
  53 H     1.0000    0     1.008    7.498987   -3.711239    1.785757
  54 C     6.0000    0    12.011   13.600404   -0.885136   -0.943763
  55 H     1.0000    0     1.008   11.439845    2.403739   -1.767973
  56 C     6.0000    0    12.011   13.661102   -3.334191    0.048231
  57 H     1.0000    0     1.008   11.355060   -6.195853    1.782312
  58 H     1.0000    0     1.008   15.315416   -0.055928   -1.693334
  59 C     6.0000    0    12.011   16.001706   -4.834944    0.074030
  60 C     6.0000    0    12.011   16.428631   -6.658743    1.940509
  61 C     6.0000    0    12.011   17.871416   -4.488665   -1.762901
  62 C     6.0000    0    12.011   18.629481   -8.074369    1.969537
  63 H     1.0000    0     1.008   15.034211   -6.942064    3.411628
  64 C     6.0000    0    12.011   20.071278   -5.907118   -1.735175
  65 H     1.0000    0     1.008   17.578206   -3.118367   -3.255053
  66 C     6.0000    0    12.011   20.463909   -7.707981    0.131158
  67 H     1.0000    0     1.008   18.919243   -9.462862    3.445133
  68 H     1.0000    0     1.008   21.481549   -5.613539   -3.189223
  69 H     1.0000    0     1.008   22.184090   -8.815518    0.152174
  70 O     8.0000    0    15.999    0.000227   -0.066877   -0.008621
  71 H     1.0000    0     1.008    0.006079   12.887813   -4.032228
  72 H     1.0000    0     1.008    0.006083    8.196190   -4.034675

--------------------------------
INTERNAL COORDINATES (ANGSTROEM)
--------------------------------
 C      0   0   0     0.000000000000     0.00000000     0.00000000
 C      1   0   0     1.385969481685     0.00000000     0.00000000
 C      2   1   0     1.391637246808   121.07378666     0.00000000
 C      3   2   1     1.400148910302   117.56687686     0.13313056
 C      4   3   2     1.375283235454   121.33426668     0.05874302
 C      1   2   3     1.394120899546   121.49384538   359.75477411
 C      4   3   2     2.358336222019    90.90588831   180.39845072
 C      7   4   3     1.400150342306    90.90597176   359.51372893
 C      8   7   4     1.391637449978   117.56593913   180.33713019
 H      9   8   7     1.081925465416   119.20250738   180.63468050
 C      9   8   7     1.385969775068   121.07383861     0.12572121
 C     11   9   8     1.394115468246   121.49554943   359.74249091
 C      7   4   3     1.375273596631   147.75839725   179.93249252
 H      2   1   3     1.081926514548   119.72174309   179.48957906
 H      5   4   3     1.082296544291   117.63765175   181.26508319
 H     11   9   8     1.082069837547   118.45454160   181.29060237
 N      8   7   4     1.391313913595   119.38753599     0.39370971
 C     17   8   7     1.429760040164   120.29479317   179.55421170
 C     18  17   8     1.388159008048   119.71649392    89.92799737
 C     18  17   8     1.388186095135   119.69611451   269.92725668
 C     19  18  17     1.386819909060   119.56941632   180.00274816
 C     20  18  17     1.386783185442   119.57292219   180.00518715
 H     20  18  17     1.083136663029   119.39246167     0.00000000
 C     21  19  18     1.387883009726   120.09407618     0.00000000
 H     22  20  18     1.082563068328   119.76578500   179.99795334
 H     24  21  19     1.082623334821   119.95698449   180.00415576
 H     13   7   4     1.082302251000   117.63534001     0.75751245
 H      1   2   3     1.082083347363   118.45520569   181.29105758
 C      6   1   2     1.468336592580   121.85541682   180.52060900
 C     29   6   1     1.399718248326   121.49129871   154.37369470
 C     29   6   1     1.399825410120   121.51015783   334.45426948
 C     30  29   6     1.381270919810   121.49267725   180.23109811
 H     30  29   6     1.083055971086   119.69094865   359.30393102
 C     31  29   6     1.381408961756   121.47998311   179.95354934
 H     31  29   6     1.083001076521   119.63625328   359.12527851
 C     32  30  29     1.398204380753   121.45497569   359.78777197
 H     32  30  29     1.083163223454   118.93944078   180.65110432
 H     34  31  29     1.083285524300   118.97130890   180.68530046
 C     36  32  30     1.471395686433   121.34556257   180.04019893
 C     39  36  32     1.399294181438   120.97854594   330.97937662
 C     39  36  32     1.399093726163   121.20869596   150.96266373
 C     40  39  36     1.384845215675   121.11027646   180.00218821
 H     40  39  36     1.083048522067   119.52394887   358.67060654
 C     41  39  36     1.385201702160   121.06345898   180.07887812
 H     41  39  36     1.083228307928   119.52328717   358.74390878
 C     42  40  39     1.387921151058   120.32277092   359.92391796
 H     42  40  39     1.083103268095   119.60510630   179.48225068
 H     44  41  39     1.083107500458   119.59273310   179.44938180
 H     46  42  40     1.082695970695   120.34411882   180.05223019
 C     12  11   9     1.468345015499   121.85599791   180.54219528
 C     50  12  11     1.399720776593   121.48679763   154.45477367
 C     50  12  11     1.399842842348   121.51632812   334.53513855
 C     51  50  12     1.381255286546   121.49582836   180.21800715
 H     51  50  12     1.083047612673   119.68886792   359.29656575
 C     52  50  12     1.381416589658   121.47846472   179.96519269
 H     52  50  12     1.083016483939   119.63651905   359.13468755
 C     53  51  50     1.398201611600   121.45365426   359.79181436
 H     53  51  50     1.083171755689   118.94039822   180.66288912
 H     55  52  50     1.083290170806   118.97278711   180.68532065
 C     57  53  51     1.471393194505   121.34511769   180.05023976
 C     60  57  53     1.399296193282   120.97871839   330.93855273
 C     60  57  53     1.399074951301   121.20892704   150.91342864
 C     61  60  57     1.384846045454   121.11124177   179.99099932
 H     61  60  57     1.083052592279   119.52713457   358.66067486
 C     62  60  57     1.385208840949   121.06315773   180.08918638
 H     62  60  57     1.083225199240   119.52766560   358.75001303
 C     63  61  60     1.387917737551   120.32227888   359.92465767
 H     63  61  60     1.083103068138   119.60511744   179.48436038
 H     65  62  60     1.083109069168   119.59046848   179.44997086
 H     67  63  61     1.082694997906   120.34607526   180.05553866
 O      7   4   3     1.372988357268    30.81419571   179.82541826
 H     21  19  18     1.082561474111   119.76421078   179.99846437
 H     19  18  17     1.083131591812   119.39472009     0.00000000

---------------------------
INTERNAL COORDINATES (A.U.)
---------------------------
 C      0   0   0     0.000000000000     0.00000000     0.00000000
 C      1   0   0     2.619102750357     0.00000000     0.00000000
 C      2   1   0     2.629813274230   121.07378666     0.00000000
 C      3   2   1     2.645897987180   117.56687686     0.13313056
 C      4   3   2     2.598908671581   121.33426668     0.05874302
 C      1   2   3     2.634506697717   121.49384538   359.75477411
 C      4   3   2     4.456609591323    90.90588831   180.39845072
 C      7   4   3     2.645900693275    90.90597176   359.51372893
 C      8   7   4     2.629813658167   117.56593913   180.33713019
 H      9   8   7     2.044542826951   119.20250738   180.63468050
 C      9   8   7     2.619103304772   121.07383861     0.12572121
 C     11   9   8     2.634496434048   121.49554943   359.74249091
 C      7   4   3     2.598890456845   147.75839725   179.93249252
 H      2   1   3     2.044544809523   119.72174309   179.48957906
 H      5   4   3     2.045244064400   117.63765175   181.26508319
 H     11   9   8     2.044815650740   118.45454160   181.29060237
 N      8   7   4     2.629202263008   119.38753599     0.39370971
 C     17   8   7     2.701854913134   120.29479317   179.55421170
 C     18  17   8     2.623240355547   119.71649392    89.92799737
 C     18  17   8     2.623291542723   119.69611451   269.92725668
 C     19  18  17     2.620709825194   119.56941632   180.00274816
 C     20  18  17     2.620640427613   119.57292219   180.00518715
 H     20  18  17     2.046831658735   119.39246167     0.00000000
 C     21  19  18     2.622718794304   120.09407618     0.00000000
 H     22  20  18     2.045747721838   119.76578500   179.99795334
 H     24  21  19     2.045861609004   119.95698449   180.00415576
 H     13   7   4     2.045254848517   117.63534001     0.75751245
 H      1   2   3     2.044841180593   118.45520569   181.29105758
 C      6   1   2     2.774754032392   121.85541682   180.52060900
 C     29   6   1     2.645084153988   121.49129871   154.37369470
 C     29   6   1     2.645286660432   121.51015783   334.45426948
 C     30  29   6     2.610223755190   121.49267725   180.23109811
 H     30  29   6     2.046679173061   119.69094865   359.30393102
 C     31  29   6     2.610484616664   121.47998311   179.95354934
 H     31  29   6     2.046575437367   119.63625328   359.12527851
 C     32  30  29     2.642223358872   121.45497569   359.78777197
 H     32  30  29     2.046881850664   118.93944078   180.65110432
 H     34  31  29     2.047112965767   118.97130890   180.68530046
 C     36  32  30     2.780534881992   121.34556257   180.04019893
 C     39  36  32     2.644282783707   120.97854594   330.97937662
 C     39  36  32     2.643903978136   121.20869596   150.96266373
 C     40  39  36     2.616978195498   121.11027646   180.00218821
 H     40  39  36     2.046665096455   119.52394887   358.67060654
 C     41  39  36     2.617651857325   121.06345898   180.07887812
 H     41  39  36     2.047004842494   119.52328717   358.74390878
 C     42  40  39     2.622790870976   120.32277092   359.92391796
 H     42  40  39     2.046768551455   119.60510630   179.48225068
 H     44  41  39     2.046776549461   119.59273310   179.44938180
 H     46  42  40     2.045998870914   120.34411882   180.05223019
 C     12  11   9     2.774769949402   121.85599791   180.54219528
 C     50  12  11     2.645088931720   121.48679763   154.45477367
 C     50  12  11     2.645319602568   121.51632812   334.53513855
 C     51  50  12     2.610194212603   121.49582836   180.21800715
 H     51  50  12     2.046663377949   119.68886792   359.29656575
 C     52  50  12     2.610499031309   121.47846472   179.96519269
 H     52  50  12     2.046604553167   119.63651905   359.13468755
 C     53  51  50     2.642218125931   121.45365426   359.79181436
 H     53  51  50     2.046897974251   118.94039822   180.66288912
 H     55  52  50     2.047121746392   118.97278711   180.68532065
 C     57  53  51     2.780530172930   121.34511769   180.05023976
 C     60  57  53     2.644286585542   120.97871839   330.93855273
 C     60  57  53     2.643868498787   121.20892704   150.91342864
 C     61  60  57     2.616979763552   121.11124177   179.99099932
 H     61  60  57     2.046672788041   119.52713457   358.66067486
 C     62  60  57     2.617665347679   121.06315773   180.08918638
 H     62  60  57     2.046998967926   119.52766560   358.75001303
 C     63  61  60     2.622784420383   120.32227888   359.92465767
 H     63  61  60     2.046768173591   119.60511744   179.48436038
 H     65  62  60     2.046779513895   119.59046848   179.44997086
 H     67  63  61     2.045997032609   120.34607526   180.05553866
 O      7   4   3     2.594571980299    30.81419571   179.82541826
 H     21  19  18     2.045744709204   119.76421078   179.99846437
 H     19  18  17     2.046822075523   119.39472009     0.00000000

---------------------
BASIS SET INFORMATION
---------------------
There are 4 groups of distinct atoms

 Group   1 Type C   : 11s6p2d1f contracted to 5s3p2d1f pattern {62111/411/11/1}
 Group   2 Type H   : 5s1p contracted to 3s1p pattern {311/1}
 Group   3 Type N   : 11s6p2d1f contracted to 5s3p2d1f pattern {62111/411/11/1}
 Group   4 Type O   : 11s6p2d1f contracted to 5s3p2d1f pattern {62111/411/11/1}

Atom   0C    basis set group =>   1
Atom   1C    basis set group =>   1
Atom   2C    basis set group =>   1
Atom   3C    basis set group =>   1
Atom   4C    basis set group =>   1
Atom   5C    basis set group =>   1
Atom   6C    basis set group =>   1
Atom   7C    basis set group =>   1
Atom   8C    basis set group =>   1
Atom   9H    basis set group =>   2
Atom  10C    basis set group =>   1
Atom  11C    basis set group =>   1
Atom  12C    basis set group =>   1
Atom  13H    basis set group =>   2
Atom  14H    basis set group =>   2
Atom  15H    basis set group =>   2
Atom  16N    basis set group =>   3
Atom  17C    basis set group =>   1
Atom  18C    basis set group =>   1
Atom  19C    basis set group =>   1
Atom  20C    basis set group =>   1
Atom  21C    basis set group =>   1
Atom  22H    basis set group =>   2
Atom  23C    basis set group =>   1
Atom  24H    basis set group =>   2
Atom  25H    basis set group =>   2
Atom  26H    basis set group =>   2
Atom  27H    basis set group =>   2
Atom  28C    basis set group =>   1
Atom  29C    basis set group =>   1
Atom  30C    basis set group =>   1
Atom  31C    basis set group =>   1
Atom  32H    basis set group =>   2
Atom  33C    basis set group =>   1
Atom  34H    basis set group =>   2
Atom  35C    basis set group =>   1
Atom  36H    basis set group =>   2
Atom  37H    basis set group =>   2
Atom  38C    basis set group =>   1
Atom  39C    basis set group =>   1
Atom  40C    basis set group =>   1
Atom  41C    basis set group =>   1
Atom  42H    basis set group =>   2
Atom  43C    basis set group =>   1
Atom  44H    basis set group =>   2
Atom  45C    basis set group =>   1
Atom  46H    basis set group =>   2
Atom  47H    basis set group =>   2
Atom  48H    basis set group =>   2
Atom  49C    basis set group =>   1
Atom  50C    basis set group =>   1
Atom  51C    basis set group =>   1
Atom  52C    basis set group =>   1
Atom  53H    basis set group =>   2
Atom  54C    basis set group =>   1
Atom  55H    basis set group =>   2
Atom  56C    basis set group =>   1
Atom  57H    basis set group =>   2
Atom  58H    basis set group =>   2
Atom  59C    basis set group =>   1
Atom  60C    basis set group =>   1
Atom  61C    basis set group =>   1
Atom  62C    basis set group =>   1
Atom  63H    basis set group =>   2
Atom  64C    basis set group =>   1
Atom  65H    basis set group =>   2
Atom  66C    basis set group =>   1
Atom  67H    basis set group =>   2
Atom  68H    basis set group =>   2
Atom  69H    basis set group =>   2
Atom  70O    basis set group =>   4
Atom  71H    basis set group =>   2
Atom  72H    basis set group =>   2
---------------------------------
AUXILIARY/J BASIS SET INFORMATION
---------------------------------
There are 4 groups of distinct atoms

 Group   1 Type C   : 12s5p4d2f1g contracted to 6s4p3d1f1g pattern {711111/2111/211/2/1}
 Group   2 Type H   : 5s2p1d contracted to 3s1p1d pattern {311/2/1}
 Group   3 Type N   : 12s5p4d2f1g contracted to 6s4p3d1f1g pattern {711111/2111/211/2/1}
 Group   4 Type O   : 12s5p4d2f1g contracted to 6s4p3d1f1g pattern {711111/2111/211/2/1}

Atom   0C    basis set group =>   1
Atom   1C    basis set group =>   1
Atom   2C    basis set group =>   1
Atom   3C    basis set group =>   1
Atom   4C    basis set group =>   1
Atom   5C    basis set group =>   1
Atom   6C    basis set group =>   1
Atom   7C    basis set group =>   1
Atom   8C    basis set group =>   1
Atom   9H    basis set group =>   2
Atom  10C    basis set group =>   1
Atom  11C    basis set group =>   1
Atom  12C    basis set group =>   1
Atom  13H    basis set group =>   2
Atom  14H    basis set group =>   2
Atom  15H    basis set group =>   2
Atom  16N    basis set group =>   3
Atom  17C    basis set group =>   1
Atom  18C    basis set group =>   1
Atom  19C    basis set group =>   1
Atom  20C    basis set group =>   1
Atom  21C    basis set group =>   1
Atom  22H    basis set group =>   2
Atom  23C    basis set group =>   1
Atom  24H    basis set group =>   2
Atom  25H    basis set group =>   2
Atom  26H    basis set group =>   2
Atom  27H    basis set group =>   2
Atom  28C    basis set group =>   1
Atom  29C    basis set group =>   1
Atom  30C    basis set group =>   1
Atom  31C    basis set group =>   1
Atom  32H    basis set group =>   2
Atom  33C    basis set group =>   1
Atom  34H    basis set group =>   2
Atom  35C    basis set group =>   1
Atom  36H    basis set group =>   2
Atom  37H    basis set group =>   2
Atom  38C    basis set group =>   1
Atom  39C    basis set group =>   1
Atom  40C    basis set group =>   1
Atom  41C    basis set group =>   1
Atom  42H    basis set group =>   2
Atom  43C    basis set group =>   1
Atom  44H    basis set group =>   2
Atom  45C    basis set group =>   1
Atom  46H    basis set group =>   2
Atom  47H    basis set group =>   2
Atom  48H    basis set group =>   2
Atom  49C    basis set group =>   1
Atom  50C    basis set group =>   1
Atom  51C    basis set group =>   1
Atom  52C    basis set group =>   1
Atom  53H    basis set group =>   2
Atom  54C    basis set group =>   1
Atom  55H    basis set group =>   2
Atom  56C    basis set group =>   1
Atom  57H    basis set group =>   2
Atom  58H    basis set group =>   2
Atom  59C    basis set group =>   1
Atom  60C    basis set group =>   1
Atom  61C    basis set group =>   1
Atom  62C    basis set group =>   1
Atom  63H    basis set group =>   2
Atom  64C    basis set group =>   1
Atom  65H    basis set group =>   2
Atom  66C    basis set group =>   1
Atom  67H    basis set group =>   2
Atom  68H    basis set group =>   2
Atom  69H    basis set group =>   2
Atom  70O    basis set group =>   4
Atom  71H    basis set group =>   2
Atom  72H    basis set group =>   2
---------------------------------
AUXILIARY/C BASIS SET INFORMATION
---------------------------------
There are 4 groups of distinct atoms

 Group   1 Type C   : 8s6p5d3f1g contracted to 8s6p4d3f1g pattern {11111111/111111/2111/111/1}
 Group   2 Type H   : 4s3p2d contracted to 4s2p1d pattern {1111/21/2}
 Group   3 Type N   : 8s6p5d3f1g contracted to 8s6p4d3f1g pattern {11111111/111111/2111/111/1}
 Group   4 Type O   : 8s6p5d3f1g contracted to 8s6p4d3f1g pattern {11111111/111111/2111/111/1}

Atom   0C    basis set group =>   1
Atom   1C    basis set group =>   1
Atom   2C    basis set group =>   1
Atom   3C    basis set group =>   1
Atom   4C    basis set group =>   1
Atom   5C    basis set group =>   1
Atom   6C    basis set group =>   1
Atom   7C    basis set group =>   1
Atom   8C    basis set group =>   1
Atom   9H    basis set group =>   2
Atom  10C    basis set group =>   1
Atom  11C    basis set group =>   1
Atom  12C    basis set group =>   1
Atom  13H    basis set group =>   2
Atom  14H    basis set group =>   2
Atom  15H    basis set group =>   2
Atom  16N    basis set group =>   3
Atom  17C    basis set group =>   1
Atom  18C    basis set group =>   1
Atom  19C    basis set group =>   1
Atom  20C    basis set group =>   1
Atom  21C    basis set group =>   1
Atom  22H    basis set group =>   2
Atom  23C    basis set group =>   1
Atom  24H    basis set group =>   2
Atom  25H    basis set group =>   2
Atom  26H    basis set group =>   2
Atom  27H    basis set group =>   2
Atom  28C    basis set group =>   1
Atom  29C    basis set group =>   1
Atom  30C    basis set group =>   1
Atom  31C    basis set group =>   1
Atom  32H    basis set group =>   2
Atom  33C    basis set group =>   1
Atom  34H    basis set group =>   2
Atom  35C    basis set group =>   1
Atom  36H    basis set group =>   2
Atom  37H    basis set group =>   2
Atom  38C    basis set group =>   1
Atom  39C    basis set group =>   1
Atom  40C    basis set group =>   1
Atom  41C    basis set group =>   1
Atom  42H    basis set group =>   2
Atom  43C    basis set group =>   1
Atom  44H    basis set group =>   2
Atom  45C    basis set group =>   1
Atom  46H    basis set group =>   2
Atom  47H    basis set group =>   2
Atom  48H    basis set group =>   2
Atom  49C    basis set group =>   1
Atom  50C    basis set group =>   1
Atom  51C    basis set group =>   1
Atom  52C    basis set group =>   1
Atom  53H    basis set group =>   2
Atom  54C    basis set group =>   1
Atom  55H    basis set group =>   2
Atom  56C    basis set group =>   1
Atom  57H    basis set group =>   2
Atom  58H    basis set group =>   2
Atom  59C    basis set group =>   1
Atom  60C    basis set group =>   1
Atom  61C    basis set group =>   1
Atom  62C    basis set group =>   1
Atom  63H    basis set group =>   2
Atom  64C    basis set group =>   1
Atom  65H    basis set group =>   2
Atom  66C    basis set group =>   1
Atom  67H    basis set group =>   2
Atom  68H    basis set group =>   2
Atom  69H    basis set group =>   2
Atom  70O    basis set group =>   4
Atom  71H    basis set group =>   2
Atom  72H    basis set group =>   2


           ************************************************************
           *        Program running with 6 parallel MPI-processes     *
           *              working on a common directory               *
           ************************************************************
------------------------------------------------------------------------------
                           ORCA GTO INTEGRAL CALCULATION
                           -- RI-GTO INTEGRALS CHOSEN --
------------------------------------------------------------------------------
------------------------------------------------------------------------------
                   ___                                                        
                  /   \      - P O W E R E D   B Y -                         
                 /     \                                                     
                 |  |  |   _    _      __       _____    __    __             
                 |  |  |  | |  | |    /  \     |  _  \  |  |  /  |          
                  \  \/   | |  | |   /    \    | | | |  |  | /  /          
                 / \  \   | |__| |  /  /\  \   | |_| |  |  |/  /          
                |  |  |   |  __  | /  /__\  \  |    /   |      \           
                |  |  |   | |  | | |   __   |  |    \   |  |\   \          
                \     /   | |  | | |  |  |  |  | |\  \  |  | \   \       
                 \___/    |_|  |_| |__|  |__|  |_| \__\ |__|  \__/        
                                                                              
                      - O R C A' S   B I G   F R I E N D -                    
                                      &                                       
                       - I N T E G R A L  F E E D E R -                       
                                                                              
 v1 FN, 2020, v2 2021                                                         
------------------------------------------------------------------------------


Reading SHARK input file POZ_5_M06L_def2TZVP_coords.SHARKINP.tmp ... ok
----------------------
SHARK INTEGRAL PACKAGE
----------------------

Number of atoms                             ...     73
Number of basis functions                   ...   1538
Number of shells                            ...    600
Maximum angular momentum                    ...      3
Integral batch strategy                     ... SHARK/LIBINT Hybrid
RI-J (if used) integral strategy            ... SPLIT-RIJ (Revised 2003 algorithm where possible)
Printlevel                                  ...      1
Contraction scheme used                     ... SEGMENTED contraction
Coulomb Range Separation                    ... NOT USED
Exchange Range Separation                   ... NOT USED
Finite Nucleus Model                        ... NOT USED
Auxiliary Coulomb fitting basis             ... AVAILABLE
   # of basis functions in Aux-J            ...   2475
   # of shells in Aux-J                     ...    805
   Maximum angular momentum in Aux-J        ...      4
Auxiliary J/K fitting basis                 ... NOT available
Auxiliary Correlation fitting basis         ... AVAILABLE
   # of basis functions in Aux-C            ...   3779
   # of shells in Aux-C                     ...   1171
   Maximum angular momentum in Aux-C        ...      4
Auxiliary 'external' fitting basis          ... NOT available
Integral threshold                          ...     2.500000e-11
Primitive cut-off                           ...     2.500000e-12
Primitive pair pre-selection threshold      ...     2.500000e-12

Calculating pre-screening integrals         ... done (  0.4 sec) Dimension = 600
Organizing shell pair data                  ... done (  4.0 sec)
Shell pair information
Total number of shell pairs                 ...    180300
Shell pairs after pre-screening             ...     73145
Total number of primitive shell pairs       ...    557040
Primitive shell pairs kept                  ...    146018
          la=0 lb=0:  18276 shell pairs
          la=1 lb=0:  21366 shell pairs
          la=1 lb=1:   6264 shell pairs
          la=2 lb=0:  10300 shell pairs
          la=2 lb=1:   6093 shell pairs
          la=2 lb=2:   1476 shell pairs
          la=3 lb=0:   4824 shell pairs
          la=3 lb=1:   2881 shell pairs
          la=3 lb=2:   1330 shell pairs
          la=3 lb=3:    335 shell pairs

Calculating one electron integrals          ... done (  0.5 sec)
Calculating RI/J V-Matrix + Cholesky decomp.... done (  0.8 sec)
Calculating RI/C V-Matrix + Cholesky decomp.... done (  1.9 sec)
Calculating Nuclear repulsion               ... done (  0.0 sec) ENN=   4215.978862362290 Eh

SHARK setup successfully completed in   9.4 seconds

Maximum memory used throughout the entire GTOINT-calculation: 162.0 MB


           ************************************************************
           *        Program running with 6 parallel MPI-processes     *
           *              working on a common directory               *
           ************************************************************
-------------------------------------------------------------------------------
                                 ORCA SCF
-------------------------------------------------------------------------------

------------
SCF SETTINGS
------------
Hamiltonian:
 Density Functional     Method          .... DFT(GTOs)
 Exchange Functional    Exchange        .... PBE
   PBE kappa parameter   XKappa         ....  0.804000
   PBE mue parameter    XMuePBE         ....  0.219520
 Correlation Functional Correlation     .... PBE
   PBE beta parameter  CBetaPBE         ....  0.066725
 LDA part of GGA corr.  LDAOpt          .... PW91-LDA
 Gradients option       PostSCFGGA      .... off
 Hybrid DFT is turned on
   Fraction HF Exchange ScalHFX         ....  0.690000
   Scaling of DF-GGA-X  ScalDFX         ....  0.310000
   Scaling of DF-GGA-C  ScalDFC         ....  0.670000
   Scaling of DF-LDA-C  ScalLDAC        ....  0.670000
   Perturbative correction              ....  0.330000
   Density functional embedding theory  .... OFF
 RI-approximation to the Coulomb term is turned on
   Number of AuxJ basis functions       .... 2475
   RIJ-COSX (HFX calculated with COS-X)).... on


General Settings:
 Integral files         IntName         .... POZ_5_M06L_def2TZVP_coords
 Hartree-Fock type      HFTyp           .... RHF
 Total Charge           Charge          ....    0
 Multiplicity           Mult            ....    1
 Number of Electrons    NEL             ....  296
 Basis Dimension        Dim             .... 1538
 Nuclear Repulsion      ENuc            ....   4215.9788623623 Eh

Convergence Acceleration:
 DIIS                   CNVDIIS         .... on
   Start iteration      DIISMaxIt       ....    12
   Startup error        DIISStart       ....  0.200000
   # of expansion vecs  DIISMaxEq       ....     5
   Bias factor          DIISBfac        ....   1.050
   Max. coefficient     DIISMaxC        ....  10.000
 Trust-Rad. Augm. Hess. CNVTRAH         .... auto
   Auto Start mean grad. ratio tolernc. ....  1.125000
   Auto Start start iteration           ....    20
   Auto Start num. interpolation iter.  ....    10
   Max. Number of Micro iterations      ....    16
   Max. Number of Macro iterations      .... Maxiter - #DIIS iter
   Number of Davidson start vectors     ....     2
   Converg. threshold I  (grad. norm)   ....   1.000e-05
   Converg. threshold II (energy diff.) ....   1.000e-08
   Grad. Scal. Fac. for Micro threshold ....   0.100
   Minimum threshold for Micro iter.    ....   0.010
   NR start threshold (gradient norm)   ....   0.001
   Initial trust radius                 ....   0.400
   Minimum AH scaling param. (alpha)    ....   1.000
   Maximum AH scaling param. (alpha)    .... 1000.000
   Orbital update algorithm             .... Taylor
   White noise on init. David. guess    .... on
   Maximum white noise                  ....   0.010
   Quad. conv. algorithm                .... NR
 SOSCF                  CNVSOSCF        .... on
   Start iteration      SOSCFMaxIt      ....   150
   Startup grad/error   SOSCFStart      ....  0.003300
 Level Shifting         CNVShift        .... on
   Level shift para.    LevelShift      ....    0.2500
   Turn off err/grad.   ShiftErr        ....    0.0010
 Zerner damping         CNVZerner       .... off
 Static damping         CNVDamp         .... on
   Fraction old density DampFac         ....    0.7000
   Max. Damping (<1)    DampMax         ....    0.9800
   Min. Damping (>=0)   DampMin         ....    0.0000
   Turn off err/grad.   DampErr         ....    0.1000
 Fernandez-Rico         CNVRico         .... off

SCF Procedure:
 Maximum # iterations   MaxIter         ....   125
 SCF integral mode      SCFMode         .... Direct
   Integral package                     .... SHARK and LIBINT hybrid scheme
 Reset frequency        DirectResetFreq ....    20
 Integral Threshold     Thresh          ....  2.500e-11 Eh
 Primitive CutOff       TCut            ....  2.500e-12 Eh

Convergence Tolerance:
 Convergence Check Mode ConvCheckMode   .... Total+1el-Energy
 Convergence forced     ConvForced      .... 1
 Energy Change          TolE            ....  1.000e-08 Eh
 1-El. energy change                    ....  1.000e-05 Eh
 Orbital Gradient       TolG            ....  1.000e-05
 Orbital Rotation angle TolX            ....  1.000e-05
 DIIS Error             TolErr          ....  5.000e-07


Diagonalization of the overlap matrix:
Smallest eigenvalue                        ... 4.272e-06
Time for diagonalization                   ...    1.118 sec
Threshold for overlap eigenvalues          ... 1.000e-08
Number of eigenvalues below threshold      ... 0
Time for construction of square roots      ...    0.985 sec
Total time needed                          ...    2.119 sec

Time for model grid setup =    2.105 sec

------------------------------
INITIAL GUESS: MODEL POTENTIAL
------------------------------
Loading Hartree-Fock densities                     ... done
Calculating cut-offs                               ... done
Initializing the effective Hamiltonian             ... done
Setting up the integral package (SHARK)            ... done
Starting the Coulomb interaction                   ... done (   4.7 sec)
Reading the grid                                   ... done
Mapping shells                                     ... done
Starting the XC term evaluation                    ... done (   2.0 sec)
  promolecular density results
     # of electrons  =    295.986807880
     EX              =   -238.287468673
     EC              =     -3.718221491
     EX+EC           =   -242.005690164
Transforming the Hamiltonian                       ... done (   0.8 sec)
Diagonalizing the Hamiltonian                      ... done (   1.1 sec)
Back transforming the eigenvectors                 ... done (   0.4 sec)
Now organizing SCF variables                       ... done
                      ------------------
                      INITIAL GUESS DONE (  11.2 sec)
                      ------------------
-------------------
DFT GRID GENERATION
-------------------

General Integration Accuracy     IntAcc      ... 4.388
Radial Grid Type                 RadialGrid  ... OptM3 with GC (2021)
Angular Grid (max. ang.)         AngularGrid ... 4 (Lebedev-302)
Angular grid pruning method      GridPruning ... 4 (adaptive)
Weight generation scheme         WeightScheme... Becke
Basis function cutoff            BFCut       ... 1.0000e-11
Integration weight cutoff        WCut        ... 1.0000e-14
Angular grids for H and He will be reduced by one unit
Partially contracted basis set               ... off
Rotationally invariant grid construction     ... off

Total number of grid points                  ...   354206
Total number of batches                      ...     5581
Average number of points per batch           ...       63
Average number of grid points per atom       ...     4852
Time for grid setup =    7.097 sec

--------------------
COSX GRID GENERATION
--------------------

GRIDX 1
-------
General Integration Accuracy     IntAcc      ... 3.816
Radial Grid Type                 RadialGrid  ... OptM3 with GC (2021)
Angular Grid (max. ang.)         AngularGrid ... 1 (Lebedev-50)
Angular grid pruning method      GridPruning ... 4 (adaptive)
Weight generation scheme         WeightScheme... Becke
Basis function cutoff            BFCut       ... 1.0000e-11
Integration weight cutoff        WCut        ... 1.0000e-14
Angular grids for H and He will be reduced by one unit
Partially contracted basis set               ... on
Rotationally invariant grid construction     ... off

Total number of grid points                  ...    44949
Total number of batches                      ...      729
Average number of points per batch           ...       61
Average number of grid points per atom       ...      616
UseSFitting                                  ... on

GRIDX 2
-------
General Integration Accuracy     IntAcc      ... 4.020
Radial Grid Type                 RadialGrid  ... OptM3 with GC (2021)
Angular Grid (max. ang.)         AngularGrid ... 2 (Lebedev-110)
Angular grid pruning method      GridPruning ... 4 (adaptive)
Weight generation scheme         WeightScheme... Becke
Basis function cutoff            BFCut       ... 1.0000e-11
Integration weight cutoff        WCut        ... 1.0000e-14
Angular grids for H and He will be reduced by one unit
Partially contracted basis set               ... on
Rotationally invariant grid construction     ... off

Total number of grid points                  ...    97822
Total number of batches                      ...     1566
Average number of points per batch           ...       62
Average number of grid points per atom       ...     1340
UseSFitting                                  ... on

GRIDX 3
-------
General Integration Accuracy     IntAcc      ... 4.338
Radial Grid Type                 RadialGrid  ... OptM3 with GC (2021)
Angular Grid (max. ang.)         AngularGrid ... 3 (Lebedev-194)
Angular grid pruning method      GridPruning ... 4 (adaptive)
Weight generation scheme         WeightScheme... Becke
Basis function cutoff            BFCut       ... 1.0000e-11
Integration weight cutoff        WCut        ... 1.0000e-14
Angular grids for H and He will be reduced by one unit
Partially contracted basis set               ... on
Rotationally invariant grid construction     ... off

Total number of grid points                  ...   214258
Total number of batches                      ...     3384
Average number of points per batch           ...       63
Average number of grid points per atom       ...     2935
UseSFitting                                  ... on

Time for X-Grid setup             =   18.448 sec


--------------------
CPCM SOLVATION MODEL
--------------------
CPCM parameters:
  Epsilon                                         ...      37.7810
  Refrac                                          ...       1.4380
  Rsolv                                           ...       1.3000
  Surface type                                    ... GAUSSIAN VDW
  Epsilon function type                           ...         CPCM
Solvent:                                     ... N,N-DIMETHYLACETAMIDE
SMD-CDS solvent descriptors:
  Soln                                       ...    1.4380
  Soln25                                     ...    1.4358
  Sola                                       ...    0.0000
  Solb                                       ...    0.7800
  Solg                                       ...   47.6200
  Solc                                       ...    0.0000
  Solh                                       ...    0.0000
Radii:
 Radius for C  used is    3.4960 Bohr (=   1.8500 Ang.)
 Radius for H  used is    2.2677 Bohr (=   1.2000 Ang.)
 Radius for N  used is    3.5716 Bohr (=   1.8900 Ang.)
 Radius for O  used is    4.3350 Bohr (=   2.2940 Ang.)
Calculating surface                               ...        done! (  0.0s)
GEPOL surface points                              ...         3975
GEPOL Volume                                      ...    3911.1986
GEPOL Surface-area                                ...    2061.3963
Calculating surface distance matrix               ...        done! (  0.2s)
Performing Cholesky decomposition & store         ...        done! (  1.6s)
Overall time for CPCM initialization              ...                 1.8s
--------------
SCF ITERATIONS
--------------
ITER       Energy         Delta-E        Max-DP      RMS-DP      [F,P]     Damp
               ***  Starting incremental Fock matrix formation  ***
  0  -1742.6336256953   0.000000000000 0.04423409  0.00047462  0.1390224 0.7000
  1  -1742.9944635463  -0.360837851059 0.04409355  0.00040660  0.0913441 0.7000
                               ***Turning on DIIS***
  2  -1743.2075100127  -0.213046466385 0.10399050  0.00097456  0.0553732 0.0000
  3  -1743.5988692374  -0.391359224705 0.01845267  0.00022645  0.0277480 0.0000
  4  -1743.6309241792  -0.032054941754 0.01064184  0.00009909  0.0079440 0.0000
  5  -1743.6321559359  -0.001231756723 0.00317667  0.00003767  0.0033854 0.0000
                      *** Initiating the SOSCF procedure ***
                           *** Shutting down DIIS ***
                      *** Re-Reading the Fockian *** 
                      *** Removing any level shift *** 
ITER      Energy       Delta-E        Grad      Rot      Max-DP    RMS-DP
  6  -1743.63242984  -0.0002739043  0.001776  0.001776  0.001437  0.000018
               *** Restarting incremental Fock matrix formation ***
  7  -1743.63213823   0.0002916126  0.001050  0.004236  0.033643  0.000243
  8  -1743.63217390  -0.0000356751  0.000371  0.002760  0.008640  0.000045
  9  -1743.63218076  -0.0000068568  0.000063  0.000229  0.005521  0.000032
 10  -1743.63218180  -0.0000010386  0.000049  0.000175  0.000870  0.000005
 11  -1743.63218206  -0.0000002572  0.000015  0.000046  0.000679  0.000003
 12  -1743.63218207  -0.0000000118  0.000011  0.000037  0.000143  0.000001
                  ***Gradient check signals convergence***
              ***Rediagonalizing the Fockian in SOSCF/NRSCF***

               *****************************************************
               *                     SUCCESS                       *
               *           SCF CONVERGED AFTER  13 CYCLES          *
               *****************************************************

Old exchange energy                            =   -168.040053215 Eh
New exchange energy                            =   -168.039963817 Eh
Exchange energy change after final integration =      0.000089399 Eh
Total energy after final integration           =  -1743.632092654 Eh
Final COS-X integration done in                =   278.309 sec

SMD CDS free energy correction energy :                -7.35160     Kcal/mol
Total Energy after SMD CDS correction =             -1743.643808173 Eh

----------------
TOTAL SCF ENERGY
----------------

Total Energy       :        -1743.64380817 Eh          -47446.96018 eV

Components:
Nuclear Repulsion  :         4215.97886236 Eh          114722.61723 eV
Electronic Energy  :        -5959.62267054 Eh         -162169.57741 eV
One Electron Energy:       -10749.84240398 Eh         -292518.08314 eV
Two Electron Energy:         4790.21973345 Eh          130348.50574 eV
Max COSX asymmetry :            0.00001191 Eh               0.00032 eV
CPCM Dielectric    :           -0.04203272 Eh              -1.14377 eV
SMD CDS (Gcds)     :           -0.01171552 Eh              -0.31880 eV

Virial components:
Potential Energy   :        -3480.25564073 Eh          -94702.57057 eV
Kinetic Energy     :         1736.61183256 Eh           47255.61039 eV
Virial Ratio       :            2.00404925


DFT components:
N(Alpha)           :      148.000105408720 electrons
N(Beta)            :      148.000105408720 electrons
N(Total)           :      296.000210817441 electrons
E(X)               :      -75.164672711892 Eh       
E(C)               :       -6.677139941658 Eh       
E(XC)              :      -81.841812653550 Eh       
DFET-embed. en.    :        0.000000000000 Eh       
CPCM Solvation Model Properties:
Surface-charge          :           -0.09146642
Charge-correction       :            0.00040707 Eh               0.01108 eV
Free-energy (cav+disp)  :           -0.01171552 Eh              -0.31880 eV

---------------
SCF CONVERGENCE
---------------

  Last Energy change         ...    1.4095e-08  Tolerance :   1.0000e-08
  Last MAX-Density change    ...    1.6653e-15  Tolerance :   1.0000e-07
  Last RMS-Density change    ...    1.0032e-17  Tolerance :   5.0000e-09
  Last Orbital Gradient      ...    1.5097e-06  Tolerance :   1.0000e-05
  Last Orbital Rotation      ...    8.6629e-06  Tolerance :   1.0000e-05

             **** THE GBW FILE WAS UPDATED (POZ_5_M06L_def2TZVP_coords.gbw) ****
             **** DENSITY POZ_5_M06L_def2TZVP_coords.scfp WAS UPDATED ****
             **** ENERGY FILE WAS UPDATED (POZ_5_M06L_def2TZVP_coords.en.tmp) ****
             **** THE GBW FILE WAS UPDATED (POZ_5_M06L_def2TZVP_coords.gbw) ****
             **** DENSITY POZ_5_M06L_def2TZVP_coords.scfp WAS UPDATED ****
----------------
ORBITAL ENERGIES
----------------

  NO   OCC          E(Eh)            E(eV) 
   0   2.0000     -20.055646      -545.7419 
   1   2.0000     -15.123383      -411.5282 
   2   2.0000     -10.892162      -296.3908 
   3   2.0000     -10.892144      -296.3903 
   4   2.0000     -10.878760      -296.0261 
   5   2.0000     -10.878744      -296.0257 
   6   2.0000     -10.865978      -295.6783 
   7   2.0000     -10.835942      -294.8610 
   8   2.0000     -10.835935      -294.8608 
   9   2.0000     -10.835117      -294.8385 
  10   2.0000     -10.835114      -294.8385 
  11   2.0000     -10.833763      -294.8017 
  12   2.0000     -10.833759      -294.8016 
  13   2.0000     -10.833597      -294.7972 
  14   2.0000     -10.833592      -294.7970 
  15   2.0000     -10.826335      -294.5996 
  16   2.0000     -10.826330      -294.5994 
  17   2.0000     -10.825271      -294.5706 
  18   2.0000     -10.824640      -294.5534 
  19   2.0000     -10.824011      -294.5363 
  20   2.0000     -10.824009      -294.5363 
  21   2.0000     -10.823925      -294.5340 
  22   2.0000     -10.823296      -294.5168 
  23   2.0000     -10.823295      -294.5168 
  24   2.0000     -10.821349      -294.4639 
  25   2.0000     -10.821347      -294.4638 
  26   2.0000     -10.821330      -294.4634 
  27   2.0000     -10.821327      -294.4633 
  28   2.0000     -10.821202      -294.4599 
  29   2.0000     -10.821201      -294.4598 
  30   2.0000     -10.820553      -294.4422 
  31   2.0000     -10.820550      -294.4421 
  32   2.0000     -10.820419      -294.4386 
  33   2.0000     -10.820417      -294.4385 
  34   2.0000     -10.820123      -294.4305 
  35   2.0000     -10.820119      -294.4304 
  36   2.0000     -10.820062      -294.4288 
  37   2.0000     -10.820057      -294.4287 
  38   2.0000     -10.819653      -294.4177 
  39   2.0000     -10.819651      -294.4177 
  40   2.0000     -10.819362      -294.4098 
  41   2.0000     -10.819360      -294.4098 
  42   2.0000     -10.818376      -294.3830 
  43   2.0000     -10.818375      -294.3829 
  44   2.0000      -1.324648       -36.0455 
  45   2.0000      -1.191876       -32.4326 
  46   2.0000      -1.082696       -29.4617 
  47   2.0000      -1.076325       -29.2883 
  48   2.0000      -1.069000       -29.0890 
  49   2.0000      -1.061993       -28.8983 
  50   2.0000      -1.053962       -28.6798 
  51   2.0000      -1.046526       -28.4774 
  52   2.0000      -1.032873       -28.1059 
  53   2.0000      -0.984178       -26.7809 
  54   2.0000      -0.971792       -26.4438 
  55   2.0000      -0.954077       -25.9618 
  56   2.0000      -0.942135       -25.6368 
  57   2.0000      -0.940432       -25.5905 
  58   2.0000      -0.932350       -25.3705 
  59   2.0000      -0.931846       -25.3568 
  60   2.0000      -0.930575       -25.3222 
  61   2.0000      -0.922999       -25.1161 
  62   2.0000      -0.921037       -25.0627 
  63   2.0000      -0.917722       -24.9725 
  64   2.0000      -0.903405       -24.5829 
  65   2.0000      -0.889297       -24.1990 
  66   2.0000      -0.865156       -23.5421 
  67   2.0000      -0.813972       -22.1493 
  68   2.0000      -0.810013       -22.0416 
  69   2.0000      -0.783346       -21.3159 
  70   2.0000      -0.778224       -21.1765 
  71   2.0000      -0.768539       -20.9130 
  72   2.0000      -0.767376       -20.8814 
  73   2.0000      -0.763818       -20.7845 
  74   2.0000      -0.751374       -20.4459 
  75   2.0000      -0.742824       -20.2133 
  76   2.0000      -0.732313       -19.9272 
  77   2.0000      -0.728922       -19.8350 
  78   2.0000      -0.726596       -19.7717 
  79   2.0000      -0.722217       -19.6525 
  80   2.0000      -0.701872       -19.0989 
  81   2.0000      -0.695125       -18.9153 
  82   2.0000      -0.667860       -18.1734 
  83   2.0000      -0.658426       -17.9167 
  84   2.0000      -0.658086       -17.9074 
  85   2.0000      -0.634527       -17.2664 
  86   2.0000      -0.633772       -17.2458 
  87   2.0000      -0.619301       -16.8520 
  88   2.0000      -0.611990       -16.6531 
  89   2.0000      -0.604236       -16.4421 
  90   2.0000      -0.600271       -16.3342 
  91   2.0000      -0.596595       -16.2342 
  92   2.0000      -0.594676       -16.1820 
  93   2.0000      -0.588540       -16.0150 
  94   2.0000      -0.582686       -15.8557 
  95   2.0000      -0.579008       -15.7556 
  96   2.0000      -0.566600       -15.4180 
  97   2.0000      -0.562630       -15.3099 
  98   2.0000      -0.557193       -15.1620 
  99   2.0000      -0.554739       -15.0952 
 100   2.0000      -0.551640       -15.0109 
 101   2.0000      -0.550346       -14.9757 
 102   2.0000      -0.547816       -14.9068 
 103   2.0000      -0.545712       -14.8496 
 104   2.0000      -0.542798       -14.7703 
 105   2.0000      -0.539217       -14.6728 
 106   2.0000      -0.536808       -14.6073 
 107   2.0000      -0.534395       -14.5416 
 108   2.0000      -0.533949       -14.5295 
 109   2.0000      -0.522150       -14.2084 
 110   2.0000      -0.521493       -14.1905 
 111   2.0000      -0.516208       -14.0467 
 112   2.0000      -0.498894       -13.5756 
 113   2.0000      -0.497304       -13.5323 
 114   2.0000      -0.496908       -13.5216 
 115   2.0000      -0.495317       -13.4783 
 116   2.0000      -0.490116       -13.3367 
 117   2.0000      -0.480367       -13.0715 
 118   2.0000      -0.476286       -12.9604 
 119   2.0000      -0.472778       -12.8649 
 120   2.0000      -0.467308       -12.7161 
 121   2.0000      -0.466575       -12.6962 
 122   2.0000      -0.463368       -12.6089 
 123   2.0000      -0.458466       -12.4755 
 124   2.0000      -0.458437       -12.4747 
 125   2.0000      -0.449774       -12.2390 
 126   2.0000      -0.448559       -12.2059 
 127   2.0000      -0.444780       -12.1031 
 128   2.0000      -0.441167       -12.0048 
 129   2.0000      -0.438428       -11.9302 
 130   2.0000      -0.435268       -11.8442 
 131   2.0000      -0.423649       -11.5281 
 132   2.0000      -0.422831       -11.5058 
 133   2.0000      -0.421897       -11.4804 
 134   2.0000      -0.375508       -10.2181 
 135   2.0000      -0.355036        -9.6610 
 136   2.0000      -0.338654        -9.2153 
 137   2.0000      -0.329037        -8.9535 
 138   2.0000      -0.327272        -8.9055 
 139   2.0000      -0.325235        -8.8501 
 140   2.0000      -0.324988        -8.8434 
 141   2.0000      -0.323141        -8.7931 
 142   2.0000      -0.321948        -8.7606 
 143   2.0000      -0.321815        -8.7570 
 144   2.0000      -0.307897        -8.3783 
 145   2.0000      -0.287689        -7.8284 
 146   2.0000      -0.271400        -7.3852 
 147   2.0000      -0.231709        -6.3051 
 148   0.0000       0.004743         0.1291 
 149   0.0000       0.016590         0.4514 
 150   0.0000       0.041563         1.1310 
 151   0.0000       0.048377         1.3164 
 152   0.0000       0.052122         1.4183 
 153   0.0000       0.052611         1.4316 
 154   0.0000       0.058727         1.5980 
 155   0.0000       0.060299         1.6408 
 156   0.0000       0.064838         1.7643 
 157   0.0000       0.070051         1.9062 
 158   0.0000       0.075926         2.0661 
 159   0.0000       0.081532         2.2186 
 160   0.0000       0.112208         3.0533 
 161   0.0000       0.115583         3.1452 
 162   0.0000       0.126259         3.4357 
 163   0.0000       0.126760         3.4493 
 164   0.0000       0.127199         3.4613 
 165   0.0000       0.131433         3.5765 
 166   0.0000       0.131611         3.5813 
 167   0.0000       0.133579         3.6349 
 168   0.0000       0.137801         3.7498 
 169   0.0000       0.141219         3.8428 
 170   0.0000       0.143394         3.9020 
 171   0.0000       0.150524         4.0960 
 172   0.0000       0.151275         4.1164 
 173   0.0000       0.152837         4.1589 
 174   0.0000       0.160131         4.3574 
 175   0.0000       0.161014         4.3814 
 176   0.0000       0.170474         4.6388 
 177   0.0000       0.171119         4.6564 
 178   0.0000       0.176047         4.7905 
 179   0.0000       0.176466         4.8019 
 180   0.0000       0.180791         4.9196 
 181   0.0000       0.181177         4.9301 
 182   0.0000       0.181647         4.9429 
 183   0.0000       0.183728         4.9995 
 184   0.0000       0.184877         5.0308 
 185   0.0000       0.187564         5.1039 
 186   0.0000       0.189945         5.1687 
 187   0.0000       0.191573         5.2130 
 188   0.0000       0.195832         5.3289 
 189   0.0000       0.196346         5.3429 
 190   0.0000       0.203438         5.5358 
 191   0.0000       0.206272         5.6130 
 192   0.0000       0.214485         5.8364 
 193   0.0000       0.216906         5.9023 
 194   0.0000       0.218339         5.9413 
 195   0.0000       0.218384         5.9425 
 196   0.0000       0.227434         6.1888 
 197   0.0000       0.228847         6.2272 
 198   0.0000       0.230310         6.2670 
 199   0.0000       0.238559         6.4915 
 200   0.0000       0.243261         6.6195 
 201   0.0000       0.244481         6.6527 
 202   0.0000       0.248331         6.7574 
 203   0.0000       0.254331         6.9207 
 204   0.0000       0.255646         6.9565 
 205   0.0000       0.258601         7.0369 
 206   0.0000       0.262410         7.1405 
 207   0.0000       0.263937         7.1821 
 208   0.0000       0.266579         7.2540 
 209   0.0000       0.269089         7.3223 
 210   0.0000       0.271918         7.3993 
 211   0.0000       0.272393         7.4122 
 212   0.0000       0.273253         7.4356 
 213   0.0000       0.274086         7.4583 
 214   0.0000       0.276543         7.5251 
 215   0.0000       0.279973         7.6185 
 216   0.0000       0.281494         7.6598 
 217   0.0000       0.283998         7.7280 
 218   0.0000       0.284128         7.7315 
 219   0.0000       0.286455         7.7948 
 220   0.0000       0.288532         7.8513 
 221   0.0000       0.289155         7.8683 
 222   0.0000       0.294214         8.0060 
 223   0.0000       0.294321         8.0089 
 224   0.0000       0.296806         8.0765 
 225   0.0000       0.298486         8.1222 
 226   0.0000       0.300487         8.1767 
 227   0.0000       0.301044         8.1918 
 228   0.0000       0.304025         8.2729 
 229   0.0000       0.307657         8.3718 
 230   0.0000       0.309934         8.4337 
 231   0.0000       0.315981         8.5983 
 232   0.0000       0.316558         8.6140 
 233   0.0000       0.318625         8.6702 
 234   0.0000       0.319191         8.6856 
 235   0.0000       0.320477         8.7206 
 236   0.0000       0.321725         8.7546 
 237   0.0000       0.324434         8.8283 
 238   0.0000       0.326492         8.8843 
 239   0.0000       0.327490         8.9115 
 240   0.0000       0.330577         8.9955 
 241   0.0000       0.332557         9.0493 
 242   0.0000       0.333603         9.0778 
 243   0.0000       0.335896         9.1402 
 244   0.0000       0.336798         9.1647 
 245   0.0000       0.341358         9.2888 
 246   0.0000       0.345098         9.3906 
 247   0.0000       0.348844         9.4925 
 248   0.0000       0.350099         9.5267 
 249   0.0000       0.352355         9.5881 
 250   0.0000       0.354604         9.6493 
 251   0.0000       0.357144         9.7184 
 252   0.0000       0.358907         9.7664 
 253   0.0000       0.363057         9.8793 
 254   0.0000       0.365518         9.9462 
 255   0.0000       0.369853        10.0642 
 256   0.0000       0.372642        10.1401 
 257   0.0000       0.373055        10.1513 
 258   0.0000       0.378489        10.2992 
 259   0.0000       0.380440        10.3523 
 260   0.0000       0.381816        10.3897 
 261   0.0000       0.386830        10.5262 
 262   0.0000       0.388456        10.5704 
 263   0.0000       0.392904        10.6915 
 264   0.0000       0.393463        10.7067 
 265   0.0000       0.399578        10.8731 
 266   0.0000       0.400378        10.8949 
 267   0.0000       0.405223        11.0267 
 268   0.0000       0.407247        11.0817 
 269   0.0000       0.407764        11.0958 
 270   0.0000       0.410158        11.1610 
 271   0.0000       0.411409        11.1950 
 272   0.0000       0.414854        11.2888 
 273   0.0000       0.416307        11.3283 
 274   0.0000       0.420482        11.4419 
 275   0.0000       0.425240        11.5714 
 276   0.0000       0.426020        11.5926 
 277   0.0000       0.426591        11.6081 
 278   0.0000       0.428832        11.6691 
 279   0.0000       0.429716        11.6932 
 280   0.0000       0.430029        11.7017 
 281   0.0000       0.430502        11.7146 
 282   0.0000       0.431004        11.7282 
 283   0.0000       0.434605        11.8262 
 284   0.0000       0.436072        11.8661 
 285   0.0000       0.442022        12.0280 
 286   0.0000       0.443298        12.0628 
 287   0.0000       0.444419        12.0933 
 288   0.0000       0.447775        12.1846 
 289   0.0000       0.448807        12.2127 
 290   0.0000       0.453725        12.3465 
 291   0.0000       0.456942        12.4340 
 292   0.0000       0.458284        12.4705 
 293   0.0000       0.462832        12.5943 
 294   0.0000       0.465992        12.6803 
 295   0.0000       0.466463        12.6931 
 296   0.0000       0.467304        12.7160 
 297   0.0000       0.468109        12.7379 
 298   0.0000       0.471671        12.8348 
 299   0.0000       0.473231        12.8773 
 300   0.0000       0.473585        12.8869 
 301   0.0000       0.476276        12.9601 
 302   0.0000       0.477097        12.9825 
 303   0.0000       0.479622        13.0512 
 304   0.0000       0.483584        13.1590 
 305   0.0000       0.488103        13.2820 
 306   0.0000       0.488985        13.3060 
 307   0.0000       0.493414        13.4265 
 308   0.0000       0.500320        13.6144 
 309   0.0000       0.501376        13.6431 
 310   0.0000       0.502803        13.6820 
 311   0.0000       0.504694        13.7334 
 312   0.0000       0.506614        13.7857 
 313   0.0000       0.508691        13.8422 
 314   0.0000       0.509123        13.8539 
 315   0.0000       0.511145        13.9090 
 316   0.0000       0.514436        13.9985 
 317   0.0000       0.516962        14.0672 
 318   0.0000       0.517621        14.0852 
 319   0.0000       0.518494        14.1089 
 320   0.0000       0.522069        14.2062 
 321   0.0000       0.524465        14.2714 
 322   0.0000       0.527523        14.3546 
 323   0.0000       0.529739        14.4149 
 324   0.0000       0.530215        14.4279 
 325   0.0000       0.533584        14.5196 
 326   0.0000       0.535630        14.5752 
 327   0.0000       0.538346        14.6491 
 328   0.0000       0.539365        14.6769 
 329   0.0000       0.540442        14.7062 
 330   0.0000       0.543659        14.7937 
 331   0.0000       0.544291        14.8109 
 332   0.0000       0.547315        14.8932 
[...]
   145a -> 150a  :     0.023257 
   145a -> 154a  :     0.014459 
   146a -> 149a  :     0.014232 
   146a -> 151a  :     0.024066 
   146a -> 159a  :     0.021551 
   147a -> 154a  :     0.075661 
   147a -> 156a  :     0.012493 
   147a -> 158a  :     0.047693 
   147a -> 160a  :     0.069165 

STATE 21:  E=   0.214584 au      5.839 eV    47095.8 cm**-1 <S**2> =   0.000000
   134a -> 148a  :     0.023081 
   135a -> 149a  :     0.046225 
   136a -> 148a  :     0.051150 
   136a -> 150a  :     0.028359 
   136a -> 154a  :     0.024635 
   137a -> 148a  :     0.044534 
   139a -> 151a  :     0.039590 
   140a -> 153a  :     0.035913 
   141a -> 154a  :     0.011526 
   142a -> 149a  :     0.028263 
   142a -> 155a  :     0.021351 
   142a -> 157a  :     0.023430 
   143a -> 148a  :     0.015181 
   143a -> 153a  :     0.011641 
   143a -> 156a  :     0.026946 
   144a -> 149a  :     0.061890 
   144a -> 151a  :     0.038395 
   144a -> 155a  :     0.056101 
   144a -> 157a  :     0.044515 
   145a -> 149a  :     0.049178 
   145a -> 155a  :     0.020156 
   145a -> 159a  :     0.012972 
   146a -> 148a  :     0.015640 
   146a -> 160a  :     0.020364 
   147a -> 155a  :     0.060374 
   147a -> 157a  :     0.016103 
   147a -> 166a  :     0.021643 

STATE 22:  E=   0.209054 au      5.689 eV    45882.1 cm**-1 <S**2> =   0.000000
   134a -> 148a  :     0.017126 
   136a -> 148a  :     0.113547 
   136a -> 150a  :     0.027501 
   137a -> 148a  :     0.018748 
   137a -> 154a  :     0.025928 
   139a -> 151a  :     0.021279 
   140a -> 153a  :     0.014744 
   141a -> 148a  :     0.019000 
   142a -> 149a  :     0.035797 
   142a -> 155a  :     0.023331 
   143a -> 148a  :     0.016970 
   143a -> 156a  :     0.015881 
   144a -> 149a  :     0.061489 
   144a -> 155a  :     0.018750 
   144a -> 159a  :     0.022087 
   145a -> 149a  :     0.035131 
   145a -> 151a  :     0.061134 
   145a -> 159a  :     0.060131 
   146a -> 150a  :     0.065420 
   146a -> 158a  :     0.010022 
   146a -> 160a  :     0.015042 
   147a -> 151a  :     0.020804 
   147a -> 155a  :     0.041195 
   147a -> 159a  :     0.016578 
   147a -> 166a  :     0.013677 

STATE 23:  E=   0.210469 au      5.727 eV    46192.5 cm**-1 <S**2> =   0.000000
   136a -> 151a  :     0.011942 
   136a -> 155a  :     0.012930 
   144a -> 148a  :     0.036052 
   144a -> 150a  :     0.030775 
   144a -> 154a  :     0.012144 
   144a -> 158a  :     0.017835 
   145a -> 150a  :     0.077005 
   145a -> 161a  :     0.015659 
   146a -> 151a  :     0.021772 
   146a -> 159a  :     0.016726 
   147a -> 153a  :     0.025532 
   147a -> 154a  :     0.062707 
   147a -> 158a  :     0.044659 
   147a -> 161a  :     0.219084 
   147a -> 162a  :     0.054132 
   147a -> 164a  :     0.063516 
   147a -> 165a  :     0.025911 
   147a -> 168a  :     0.054597 
   147a -> 176a  :     0.013056 

STATE 24:  E=   0.213681 au      5.815 eV    46897.5 cm**-1 <S**2> =   0.000000
   136a -> 151a  :     0.019168 
   136a -> 155a  :     0.024007 
   141a -> 149a  :     0.018000 
   142a -> 148a  :     0.051375 
   142a -> 153a  :     0.011575 
   142a -> 154a  :     0.010951 
   143a -> 149a  :     0.038619 
   143a -> 151a  :     0.011985 
   143a -> 157a  :     0.010650 
   144a -> 148a  :     0.030805 
   144a -> 150a  :     0.099865 
   144a -> 154a  :     0.015121 
   144a -> 158a  :     0.030995 
   145a -> 150a  :     0.042459 
   145a -> 153a  :     0.028058 
   145a -> 156a  :     0.017836 
   145a -> 158a  :     0.021004 
   146a -> 155a  :     0.035757 
   146a -> 159a  :     0.012692 
   147a -> 153a  :     0.017096 
   147a -> 154a  :     0.044288 
   147a -> 156a  :     0.054181 
   147a -> 161a  :     0.096035 
   147a -> 162a  :     0.023135 
   147a -> 164a  :     0.026258 
   147a -> 165a  :     0.010375 
   147a -> 168a  :     0.025129 

STATE 25:  E=   0.213098 au      5.799 eV    46769.6 cm**-1 <S**2> =   0.000000
   134a -> 148a  :     0.010191 
   135a -> 149a  :     0.015008 
   138a -> 152a  :     0.016183 
   139a -> 151a  :     0.054002 
   139a -> 157a  :     0.024212 
   140a -> 150a  :     0.018516 
   140a -> 153a  :     0.038957 
   140a -> 158a  :     0.013642 
   141a -> 150a  :     0.045774 
   142a -> 149a  :     0.010744 
   142a -> 151a  :     0.012150 
   143a -> 148a  :     0.010294 
   143a -> 150a  :     0.011726 
   144a -> 149a  :     0.010639 
   144a -> 151a  :     0.021706 
   145a -> 149a  :     0.025963 
   145a -> 151a  :     0.046322 
   145a -> 155a  :     0.060504 
   146a -> 148a  :     0.046056 
   146a -> 150a  :     0.163204 
   146a -> 153a  :     0.015566 
   146a -> 156a  :     0.036197 
   146a -> 158a  :     0.016248 
   147a -> 151a  :     0.069866 
   147a -> 159a  :     0.012837 
   147a -> 166a  :     0.012025 

STATE 26:  E=   0.210599 au      5.731 eV    46221.2 cm**-1 <S**2> =   0.000000
   136a -> 148a  :     0.022543 
   137a -> 148a  :     0.016090 
   139a -> 149a  :     0.083002 
   139a -> 151a  :     0.014062 
   140a -> 148a  :     0.078687 
   140a -> 153a  :     0.017054 
   142a -> 149a  :     0.060289 
   142a -> 157a  :     0.010685 
   142a -> 159a  :     0.010108 
   143a -> 148a  :     0.047822 
   143a -> 154a  :     0.024525 
   144a -> 149a  :     0.014523 
   145a -> 149a  :     0.025525 
   145a -> 151a  :     0.037224 
   145a -> 155a  :     0.027810 
   146a -> 148a  :     0.013696 
   146a -> 153a  :     0.031154 
   146a -> 156a  :     0.057735 
   147a -> 157a  :     0.236853 
   147a -> 159a  :     0.026940 

STATE 27:  E=   0.214450 au      5.835 eV    47066.4 cm**-1 <S**2> =   0.000000
   139a -> 148a  :     0.097353 
   140a -> 149a  :     0.083666 
   141a -> 155a  :     0.010168 
   142a -> 148a  :     0.039479 
   142a -> 154a  :     0.026148 
   143a -> 149a  :     0.041526 
   143a -> 159a  :     0.011331 
   145a -> 150a  :     0.013482 
   145a -> 153a  :     0.022293 
   145a -> 156a  :     0.017457 
   146a -> 151a  :     0.013668 
   146a -> 155a  :     0.034071 
   146a -> 157a  :     0.046072 
   147a -> 156a  :     0.088686 
   147a -> 158a  :     0.128133 
   147a -> 161a  :     0.108333 
   147a -> 162a  :     0.019623 
   147a -> 164a  :     0.018827 
   147a -> 165a  :     0.012180 
   147a -> 168a  :     0.021317 

STATE 28:  E=   0.227754 au      6.198 eV    49986.2 cm**-1 <S**2> =   0.000000
   139a -> 150a  :     0.044855 
   139a -> 153a  :     0.040266 
   139a -> 156a  :     0.065985 
   139a -> 158a  :     0.040091 
   140a -> 151a  :     0.082659 
   140a -> 155a  :     0.014112 
   140a -> 157a  :     0.072956 
   142a -> 150a  :     0.042152 
   142a -> 153a  :     0.116949 
   143a -> 151a  :     0.140358 
   143a -> 155a  :     0.034359 
   146a -> 149a  :     0.084022 
   146a -> 151a  :     0.025000 
   146a -> 155a  :     0.023295 
   147a -> 153a  :     0.019703 

STATE 29:  E=   0.225606 au      6.139 eV    49514.7 cm**-1 <S**2> =   0.000000
   139a -> 151a  :     0.050182 
   139a -> 155a  :     0.012608 
   139a -> 157a  :     0.070672 
   140a -> 150a  :     0.030271 
   140a -> 153a  :     0.011041 
   140a -> 156a  :     0.063799 
   140a -> 158a  :     0.023045 
   142a -> 151a  :     0.126094 
   142a -> 155a  :     0.050218 
   143a -> 150a  :     0.044304 
   143a -> 153a  :     0.128013 
   143a -> 156a  :     0.012843 
   144a -> 151a  :     0.013860 
   145a -> 149a  :     0.013145 
   145a -> 151a  :     0.013472 
   146a -> 148a  :     0.010742 
   146a -> 150a  :     0.081950 
   147a -> 151a  :     0.053317 
   147a -> 159a  :     0.065640 

STATE 30:  E=   0.211879 au      5.766 eV    46502.0 cm**-1 <S**2> =   0.000000
   139a -> 148a  :     0.024604 
   140a -> 149a  :     0.020216 
   140a -> 157a  :     0.011818 
   142a -> 153a  :     0.014884 
   143a -> 151a  :     0.011183 
   144a -> 150a  :     0.076837 
   144a -> 156a  :     0.010723 
   145a -> 150a  :     0.013577 
   145a -> 153a  :     0.069056 
   145a -> 156a  :     0.020231 
   145a -> 158a  :     0.041172 
   146a -> 151a  :     0.150145 
   146a -> 155a  :     0.031575 
   146a -> 157a  :     0.029206 
   147a -> 150a  :     0.048919 
   147a -> 153a  :     0.209773 
   147a -> 161a  :     0.025232 


-------------------------
TD-DFT-EXCITATION SPECTRA
-------------------------

Center of mass = (  0.0000,  0.0112, -0.0001)
Calculating the Dipole integrals                  ... done
Transforming integrals                            ... done
Calculating the Linear Momentum integrals         ... done
Transforming integrals                            ... done
Calculating angular momentum integrals            ... done
Transforming integrals                            ... done

-----------------------------------------------------------------------------
         ABSORPTION SPECTRUM VIA TRANSITION ELECTRIC DIPOLE MOMENTS
-----------------------------------------------------------------------------
State   Energy    Wavelength  fosc         T2        TX        TY        TZ  
        (cm-1)      (nm)                 (au**2)    (au)      (au)      (au) 
-----------------------------------------------------------------------------
   1   26004.1    384.6   1.143166137  14.47249   3.80423  -0.00142   0.01866
   2   32053.8    312.0   0.735199392   7.55093   0.00146   2.74790  -0.00167
   3   30489.2    328.0   0.366639494   3.95885  -1.98921  -0.00149  -0.04330
   4   32699.7    305.8   0.071243716   0.71726  -0.00346   0.84691  -0.00079
   5   35890.2    278.6   0.673173829   6.17486  -2.48485   0.00026  -0.02001
   6   34438.1    290.4   0.000877218   0.00839  -0.00267   0.09153  -0.00024
   7   35542.0    281.4   0.003962113   0.03670  -0.19115   0.00185  -0.01250
   8   35492.4    281.8   0.002042798   0.01895  -0.00378  -0.13760   0.00009
   9   38213.1    261.7   0.000316520   0.00273  -0.00096  -0.05220  -0.00093
  10   38147.2    262.1   0.000110712   0.00096   0.02109   0.00004   0.02260
  11   38206.1    261.7   0.000353796   0.00305   0.00035  -0.05521  -0.00003
  12   37648.0    265.6   0.026161251   0.22877  -0.47829  -0.00038   0.00292
  13   40864.9    244.7   0.391139349   3.15106  -1.77064  -0.00049  -0.12609
  14   41800.1    239.2   0.000504385   0.00397  -0.00881   0.06238  -0.00193
  15   40488.8    247.0   0.002545002   0.02069   0.09385  -0.00114  -0.10902
  16   41080.9    243.4   0.108156385   0.86674   0.92377   0.00037  -0.11574
  17   42908.8    233.1   0.022627424   0.17361   0.00190  -0.41665  -0.00102
  18   43789.4    228.4   0.011975422   0.09003  -0.26950  -0.00063   0.13191
  19   49607.6    201.6   0.001821897   0.01209  -0.00080   0.10995  -0.00031
  20   45389.0    220.3   0.543857505   3.94467   1.98609  -0.00014   0.01034
  21   47095.8    212.3   0.139154868   0.97273   0.00179  -0.98627   0.00229
  22   45882.1    217.9   0.009748264   0.06995  -0.00638  -0.26423  -0.00944
  23   46192.5    216.5   0.095668701   0.68183  -0.69759  -0.00182  -0.44180
  24   46897.5    213.2   0.455389969   3.19675   1.54361  -0.00430  -0.90221
  25   46769.6    213.8   0.536232243   3.77454  -0.00513  -1.94281   0.00469
  26   46221.2    216.4   0.498792994   3.55267   0.00231  -1.88484  -0.00564
  27   47066.4    212.5   0.347042741   2.42743   0.81217   0.00824  -1.32957
  28   49986.2    200.1   1.308489275   8.61778  -2.92511   0.00172  -0.24799
  29   49514.7    202.0   0.505394581   3.36025  -0.00241  -1.83310   0.00032
  30   46502.0    215.0   0.122493480   0.86719   0.72699  -0.00883  -0.58189

-----------------------------------------------------------------------------
         ABSORPTION SPECTRUM VIA TRANSITION VELOCITY DIPOLE MOMENTS
-----------------------------------------------------------------------------
State   Energy    Wavelength   fosc        P2         PX        PY        PZ  
        (cm-1)      (nm)                 (au**2)     (au)      (au)      (au) 
-----------------------------------------------------------------------------
   1   26004.1    384.6   1.492249163   0.26521  -0.51498   0.00019  -0.00242
   2   32053.8    312.0   0.864556142   0.18940  -0.00022  -0.43520   0.00027
   3   30489.2    328.0   0.530008849   0.11044   0.33225   0.00025   0.00738
   4   32699.7    305.8   0.095835328   0.02142   0.00060  -0.14635   0.00013
   5   35890.2    278.6   0.789750068   0.19372   0.44012  -0.00005   0.00353
   6   34438.1    290.4   0.001290055   0.00030   0.00051  -0.01742   0.00005
   7   35542.0    281.4   0.005824007   0.00141   0.03752  -0.00036   0.00262
   8   35492.4    281.8   0.002912861   0.00071   0.00074   0.02657  -0.00001
   9   38213.1    261.7   0.000411771   0.00011   0.00019   0.01037   0.00019
  10   38147.2    262.1   0.000143253   0.00004  -0.00473  -0.00000  -0.00387
  11   38206.1    261.7   0.000457725   0.00012  -0.00007   0.01093   0.00001
  12   37648.0    265.6   0.039319619   0.01012   0.10058   0.00007  -0.00055
  13   40864.9    244.7   0.496007458   0.13853   0.37126   0.00010   0.02644
  14   41800.1    239.2   0.000584702   0.00017   0.00186  -0.01278   0.00040
  15   40488.8    247.0   0.003312182   0.00092  -0.01972   0.00024   0.02297
  16   41080.9    243.4   0.146052091   0.04101  -0.20090  -0.00008   0.02539
  17   42908.8    233.1   0.028893428   0.00847  -0.00041   0.09205   0.00021
  18   43789.4    228.4   0.014452211   0.00433   0.06020   0.00013  -0.02648
  19   49607.6    201.6   0.001815257   0.00062   0.00017  -0.02481   0.00007
  20   45389.0    220.3   0.639885002   0.19850  -0.44551   0.00004  -0.00406
  21   47095.8    212.3   0.156717605   0.05044  -0.00042   0.22460  -0.00045
  22   45882.1    217.9   0.011785070   0.00370   0.00149   0.06074   0.00195
  23   46192.5    216.5   0.109539145   0.03458   0.16269   0.00044   0.09008
  24   46897.5    213.2   0.530544577   0.17005  -0.35900   0.00101   0.20289
  25   46769.6    213.8   0.646378716   0.20661   0.00120   0.45454  -0.00107
  26   46221.2    216.4   0.625380507   0.19756  -0.00054   0.44447   0.00136
  27   47066.4    212.5   0.443208202   0.14257  -0.19275  -0.00197   0.32467
  28   49986.2    200.1   1.458415053   0.49824   0.70340  -0.00042   0.05894
  29   49514.7    202.0   0.578758615   0.19586   0.00058   0.44256  -0.00007
  30   46502.0    215.0   0.160433977   0.05099  -0.17748   0.00217   0.13959

-------------------------------------------------------------------
                             CD SPECTRUM
-------------------------------------------------------------------
State  Energy     Wavelength     R         MX        MY        MZ   
       (cm-1)       (nm)     (1e40*cgs)   (au)      (au)      (au)  
-------------------------------------------------------------------
   1   26004.1    384.6     42.45907   0.03309  -0.00218  -1.91897
   2   32053.8    312.0     68.01103   0.00098   0.05250  -0.00066
   3   30489.2    328.0     -1.46335  -0.00485   0.00142   0.29421
   4   32699.7    305.8     -3.73031   0.00020  -0.00934   0.00017
   5   35890.2    278.6     38.01672  -0.03778   0.00142   0.66211
   6   34438.1    290.4      4.66480   0.00027   0.10810  -0.00013
   7   35542.0    281.4     -7.28593   0.08973  -0.00389  -0.13639
   8   35492.4    281.8    -13.45133   0.00143   0.20731  -0.00266
   9   38213.1    261.7     -3.64715  -0.00063   0.14819   0.00087
  10   38147.2    262.1      2.59457   0.09622   0.00015   0.15374
  11   38206.1    261.7     -2.65970  -0.00002   0.10218  -0.00000
  12   37648.0    265.6      0.05068  -0.00164   0.00085  -0.23064
  13   40864.9    244.7    -49.14122   0.01167   0.00159   0.66278
  14   41800.1    239.2     -1.26607  -0.00146  -0.04316   0.00305
  15   40488.8    247.0     -2.71739  -0.12710   0.00042  -0.05655
  16   41080.9    243.4    -56.27050  -0.08751  -0.00071   0.33275
  17   42908.8    233.1    -37.68567  -0.00071   0.19185   0.00030
  18   43789.4    228.4    -83.30742   0.22175  -0.00010  -0.88654
  19   49607.6    201.6     -1.80564  -0.00138  -0.03484   0.00102
  20   45389.0    220.3    -231.24756  -0.24408  -0.00209  -0.55479
  21   47095.8    212.3    -335.63351  -0.00130   0.72182  -0.00279
  22   45882.1    217.9    133.63944   0.00527  -1.07354   0.01697
  23   46192.5    216.5    -307.62342   0.17410   0.02300   1.20192
  24   46897.5    213.2    427.37182   0.68967   0.00943   0.17517
  25   46769.6    213.8    -1139.91552  -0.00455   1.24454  -0.00309
  26   46221.2    216.4    3024.40234   0.00550  -3.40354   0.00947
  27   47066.4    212.5    -1757.76897   1.18809   0.00984   3.53005
  28   49986.2    200.1    -441.24106   0.10676   0.00119   2.51481
  29   49514.7    202.0     77.27004   0.00013  -0.08941   0.00389
  30   46502.0    215.0    -241.83394   0.18170  -0.00996   1.10870

Total run time:   298678.878 sec

           *** ORCA-CIS/TD-DFT FINISHED WITHOUT ERROR ***

Maximum memory used throughout the entire CIS-calculation: 10020.5 MB

-----------------------
CIS/TD-DFT TOTAL ENERGY
-----------------------

    E(SCF)  =  -1743.643808173 Eh
    DE(CIS) =      0.118483397 Eh (Root  1)
    ----------------------------- ---------
    E(tot)  =  -1743.525324776 Eh


-------------------------   --------------------
FINAL SINGLE POINT ENERGY     -1743.525324776278
-------------------------   --------------------


                            ***************************************
                            *     ORCA property calculations      *
                            ***************************************


  WARNING: The energy has been calculated at the MP2 level but the densities
           used in the property calculations are still SCF densities
           MP2 response densities have not been calculated 
           use %mp2 Density relaxed end
           or  %mp2 Density unrelaxed end

                                    ---------------------
                                    Active property flags
                                    ---------------------
   (+) Dipole Moment


------------------------------------------------------------------------------
                       ORCA ELECTRIC PROPERTIES CALCULATION
------------------------------------------------------------------------------

Dipole Moment Calculation                       ... on
Quadrupole Moment Calculation                   ... off
Polarizability Calculation                      ... off
GBWName                                         ... POZ_5_M06L_def2TZVP_coords.gbw
Electron density                                ... POZ_5_M06L_def2TZVP_coords.scfp
The origin for moment calculation is the CENTER OF MASS  = ( 0.000004,  0.011184 -0.000097)

-------------
DIPOLE MOMENT
-------------
                                X             Y             Z
Electronic contribution:      0.00079       4.77645      -0.02558
Nuclear contribution   :     -0.00106      -3.31033       0.02858
                        -----------------------------------------
Total Dipole Moment    :     -0.00027       1.46612       0.00300
                        -----------------------------------------
Magnitude (a.u.)       :      1.46612
Magnitude (Debye)      :      3.72659



--------------------
Rotational spectrum 
--------------------
 
Rotational constants in cm-1:     0.003126     0.000782     0.000637 
Rotational constants in MHz :    93.711609    23.448179    19.093811 

 Dipole components along the rotational axes: 
x,y,z [a.u.] :     0.000268     1.466121     0.003012 
x,y,z [Debye]:     0.000681     3.726583     0.007656 

 

Timings for individual modules:

Sum of individual times         ...   309361.531 sec (=5156.026 min)
GTO integral calculation        ...       10.733 sec (=   0.179 min)   0.0 %
SCF iterations                  ...     1998.511 sec (=  33.309 min)   0.6 %
MP2 module                      ...     8667.797 sec (= 144.463 min)   2.8 %
CIS module                      ...   298684.490 sec (=4978.075 min)  96.5 %
                             ****ORCA TERMINATED NORMALLY****
TOTAL RUN TIME: 3 days 13 hours 56 minutes 22 seconds 363 msec
