
                                 *****************
                                 * O   R   C   A *
                                 *****************

                                            #,                                       
                                            ###                                      
                                            ####                                     
                                            #####                                    
                                            ######                                   
                                           ########,                                 
                                     ,,################,,,,,                         
                               ,,#################################,,                 
                          ,,##########################################,,             
                       ,#########################################, ''#####,          
                    ,#############################################,,   '####,        
                  ,##################################################,,,,####,       
                ,###########''''           ''''###############################       
              ,#####''   ,,,,##########,,,,          '''####'''          '####       
            ,##' ,,,,###########################,,,                        '##       
           ' ,,###''''                  '''############,,,                           
         ,,##''                                '''############,,,,        ,,,,,,###''
      ,#''                                            '''#######################'''  
     '                                                          ''''####''''         
             ,#######,   #######,   ,#######,      ##                                
            ,#'     '#,  ##    ##  ,#'     '#,    #''#        ######   ,####,        
            ##       ##  ##   ,#'  ##            #'  '#       #        #'  '#        
            ##       ##  #######   ##           ,######,      #####,   #    #        
            '#,     ,#'  ##    ##  '#,     ,#' ,#      #,         ##   #,  ,#        
             '#######'   ##     ##  '#######'  #'      '#     #####' # '####'        



                  #######################################################
                  #                        -***-                        #
                  #          Department of theory and spectroscopy      #
                  #    Directorship and core code : Frank Neese         #
                  #        Max Planck Institute fuer Kohlenforschung    #
                  #                Kaiser Wilhelm Platz 1               #
                  #                 D-45470 Muelheim/Ruhr               #
                  #                      Germany                        #
                  #                                                     #
                  #                  All rights reserved                #
                  #                        -***-                        #
                  #######################################################


                         Program Version 5.0.2 -  RELEASE  -


 With contributions from (in alphabetic order):
   Daniel Aravena         : Magnetic Suceptibility
   Michael Atanasov       : Ab Initio Ligand Field Theory (pilot matlab implementation)
   Alexander A. Auer      : GIAO ZORA, VPT2 properties, NMR spectrum
   Ute Becker             : Parallelization
   Giovanni Bistoni       : ED, misc. LED, open-shell LED, HFLD
   Martin Brehm           : Molecular dynamics
   Dmytro Bykov           : SCF Hessian
   Vijay G. Chilkuri      : MRCI spin determinant printing, contributions to CSF-ICE
   Dipayan Datta          : RHF DLPNO-CCSD density
   Achintya Kumar Dutta   : EOM-CC, STEOM-CC
   Dmitry Ganyushin       : Spin-Orbit,Spin-Spin,Magnetic field MRCI
   Miquel Garcia          : C-PCM and meta-GGA Hessian, CC/C-PCM, Gaussian charge scheme
   Yang Guo               : DLPNO-NEVPT2, F12-NEVPT2, CIM, IAO-localization
   Andreas Hansen         : Spin unrestricted coupled pair/coupled cluster methods
   Benjamin Helmich-Paris : MC-RPA, TRAH-SCF, COSX integrals
   Lee Huntington         : MR-EOM, pCC
   Robert Izsak           : Overlap fitted RIJCOSX, COSX-SCS-MP3, EOM
   Marcus Kettner         : VPT2
   Christian Kollmar      : KDIIS, OOCD, Brueckner-CCSD(T), CCSD density, CASPT2, CASPT2-K
   Simone Kossmann        : Meta GGA functionals, TD-DFT gradient, OOMP2, MP2 Hessian
   Martin Krupicka        : Initial AUTO-CI
   Lucas Lang             : DCDCAS
   Marvin Lechner         : AUTO-CI (C++ implementation), FIC-MRCC
   Dagmar Lenk            : GEPOL surface, SMD
   Dimitrios Liakos       : Extrapolation schemes; Compound Job, initial MDCI parallelization
   Dimitrios Manganas     : Further ROCIS development; embedding schemes
   Dimitrios Pantazis     : SARC Basis sets
   Anastasios Papadopoulos: AUTO-CI, single reference methods and gradients
   Taras Petrenko         : DFT Hessian,TD-DFT gradient, ASA, ECA, R-Raman, ABS, FL, XAS/XES, NRVS
   Peter Pinski           : DLPNO-MP2, DLPNO-MP2 Gradient
   Christoph Reimann      : Effective Core Potentials
   Marius Retegan         : Local ZFS, SOC
   Christoph Riplinger    : Optimizer, TS searches, QM/MM, DLPNO-CCSD(T), (RO)-DLPNO pert. Triples
   Tobias Risthaus        : Range-separated hybrids, TD-DFT gradient, RPA, STAB
   Michael Roemelt        : Original ROCIS implementation
   Masaaki Saitow         : Open-shell DLPNO-CCSD energy and density
   Barbara Sandhoefer     : DKH picture change effects
   Avijit Sen             : IP-ROCIS
   Kantharuban Sivalingam : CASSCF convergence, NEVPT2, FIC-MRCI
   Bernardo de Souza      : ESD, SOC TD-DFT
   Georgi Stoychev        : AutoAux, RI-MP2 NMR, DLPNO-MP2 response
   Willem Van den Heuvel  : Paramagnetic NMR
   Boris Wezisla          : Elementary symmetry handling
   Frank Wennmohs         : Technical directorship


 We gratefully acknowledge several colleagues who have allowed us to
 interface, adapt or use parts of their codes:
   Stefan Grimme, W. Hujo, H. Kruse, P. Pracht,  : VdW corrections, initial TS optimization,
                  C. Bannwarth, S. Ehlert          DFT functionals, gCP, sTDA/sTD-DF
   Ed Valeev, F. Pavosevic, A. Kumar             : LibInt (2-el integral package), F12 methods
   Garnet Chan, S. Sharma, J. Yang, R. Olivares  : DMRG
   Ulf Ekstrom                                   : XCFun DFT Library
   Mihaly Kallay                                 : mrcc  (arbitrary order and MRCC methods)
   Jiri Pittner, Ondrej Demel                    : Mk-CCSD
   Frank Weinhold                                : gennbo (NPA and NBO analysis)
   Christopher J. Cramer and Donald G. Truhlar   : smd solvation model
   Lars Goerigk                                  : TD-DFT with DH, B97 family of functionals
   V. Asgeirsson, H. Jonsson                     : NEB implementation
   FAccTs GmbH                                   : IRC, NEB, NEB-TS, DLPNO-Multilevel, CI-OPT
                                                   MM, QMMM, 2- and 3-layer-ONIOM, Crystal-QMMM,
                                                   LR-CPCM, SF, NACMEs, symmetry and pop. for TD-DFT,
                                                   nearIR, NL-DFT gradient (VV10), updates on ESD,
                                                   ML-optimized integration grids
   S Lehtola, MJT Oliveira, MAL Marques          : LibXC Library
   Liviu Ungur et al                             : ANISO software


 Your calculation uses the libint2 library for the computation of 2-el integrals
 For citations please refer to: http://libint.valeyev.net

 Your ORCA version has been built with support for libXC version: 5.1.0
 For citations please refer to: https://tddft.org/programs/libxc/

 This ORCA versions uses:
   CBLAS   interface :  Fast vector & matrix operations
   LAPACKE interface :  Fast linear algebra routines
   SCALAPACK package :  Parallel linear algebra routines
   Shared memory     :  Shared parallel matrices
   BLAS/LAPACK       :  OpenBLAS 0.3.15  USE64BITINT DYNAMIC_ARCH NO_AFFINITY Zen SINGLE_THREADED
        Core in use  :  Zen
   Copyright (c) 2011-2014, The OpenBLAS Project


Your calculation utilizes the SMD solvation module
Please cite in your paper:
A.V. Marenich, C.J. Cramer, D.G. Truhlar J. Phys. Chem. B, 113, (2009), 6378 

================================================================================

----- Orbital basis set information -----
Your calculation utilizes the basis: def2-TZVP
   F. Weigend and R. Ahlrichs, Phys. Chem. Chem. Phys. 7, 3297 (2005).

----- AuxJ basis set information -----
Your calculation utilizes the auxiliary basis: def2/J
   F. Weigend, Phys. Chem. Chem. Phys. 8, 1057 (2006).

----- AuxC basis set information -----
Your calculation utilizes the auxiliary basis: def2-TZVP/C
  H-La, Hf-Rn : A. Hellweg, C. Hattig, S. Hofener and W. Klopper, Theor. Chem. Acc. 117, 587 (2007).
        Ce-Lu : J. Chmela and M. E. Harding, Mol. Phys. (2018).

================================================================================
                                        WARNINGS
                       Please study these warnings very carefully!
================================================================================

INFO   : Checking CIS options ...
  ===> : (D) CORRECTION FOUND - SETTING MODE=3
  ===> : JK MODE FOUND - ACTIVATING RI-MP2 CODE
  ===> : MP2 AND CIS FOUND - CHECKING
WARNING: CIS(D) and MP2 runs must have the same orbital window
  ===> : adjusting orbital windows

WARNING: No MP2 level density has been requested!
         To caclulate MP2 level properties use
         %mp2 Density relaxed end
         or
         %mp2 Density unrelaxed end
         Otherwise for double-hybrid DFT only the energy is correct!

WARNING: The frozen-core approximation is turned on by default for 
         the MP2 part of double-hybrid DFT.

WARNING:  You are using a Range-Separated Double Hybrid functional with Doubles Correction 
          Changing Mode to RPA_AOINTS 


WARNING: CIS/ROCIS methods need fully converged wavefunctions
  ===> : Setting SCFConvForced true
         You can overwrite this default with %scf ConvForced false 


INFO   : the flag for use of the SHARK integral package has been found!

================================================================================
                                       INPUT FILE
================================================================================
NAME = POZ_5_M06L_def2TZVP_coords.inp
|  1> %maxcore 3200
|  2> %pal
|  3>  nprocs= 8
|  4> end
|  5> ! RI-wB2PLYP def2-TZVP def2/J def2-TZVP/C RIJCOSX CPCM TightSCF
|  6> %TDDFT DCORR 1
|  7>    NROOTS   30
|  8> 
|  9>    TDA      FALSE
| 10> END
| 11> 
| 12> %CPCM
| 13>    SMD          TRUE
| 14>    SMDsolvent   "N,N-DIMETHYLACETAMIDE"
| 15> END
| 16>    
| 17> 
| 18> * xyz 0 1
| 19> C                  -3.61688000    1.95222700    0.00979700
| 20> C                  -2.44498300    2.69219500    0.00577400
| 21> C                  -1.20128400    2.06784400   -0.00149600
| 22> C                  -1.17907300    0.66788400   -0.00746600
| 23> C                  -2.34227100   -0.06585600   -0.00741200
| 24> C                  -3.59805500    0.55825700    0.00165200
| 25> C                   1.17925100    0.66797700    0.00012600
| 26> C                   1.20135300    2.06794100   -0.00564300
| 27> C                   2.44501800    2.69237500   -0.01150300
| 28> H                   2.49303900    3.77321800   -0.00557800
| 29> C                   3.61696900    1.95248600   -0.01421200
| 30> C                   3.59827200    0.55852100   -0.00584900
| 31> C                   2.34249600   -0.06566900    0.00156900
| 32> H                  -2.49308300    3.77303600   -0.00006600
| 33> H                  -2.25543500   -1.14453900    0.00896800
| 34> H                   4.56073300    2.48154200    0.00265200
| 35> N                   0.00000900    2.76974200   -0.00410800
| 36> C                  -0.00004400    4.19949700   -0.00031200
| 37> C                   0.00177500    4.89081800   -1.20408000
| 38> C                  -0.00193000    4.88400000    1.20737700
| 39> C                   0.00177600    6.27761900   -1.19683800
| 40> C                  -0.00208600    6.27078300    1.20807700
| 41> H                  -0.00331900    4.32511400    2.13518600
| 42> C                  -0.00019500    6.96725300    0.00757900
| 43> H                  -0.00358800    6.80775300    2.14807900
| 44> H                  -0.00025800    8.04987200    0.01064200
| 45> H                   2.25571800   -1.14436300   -0.01477100
| 46> H                  -4.56071600    2.48121500   -0.00600400
| 47> C                  -4.83465400   -0.23344000   -0.00549800
| 48> C                  -4.86912000   -1.53095200   -0.52941200
| 49> C                  -6.03242900    0.27587300    0.50971700
| 50> C                  -6.03346800   -2.27397400   -0.54043000
| 51> H                  -3.97000500   -1.96338800   -0.95084000
| 52> C                  -7.19568500   -0.46915300    0.50181400
| 53> H                  -6.05130600    1.27062200    0.93751300
| 54> C                  -7.22900300   -1.76453000   -0.02454400
| 55> H                  -6.01072000   -3.27794800   -0.94633800
| 56> H                  -8.10232300   -0.03070500    0.90091100
| 57> C                  -8.46775000   -2.55848400   -0.03671700
| 58> C                  -8.69537900   -3.52297100   -1.02463100
| 59> C                  -9.45568300   -2.37552800    0.93692500
| 60> C                  -9.86027200   -4.27171800   -1.03872000
| 61> H                  -7.95862700   -3.67262300   -1.80424300
| 62> C                 -10.62003700   -3.12578400    0.92352900
| 63> H                  -9.29910100   -1.65084400    1.72667100
| 64> C                 -10.82954000   -4.07809300   -0.06437200
| 65> H                 -10.01498200   -5.00597100   -1.81977700
| 66> H                 -11.36515500   -2.97070200    1.69415900
| 67> H                 -11.74002800   -4.66387300   -0.07456800
| 68> C                   4.83493800   -0.23306800    0.00315900
| 69> C                   4.86829700   -1.53110400    0.52585200
| 70> C                   6.03385300    0.27676000   -0.50893300
| 71> C                   6.03252800   -2.27425500    0.53845900
| 72> H                   3.96829300   -1.96390300    0.94498200
| 73> C                   7.19702400   -0.46839400   -0.49941800
| 74> H                   6.05370500    1.27200400   -0.93557100
| 75> C                   7.22914400   -1.76437800    0.02552300
| 76> H                   6.00883900   -3.27870400    0.94315900
| 77> H                   8.10456900   -0.02959600   -0.89607400
| 78> C                   8.46773800   -2.55854200    0.03917500
| 79> C                   8.69365700   -3.52365500    1.02687300
| 80> C                   9.45714600   -2.37529900   -0.93288700
| 81> C                   9.85829700   -4.27277200    1.04223400
| 82> H                   7.95576200   -3.67358200    1.80535600
| 83> C                  10.62126300   -3.12591200   -0.91821500
| 84> H                   9.30198600   -1.65016900   -1.72250000
| 85> C                  10.82903400   -4.07888800    0.06940600
| 86> H                  10.01163200   -5.00753100    1.82308600
| 87> H                  11.36754600   -2.97055700   -1.68766400
| 88> H                  11.73931500   -4.66497100    0.08052700
| 89> O                   0.00012000   -0.03539000   -0.00456200
| 90> H                   0.00321700    6.81993700   -2.13376300
| 91> H                   0.00321900    4.33723700   -2.13505800
| 92> *
| 93> 
| 94> 
| 95>                          ****END OF INPUT****
================================================================================

                       ****************************
                       * Single Point Calculation *
                       ****************************

---------------------------------
CARTESIAN COORDINATES (ANGSTROEM)
---------------------------------
  C     -3.616880    1.952227    0.009797
  C     -2.444983    2.692195    0.005774
  C     -1.201284    2.067844   -0.001496
  C     -1.179073    0.667884   -0.007466
  C     -2.342271   -0.065856   -0.007412
  C     -3.598055    0.558257    0.001652
  C      1.179251    0.667977    0.000126
  C      1.201353    2.067941   -0.005643
  C      2.445018    2.692375   -0.011503
  H      2.493039    3.773218   -0.005578
  C      3.616969    1.952486   -0.014212
  C      3.598272    0.558521   -0.005849
  C      2.342496   -0.065669    0.001569
  H     -2.493083    3.773036   -0.000066
  H     -2.255435   -1.144539    0.008968
  H      4.560733    2.481542    0.002652
  N      0.000009    2.769742   -0.004108
  C     -0.000044    4.199497   -0.000312
  C      0.001775    4.890818   -1.204080
  C     -0.001930    4.884000    1.207377
  C      0.001776    6.277619   -1.196838
  C     -0.002086    6.270783    1.208077
  H     -0.003319    4.325114    2.135186
  C     -0.000195    6.967253    0.007579
  H     -0.003588    6.807753    2.148079
  H     -0.000258    8.049872    0.010642
  H      2.255718   -1.144363   -0.014771
  H     -4.560716    2.481215   -0.006004
  C     -4.834654   -0.233440   -0.005498
  C     -4.869120   -1.530952   -0.529412
  C     -6.032429    0.275873    0.509717
  C     -6.033468   -2.273974   -0.540430
  H     -3.970005   -1.963388   -0.950840
  C     -7.195685   -0.469153    0.501814
  H     -6.051306    1.270622    0.937513
  C     -7.229003   -1.764530   -0.024544
  H     -6.010720   -3.277948   -0.946338
  H     -8.102323   -0.030705    0.900911
  C     -8.467750   -2.558484   -0.036717
  C     -8.695379   -3.522971   -1.024631
  C     -9.455683   -2.375528    0.936925
  C     -9.860272   -4.271718   -1.038720
  H     -7.958627   -3.672623   -1.804243
  C    -10.620037   -3.125784    0.923529
  H     -9.299101   -1.650844    1.726671
  C    -10.829540   -4.078093   -0.064372
  H    -10.014982   -5.005971   -1.819777
  H    -11.365155   -2.970702    1.694159
  H    -11.740028   -4.663873   -0.074568
  C      4.834938   -0.233068    0.003159
  C      4.868297   -1.531104    0.525852
  C      6.033853    0.276760   -0.508933
  C      6.032528   -2.274255    0.538459
  H      3.968293   -1.963903    0.944982
  C      7.197024   -0.468394   -0.499418
  H      6.053705    1.272004   -0.935571
  C      7.229144   -1.764378    0.025523
  H      6.008839   -3.278704    0.943159
  H      8.104569   -0.029596   -0.896074
  C      8.467738   -2.558542    0.039175
  C      8.693657   -3.523655    1.026873
  C      9.457146   -2.375299   -0.932887
  C      9.858297   -4.272772    1.042234
  H      7.955762   -3.673582    1.805356
  C     10.621263   -3.125912   -0.918215
  H      9.301986   -1.650169   -1.722500
  C     10.829034   -4.078888    0.069406
  H     10.011632   -5.007531    1.823086
  H     11.367546   -2.970557   -1.687664
  H     11.739315   -4.664971    0.080527
  O      0.000120   -0.035390   -0.004562
  H      0.003217    6.819937   -2.133763
  H      0.003219    4.337237   -2.135058

----------------------------
CARTESIAN COORDINATES (A.U.)
----------------------------
  NO LB      ZA    FRAG     MASS         X           Y           Z
   0 C     6.0000    0    12.011   -6.834913    3.689174    0.018514
   1 C     6.0000    0    12.011   -4.620348    5.087511    0.010911
   2 C     6.0000    0    12.011   -2.270098    3.907659   -0.002827
   3 C     6.0000    0    12.011   -2.228125    1.262118   -0.014109
   4 C     6.0000    0    12.011   -4.426251   -0.124450   -0.014007
   5 C     6.0000    0    12.011   -6.799339    1.054953    0.003122
   6 C     6.0000    0    12.011    2.228461    1.262294    0.000238
   7 C     6.0000    0    12.011    2.270228    3.907842   -0.010664
   8 C     6.0000    0    12.011    4.620414    5.087851   -0.021738
   9 H     1.0000    0     1.008    4.711161    7.130349   -0.010541
  10 C     6.0000    0    12.011    6.835081    3.689664   -0.026857
  11 C     6.0000    0    12.011    6.799749    1.055452   -0.011053
  12 C     6.0000    0    12.011    4.426676   -0.124096    0.002965
  13 H     1.0000    0     1.008   -4.711244    7.130005   -0.000125
  14 H     1.0000    0     1.008   -4.262154   -2.162865    0.016947
  15 H     1.0000    0     1.008    8.618536    4.689435    0.005012
  16 N     7.0000    0    14.007    0.000017    5.234054   -0.007763
  17 C     6.0000    0    12.011   -0.000083    7.935899   -0.000590
  18 C     6.0000    0    12.011    0.003354    9.242307   -2.275381
  19 C     6.0000    0    12.011   -0.003647    9.229422    2.281612
  20 C     6.0000    0    12.011    0.003356   11.862981   -2.261696
  21 C     6.0000    0    12.011   -0.003942   11.850063    2.282935
  22 H     1.0000    0     1.008   -0.006272    8.173281    4.034917
  23 C     6.0000    0    12.011   -0.000368   13.166200    0.014322
  24 H     1.0000    0     1.008   -0.006780   12.864789    4.059281
  25 H     1.0000    0     1.008   -0.000488   15.212053    0.020110
  26 H     1.0000    0     1.008    4.262689   -2.162533   -0.027913
  27 H     1.0000    0     1.008   -8.618504    4.688817   -0.011346
  28 C     6.0000    0    12.011   -9.136172   -0.441138   -0.010390
  29 C     6.0000    0    12.011   -9.201303   -2.893080   -1.000444
  30 C     6.0000    0    12.011  -11.399639    0.521324    0.963226
  31 C     6.0000    0    12.011  -11.401602   -4.297188   -1.021265
  32 H     1.0000    0     1.008   -7.502222   -3.710266   -1.796827
  33 C     6.0000    0    12.011  -13.597874   -0.886571    0.948291
  34 H     1.0000    0     1.008  -11.435311    2.401128    1.771643
  35 C     6.0000    0    12.011  -13.660836   -3.334478   -0.046381
  36 H     1.0000    0     1.008  -11.358615   -6.194424   -1.788320
  37 H     1.0000    0     1.008  -15.311172   -0.058024    1.702475
  38 C     6.0000    0    12.011  -16.001728   -4.834834   -0.069385
  39 C     6.0000    0    12.011  -16.431885   -6.657450   -1.936272
  40 C     6.0000    0    12.011  -17.868651   -4.489097    1.770532
  41 C     6.0000    0    12.011  -18.633214   -8.072377   -1.962896
  42 H     1.0000    0     1.008  -15.039625   -6.940252   -3.409525
  43 C     6.0000    0    12.011  -20.068961   -5.906876    1.745217
  44 H     1.0000    0     1.008  -17.572754   -3.119643    3.262935
  45 C     6.0000    0    12.011  -20.464865   -7.706479   -0.121645
  46 H     1.0000    0     1.008  -18.925573   -9.459914   -3.438880
  47 H     1.0000    0     1.008  -21.477030   -5.613813    3.201497
  48 H     1.0000    0     1.008  -22.185438   -8.813443   -0.140913
  49 C     6.0000    0    12.011    9.136709   -0.440435    0.005970
  50 C     6.0000    0    12.011    9.199748   -2.893367    0.993716
  51 C     6.0000    0    12.011   11.402330    0.523001   -0.961744
  52 C     6.0000    0    12.011   11.399826   -4.297719    1.017540
  53 H     1.0000    0     1.008    7.498987   -3.711239    1.785757
  54 C     6.0000    0    12.011   13.600404   -0.885136   -0.943763
  55 H     1.0000    0     1.008   11.439845    2.403739   -1.767973
  56 C     6.0000    0    12.011   13.661102   -3.334191    0.048231
  57 H     1.0000    0     1.008   11.355060   -6.195853    1.782312
  58 H     1.0000    0     1.008   15.315416   -0.055928   -1.693334
  59 C     6.0000    0    12.011   16.001706   -4.834944    0.074030
  60 C     6.0000    0    12.011   16.428631   -6.658743    1.940509
  61 C     6.0000    0    12.011   17.871416   -4.488665   -1.762901
  62 C     6.0000    0    12.011   18.629481   -8.074369    1.969537
  63 H     1.0000    0     1.008   15.034211   -6.942064    3.411628
  64 C     6.0000    0    12.011   20.071278   -5.907118   -1.735175
  65 H     1.0000    0     1.008   17.578206   -3.118367   -3.255053
  66 C     6.0000    0    12.011   20.463909   -7.707981    0.131158
  67 H     1.0000    0     1.008   18.919243   -9.462862    3.445133
  68 H     1.0000    0     1.008   21.481549   -5.613539   -3.189223
  69 H     1.0000    0     1.008   22.184090   -8.815518    0.152174
  70 O     8.0000    0    15.999    0.000227   -0.066877   -0.008621
  71 H     1.0000    0     1.008    0.006079   12.887813   -4.032228
  72 H     1.0000    0     1.008    0.006083    8.196190   -4.034675

--------------------------------
INTERNAL COORDINATES (ANGSTROEM)
--------------------------------
 C      0   0   0     0.000000000000     0.00000000     0.00000000
 C      1   0   0     1.385969481685     0.00000000     0.00000000
 C      2   1   0     1.391637246808   121.07378666     0.00000000
 C      3   2   1     1.400148910302   117.56687686     0.13313056
 C      4   3   2     1.375283235454   121.33426668     0.05874302
 C      1   2   3     1.394120899546   121.49384538   359.75477411
 C      4   3   2     2.358336222019    90.90588831   180.39845072
 C      7   4   3     1.400150342306    90.90597176   359.51372893
 C      8   7   4     1.391637449978   117.56593913   180.33713019
 H      9   8   7     1.081925465416   119.20250738   180.63468050
 C      9   8   7     1.385969775068   121.07383861     0.12572121
 C     11   9   8     1.394115468246   121.49554943   359.74249091
 C      7   4   3     1.375273596631   147.75839725   179.93249252
 H      2   1   3     1.081926514548   119.72174309   179.48957906
 H      5   4   3     1.082296544291   117.63765175   181.26508319
 H     11   9   8     1.082069837547   118.45454160   181.29060237
 N      8   7   4     1.391313913595   119.38753599     0.39370971
 C     17   8   7     1.429760040164   120.29479317   179.55421170
 C     18  17   8     1.388159008048   119.71649392    89.92799737
 C     18  17   8     1.388186095135   119.69611451   269.92725668
 C     19  18  17     1.386819909060   119.56941632   180.00274816
 C     20  18  17     1.386783185442   119.57292219   180.00518715
 H     20  18  17     1.083136663029   119.39246167     0.00000000
 C     21  19  18     1.387883009726   120.09407618     0.00000000
 H     22  20  18     1.082563068328   119.76578500   179.99795334
 H     24  21  19     1.082623334821   119.95698449   180.00415576
 H     13   7   4     1.082302251000   117.63534001     0.75751245
 H      1   2   3     1.082083347363   118.45520569   181.29105758
 C      6   1   2     1.468336592580   121.85541682   180.52060900
 C     29   6   1     1.399718248326   121.49129871   154.37369470
 C     29   6   1     1.399825410120   121.51015783   334.45426948
 C     30  29   6     1.381270919810   121.49267725   180.23109811
 H     30  29   6     1.083055971086   119.69094865   359.30393102
 C     31  29   6     1.381408961756   121.47998311   179.95354934
 H     31  29   6     1.083001076521   119.63625328   359.12527851
 C     32  30  29     1.398204380753   121.45497569   359.78777197
 H     32  30  29     1.083163223454   118.93944078   180.65110432
 H     34  31  29     1.083285524300   118.97130890   180.68530046
 C     36  32  30     1.471395686433   121.34556257   180.04019893
 C     39  36  32     1.399294181438   120.97854594   330.97937662
 C     39  36  32     1.399093726163   121.20869596   150.96266373
 C     40  39  36     1.384845215675   121.11027646   180.00218821
 H     40  39  36     1.083048522067   119.52394887   358.67060654
 C     41  39  36     1.385201702160   121.06345898   180.07887812
 H     41  39  36     1.083228307928   119.52328717   358.74390878
 C     42  40  39     1.387921151058   120.32277092   359.92391796
 H     42  40  39     1.083103268095   119.60510630   179.48225068
 H     44  41  39     1.083107500458   119.59273310   179.44938180
 H     46  42  40     1.082695970695   120.34411882   180.05223019
 C     12  11   9     1.468345015499   121.85599791   180.54219528
 C     50  12  11     1.399720776593   121.48679763   154.45477367
 C     50  12  11     1.399842842348   121.51632812   334.53513855
 C     51  50  12     1.381255286546   121.49582836   180.21800715
 H     51  50  12     1.083047612673   119.68886792   359.29656575
 C     52  50  12     1.381416589658   121.47846472   179.96519269
 H     52  50  12     1.083016483939   119.63651905   359.13468755
 C     53  51  50     1.398201611600   121.45365426   359.79181436
 H     53  51  50     1.083171755689   118.94039822   180.66288912
 H     55  52  50     1.083290170806   118.97278711   180.68532065
 C     57  53  51     1.471393194505   121.34511769   180.05023976
 C     60  57  53     1.399296193282   120.97871839   330.93855273
 C     60  57  53     1.399074951301   121.20892704   150.91342864
 C     61  60  57     1.384846045454   121.11124177   179.99099932
 H     61  60  57     1.083052592279   119.52713457   358.66067486
 C     62  60  57     1.385208840949   121.06315773   180.08918638
 H     62  60  57     1.083225199240   119.52766560   358.75001303
 C     63  61  60     1.387917737551   120.32227888   359.92465767
 H     63  61  60     1.083103068138   119.60511744   179.48436038
 H     65  62  60     1.083109069168   119.59046848   179.44997086
 H     67  63  61     1.082694997906   120.34607526   180.05553866
 O      7   4   3     1.372988357268    30.81419571   179.82541826
 H     21  19  18     1.082561474111   119.76421078   179.99846437
 H     19  18  17     1.083131591812   119.39472009     0.00000000

---------------------------
INTERNAL COORDINATES (A.U.)
---------------------------
 C      0   0   0     0.000000000000     0.00000000     0.00000000
 C      1   0   0     2.619102750357     0.00000000     0.00000000
 C      2   1   0     2.629813274230   121.07378666     0.00000000
 C      3   2   1     2.645897987180   117.56687686     0.13313056
 C      4   3   2     2.598908671581   121.33426668     0.05874302
 C      1   2   3     2.634506697717   121.49384538   359.75477411
 C      4   3   2     4.456609591323    90.90588831   180.39845072
 C      7   4   3     2.645900693275    90.90597176   359.51372893
 C      8   7   4     2.629813658167   117.56593913   180.33713019
 H      9   8   7     2.044542826951   119.20250738   180.63468050
 C      9   8   7     2.619103304772   121.07383861     0.12572121
 C     11   9   8     2.634496434048   121.49554943   359.74249091
 C      7   4   3     2.598890456845   147.75839725   179.93249252
 H      2   1   3     2.044544809523   119.72174309   179.48957906
 H      5   4   3     2.045244064400   117.63765175   181.26508319
 H     11   9   8     2.044815650740   118.45454160   181.29060237
 N      8   7   4     2.629202263008   119.38753599     0.39370971
 C     17   8   7     2.701854913134   120.29479317   179.55421170
 C     18  17   8     2.623240355547   119.71649392    89.92799737
 C     18  17   8     2.623291542723   119.69611451   269.92725668
 C     19  18  17     2.620709825194   119.56941632   180.00274816
 C     20  18  17     2.620640427613   119.57292219   180.00518715
 H     20  18  17     2.046831658735   119.39246167     0.00000000
 C     21  19  18     2.622718794304   120.09407618     0.00000000
 H     22  20  18     2.045747721838   119.76578500   179.99795334
 H     24  21  19     2.045861609004   119.95698449   180.00415576
 H     13   7   4     2.045254848517   117.63534001     0.75751245
 H      1   2   3     2.044841180593   118.45520569   181.29105758
 C      6   1   2     2.774754032392   121.85541682   180.52060900
 C     29   6   1     2.645084153988   121.49129871   154.37369470
 C     29   6   1     2.645286660432   121.51015783   334.45426948
 C     30  29   6     2.610223755190   121.49267725   180.23109811
 H     30  29   6     2.046679173061   119.69094865   359.30393102
 C     31  29   6     2.610484616664   121.47998311   179.95354934
 H     31  29   6     2.046575437367   119.63625328   359.12527851
 C     32  30  29     2.642223358872   121.45497569   359.78777197
 H     32  30  29     2.046881850664   118.93944078   180.65110432
 H     34  31  29     2.047112965767   118.97130890   180.68530046
 C     36  32  30     2.780534881992   121.34556257   180.04019893
 C     39  36  32     2.644282783707   120.97854594   330.97937662
 C     39  36  32     2.643903978136   121.20869596   150.96266373
 C     40  39  36     2.616978195498   121.11027646   180.00218821
 H     40  39  36     2.046665096455   119.52394887   358.67060654
 C     41  39  36     2.617651857325   121.06345898   180.07887812
 H     41  39  36     2.047004842494   119.52328717   358.74390878
 C     42  40  39     2.622790870976   120.32277092   359.92391796
 H     42  40  39     2.046768551455   119.60510630   179.48225068
 H     44  41  39     2.046776549461   119.59273310   179.44938180
 H     46  42  40     2.045998870914   120.34411882   180.05223019
 C     12  11   9     2.774769949402   121.85599791   180.54219528
 C     50  12  11     2.645088931720   121.48679763   154.45477367
 C     50  12  11     2.645319602568   121.51632812   334.53513855
 C     51  50  12     2.610194212603   121.49582836   180.21800715
 H     51  50  12     2.046663377949   119.68886792   359.29656575
 C     52  50  12     2.610499031309   121.47846472   179.96519269
 H     52  50  12     2.046604553167   119.63651905   359.13468755
 C     53  51  50     2.642218125931   121.45365426   359.79181436
 H     53  51  50     2.046897974251   118.94039822   180.66288912
 H     55  52  50     2.047121746392   118.97278711   180.68532065
 C     57  53  51     2.780530172930   121.34511769   180.05023976
 C     60  57  53     2.644286585542   120.97871839   330.93855273
 C     60  57  53     2.643868498787   121.20892704   150.91342864
 C     61  60  57     2.616979763552   121.11124177   179.99099932
 H     61  60  57     2.046672788041   119.52713457   358.66067486
 C     62  60  57     2.617665347679   121.06315773   180.08918638
 H     62  60  57     2.046998967926   119.52766560   358.75001303
 C     63  61  60     2.622784420383   120.32227888   359.92465767
 H     63  61  60     2.046768173591   119.60511744   179.48436038
 H     65  62  60     2.046779513895   119.59046848   179.44997086
 H     67  63  61     2.045997032609   120.34607526   180.05553866
 O      7   4   3     2.594571980299    30.81419571   179.82541826
 H     21  19  18     2.045744709204   119.76421078   179.99846437
 H     19  18  17     2.046822075523   119.39472009     0.00000000

---------------------
BASIS SET INFORMATION
---------------------
There are 4 groups of distinct atoms

 Group   1 Type C   : 11s6p2d1f contracted to 5s3p2d1f pattern {62111/411/11/1}
 Group   2 Type H   : 5s1p contracted to 3s1p pattern {311/1}
 Group   3 Type N   : 11s6p2d1f contracted to 5s3p2d1f pattern {62111/411/11/1}
 Group   4 Type O   : 11s6p2d1f contracted to 5s3p2d1f pattern {62111/411/11/1}

Atom   0C    basis set group =>   1
Atom   1C    basis set group =>   1
Atom   2C    basis set group =>   1
Atom   3C    basis set group =>   1
Atom   4C    basis set group =>   1
Atom   5C    basis set group =>   1
Atom   6C    basis set group =>   1
Atom   7C    basis set group =>   1
Atom   8C    basis set group =>   1
Atom   9H    basis set group =>   2
Atom  10C    basis set group =>   1
Atom  11C    basis set group =>   1
Atom  12C    basis set group =>   1
Atom  13H    basis set group =>   2
Atom  14H    basis set group =>   2
Atom  15H    basis set group =>   2
Atom  16N    basis set group =>   3
Atom  17C    basis set group =>   1
Atom  18C    basis set group =>   1
Atom  19C    basis set group =>   1
Atom  20C    basis set group =>   1
Atom  21C    basis set group =>   1
Atom  22H    basis set group =>   2
Atom  23C    basis set group =>   1
Atom  24H    basis set group =>   2
Atom  25H    basis set group =>   2
Atom  26H    basis set group =>   2
Atom  27H    basis set group =>   2
Atom  28C    basis set group =>   1
Atom  29C    basis set group =>   1
Atom  30C    basis set group =>   1
Atom  31C    basis set group =>   1
Atom  32H    basis set group =>   2
Atom  33C    basis set group =>   1
Atom  34H    basis set group =>   2
Atom  35C    basis set group =>   1
Atom  36H    basis set group =>   2
Atom  37H    basis set group =>   2
Atom  38C    basis set group =>   1
Atom  39C    basis set group =>   1
Atom  40C    basis set group =>   1
Atom  41C    basis set group =>   1
Atom  42H    basis set group =>   2
Atom  43C    basis set group =>   1
Atom  44H    basis set group =>   2
Atom  45C    basis set group =>   1
Atom  46H    basis set group =>   2
Atom  47H    basis set group =>   2
Atom  48H    basis set group =>   2
Atom  49C    basis set group =>   1
Atom  50C    basis set group =>   1
Atom  51C    basis set group =>   1
Atom  52C    basis set group =>   1
Atom  53H    basis set group =>   2
Atom  54C    basis set group =>   1
Atom  55H    basis set group =>   2
Atom  56C    basis set group =>   1
Atom  57H    basis set group =>   2
Atom  58H    basis set group =>   2
Atom  59C    basis set group =>   1
Atom  60C    basis set group =>   1
Atom  61C    basis set group =>   1
Atom  62C    basis set group =>   1
Atom  63H    basis set group =>   2
Atom  64C    basis set group =>   1
Atom  65H    basis set group =>   2
Atom  66C    basis set group =>   1
Atom  67H    basis set group =>   2
Atom  68H    basis set group =>   2
Atom  69H    basis set group =>   2
Atom  70O    basis set group =>   4
Atom  71H    basis set group =>   2
Atom  72H    basis set group =>   2
---------------------------------
AUXILIARY/J BASIS SET INFORMATION
---------------------------------
There are 4 groups of distinct atoms

 Group   1 Type C   : 12s5p4d2f1g contracted to 6s4p3d1f1g pattern {711111/2111/211/2/1}
 Group   2 Type H   : 5s2p1d contracted to 3s1p1d pattern {311/2/1}
 Group   3 Type N   : 12s5p4d2f1g contracted to 6s4p3d1f1g pattern {711111/2111/211/2/1}
 Group   4 Type O   : 12s5p4d2f1g contracted to 6s4p3d1f1g pattern {711111/2111/211/2/1}

Atom   0C    basis set group =>   1
Atom   1C    basis set group =>   1
Atom   2C    basis set group =>   1
Atom   3C    basis set group =>   1
Atom   4C    basis set group =>   1
Atom   5C    basis set group =>   1
Atom   6C    basis set group =>   1
Atom   7C    basis set group =>   1
Atom   8C    basis set group =>   1
Atom   9H    basis set group =>   2
Atom  10C    basis set group =>   1
Atom  11C    basis set group =>   1
Atom  12C    basis set group =>   1
Atom  13H    basis set group =>   2
Atom  14H    basis set group =>   2
Atom  15H    basis set group =>   2
Atom  16N    basis set group =>   3
Atom  17C    basis set group =>   1
Atom  18C    basis set group =>   1
Atom  19C    basis set group =>   1
Atom  20C    basis set group =>   1
Atom  21C    basis set group =>   1
Atom  22H    basis set group =>   2
Atom  23C    basis set group =>   1
Atom  24H    basis set group =>   2
Atom  25H    basis set group =>   2
Atom  26H    basis set group =>   2
Atom  27H    basis set group =>   2
Atom  28C    basis set group =>   1
Atom  29C    basis set group =>   1
Atom  30C    basis set group =>   1
Atom  31C    basis set group =>   1
Atom  32H    basis set group =>   2
Atom  33C    basis set group =>   1
Atom  34H    basis set group =>   2
Atom  35C    basis set group =>   1
Atom  36H    basis set group =>   2
Atom  37H    basis set group =>   2
Atom  38C    basis set group =>   1
Atom  39C    basis set group =>   1
Atom  40C    basis set group =>   1
Atom  41C    basis set group =>   1
Atom  42H    basis set group =>   2
Atom  43C    basis set group =>   1
Atom  44H    basis set group =>   2
Atom  45C    basis set group =>   1
Atom  46H    basis set group =>   2
Atom  47H    basis set group =>   2
Atom  48H    basis set group =>   2
Atom  49C    basis set group =>   1
Atom  50C    basis set group =>   1
Atom  51C    basis set group =>   1
Atom  52C    basis set group =>   1
Atom  53H    basis set group =>   2
Atom  54C    basis set group =>   1
Atom  55H    basis set group =>   2
Atom  56C    basis set group =>   1
Atom  57H    basis set group =>   2
Atom  58H    basis set group =>   2
Atom  59C    basis set group =>   1
Atom  60C    basis set group =>   1
Atom  61C    basis set group =>   1
Atom  62C    basis set group =>   1
Atom  63H    basis set group =>   2
Atom  64C    basis set group =>   1
Atom  65H    basis set group =>   2
Atom  66C    basis set group =>   1
Atom  67H    basis set group =>   2
Atom  68H    basis set group =>   2
Atom  69H    basis set group =>   2
Atom  70O    basis set group =>   4
Atom  71H    basis set group =>   2
Atom  72H    basis set group =>   2
---------------------------------
AUXILIARY/C BASIS SET INFORMATION
---------------------------------
There are 4 groups of distinct atoms

 Group   1 Type C   : 8s6p5d3f1g contracted to 8s6p4d3f1g pattern {11111111/111111/2111/111/1}
 Group   2 Type H   : 4s3p2d contracted to 4s2p1d pattern {1111/21/2}
 Group   3 Type N   : 8s6p5d3f1g contracted to 8s6p4d3f1g pattern {11111111/111111/2111/111/1}
 Group   4 Type O   : 8s6p5d3f1g contracted to 8s6p4d3f1g pattern {11111111/111111/2111/111/1}

Atom   0C    basis set group =>   1
Atom   1C    basis set group =>   1
Atom   2C    basis set group =>   1
Atom   3C    basis set group =>   1
Atom   4C    basis set group =>   1
Atom   5C    basis set group =>   1
Atom   6C    basis set group =>   1
Atom   7C    basis set group =>   1
Atom   8C    basis set group =>   1
Atom   9H    basis set group =>   2
Atom  10C    basis set group =>   1
Atom  11C    basis set group =>   1
Atom  12C    basis set group =>   1
Atom  13H    basis set group =>   2
Atom  14H    basis set group =>   2
Atom  15H    basis set group =>   2
Atom  16N    basis set group =>   3
Atom  17C    basis set group =>   1
Atom  18C    basis set group =>   1
Atom  19C    basis set group =>   1
Atom  20C    basis set group =>   1
Atom  21C    basis set group =>   1
Atom  22H    basis set group =>   2
Atom  23C    basis set group =>   1
Atom  24H    basis set group =>   2
Atom  25H    basis set group =>   2
Atom  26H    basis set group =>   2
Atom  27H    basis set group =>   2
Atom  28C    basis set group =>   1
Atom  29C    basis set group =>   1
Atom  30C    basis set group =>   1
Atom  31C    basis set group =>   1
Atom  32H    basis set group =>   2
Atom  33C    basis set group =>   1
Atom  34H    basis set group =>   2
Atom  35C    basis set group =>   1
Atom  36H    basis set group =>   2
Atom  37H    basis set group =>   2
Atom  38C    basis set group =>   1
Atom  39C    basis set group =>   1
Atom  40C    basis set group =>   1
Atom  41C    basis set group =>   1
Atom  42H    basis set group =>   2
Atom  43C    basis set group =>   1
Atom  44H    basis set group =>   2
Atom  45C    basis set group =>   1
Atom  46H    basis set group =>   2
Atom  47H    basis set group =>   2
Atom  48H    basis set group =>   2
Atom  49C    basis set group =>   1
Atom  50C    basis set group =>   1
Atom  51C    basis set group =>   1
Atom  52C    basis set group =>   1
Atom  53H    basis set group =>   2
Atom  54C    basis set group =>   1
Atom  55H    basis set group =>   2
Atom  56C    basis set group =>   1
Atom  57H    basis set group =>   2
Atom  58H    basis set group =>   2
Atom  59C    basis set group =>   1
Atom  60C    basis set group =>   1
Atom  61C    basis set group =>   1
Atom  62C    basis set group =>   1
Atom  63H    basis set group =>   2
Atom  64C    basis set group =>   1
Atom  65H    basis set group =>   2
Atom  66C    basis set group =>   1
Atom  67H    basis set group =>   2
Atom  68H    basis set group =>   2
Atom  69H    basis set group =>   2
Atom  70O    basis set group =>   4
Atom  71H    basis set group =>   2
Atom  72H    basis set group =>   2


           ************************************************************
           *        Program running with 8 parallel MPI-processes     *
           *              working on a common directory               *
           ************************************************************
------------------------------------------------------------------------------
                           ORCA GTO INTEGRAL CALCULATION
                           -- RI-GTO INTEGRALS CHOSEN --
------------------------------------------------------------------------------
------------------------------------------------------------------------------
                   ___                                                        
                  /   \      - P O W E R E D   B Y -                         
                 /     \                                                     
                 |  |  |   _    _      __       _____    __    __             
                 |  |  |  | |  | |    /  \     |  _  \  |  |  /  |          
                  \  \/   | |  | |   /    \    | | | |  |  | /  /          
                 / \  \   | |__| |  /  /\  \   | |_| |  |  |/  /          
                |  |  |   |  __  | /  /__\  \  |    /   |      \           
                |  |  |   | |  | | |   __   |  |    \   |  |\   \          
                \     /   | |  | | |  |  |  |  | |\  \  |  | \   \       
                 \___/    |_|  |_| |__|  |__|  |_| \__\ |__|  \__/        
                                                                              
                      - O R C A' S   B I G   F R I E N D -                    
                                      &                                       
                       - I N T E G R A L  F E E D E R -                       
                                                                              
 v1 FN, 2020, v2 2021                                                         
------------------------------------------------------------------------------


Reading SHARK input file POZ_5_M06L_def2TZVP_coords.SHARKINP.tmp ... ok
----------------------
SHARK INTEGRAL PACKAGE
----------------------

Number of atoms                             ...     73
Number of basis functions                   ...   1538
Number of shells                            ...    600
Maximum angular momentum                    ...      3
Integral batch strategy                     ... SHARK/LIBINT Hybrid
RI-J (if used) integral strategy            ... SPLIT-RIJ (Revised 2003 algorithm where possible)
Printlevel                                  ...      1
Contraction scheme used                     ... SEGMENTED contraction
Coulomb Range Separation                    ... NOT USED
Exchange Range Separation                   ... Long Range
   Mu parameter                             ...  0.300000
   Scaling (regular/separated)              ...  0.530000  0.470000
Finite Nucleus Model                        ... NOT USED
Auxiliary Coulomb fitting basis             ... AVAILABLE
   # of basis functions in Aux-J            ...   2475
   # of shells in Aux-J                     ...    805
   Maximum angular momentum in Aux-J        ...      4
Auxiliary J/K fitting basis                 ... NOT available
Auxiliary Correlation fitting basis         ... AVAILABLE
   # of basis functions in Aux-C            ...   3779
   # of shells in Aux-C                     ...   1171
   Maximum angular momentum in Aux-C        ...      4
Auxiliary 'external' fitting basis          ... NOT available
Integral threshold                          ...     2.500000e-11
Primitive cut-off                           ...     2.500000e-12
Primitive pair pre-selection threshold      ...     2.500000e-12

Calculating pre-screening integrals         ... done (  0.1 sec) Dimension = 600
Organizing shell pair data                  ... done (  0.5 sec)
Shell pair information
Total number of shell pairs                 ...    180300
Shell pairs after pre-screening             ...     73145
Total number of primitive shell pairs       ...    557040
Primitive shell pairs kept                  ...    146018
          la=0 lb=0:  18276 shell pairs
          la=1 lb=0:  21366 shell pairs
          la=1 lb=1:   6264 shell pairs
          la=2 lb=0:  10300 shell pairs
          la=2 lb=1:   6093 shell pairs
          la=2 lb=2:   1476 shell pairs
          la=3 lb=0:   4824 shell pairs
          la=3 lb=1:   2881 shell pairs
          la=3 lb=2:   1330 shell pairs
          la=3 lb=3:    335 shell pairs

Calculating one electron integrals          ... done (  0.1 sec)
Calculating RI/J V-Matrix + Cholesky decomp.... done (  0.2 sec)
Calculating RI/C V-Matrix + Cholesky decomp.... done (  0.4 sec)
Calculating Nuclear repulsion               ... done (  0.0 sec) ENN=   4215.978862362290 Eh

SHARK setup successfully completed in   2.0 seconds

Maximum memory used throughout the entire GTOINT-calculation: 148.3 MB


           ************************************************************
           *        Program running with 8 parallel MPI-processes     *
           *              working on a common directory               *
           ************************************************************
-------------------------------------------------------------------------------
                                 ORCA SCF
-------------------------------------------------------------------------------

------------
SCF SETTINGS
------------
Hamiltonian:
 Density Functional     Method          .... DFT(GTOs)
 Exchange Functional    Exchange        .... WB88
 Correlation Functional Correlation     .... LYP
 LDA part of GGA corr.  LDAOpt          .... VWN-3
 Gradients option       PostSCFGGA      .... off
 Hybrid DFT is turned on
   Fraction HF Exchange ScalHFX         ....  0.530000
   Scaling of DF-GGA-X  ScalDFX         ....  0.000000
   Scaling of DF-GGA-C  ScalDFC         ....  0.730000
   Scaling of DF-LDA-C  ScalLDAC        ....  0.730000
   Perturbative correction              ....  0.270000
   Density functional embedding theory  .... OFF
 Long-range corrected/Screened/Range-Separated Hybrid DFT is turned on
   Amount of maximum screened exact exchange              ....  0.470000
   Range separation parameter mu (erf(mu*r12)/r12)        ....  0.300000
 RI-approximation to the Coulomb term is turned on
   Number of AuxJ basis functions       .... 2475
   RIJ-COSX (HFX calculated with COS-X)).... on


General Settings:
 Integral files         IntName         .... POZ_5_M06L_def2TZVP_coords
 Hartree-Fock type      HFTyp           .... RHF
 Total Charge           Charge          ....    0
 Multiplicity           Mult            ....    1
 Number of Electrons    NEL             ....  296
 Basis Dimension        Dim             .... 1538
 Nuclear Repulsion      ENuc            ....   4215.9788623623 Eh

Convergence Acceleration:
 DIIS                   CNVDIIS         .... on
   Start iteration      DIISMaxIt       ....    12
   Startup error        DIISStart       ....  0.200000
   # of expansion vecs  DIISMaxEq       ....     5
   Bias factor          DIISBfac        ....   1.050
   Max. coefficient     DIISMaxC        ....  10.000
 Trust-Rad. Augm. Hess. CNVTRAH         .... auto
   Auto Start mean grad. ratio tolernc. ....  1.125000
   Auto Start start iteration           ....    20
   Auto Start num. interpolation iter.  ....    10
   Max. Number of Micro iterations      ....    16
   Max. Number of Macro iterations      .... Maxiter - #DIIS iter
   Number of Davidson start vectors     ....     2
   Converg. threshold I  (grad. norm)   ....   1.000e-05
   Converg. threshold II (energy diff.) ....   1.000e-08
   Grad. Scal. Fac. for Micro threshold ....   0.100
   Minimum threshold for Micro iter.    ....   0.010
   NR start threshold (gradient norm)   ....   0.001
   Initial trust radius                 ....   0.400
   Minimum AH scaling param. (alpha)    ....   1.000
   Maximum AH scaling param. (alpha)    .... 1000.000
   Orbital update algorithm             .... Taylor
   White noise on init. David. guess    .... on
   Maximum white noise                  ....   0.010
   Quad. conv. algorithm                .... NR
 SOSCF                  CNVSOSCF        .... on
   Start iteration      SOSCFMaxIt      ....   150
   Startup grad/error   SOSCFStart      ....  0.003300
 Level Shifting         CNVShift        .... on
   Level shift para.    LevelShift      ....    0.2500
   Turn off err/grad.   ShiftErr        ....    0.0010
 Zerner damping         CNVZerner       .... off
 Static damping         CNVDamp         .... on
   Fraction old density DampFac         ....    0.7000
   Max. Damping (<1)    DampMax         ....    0.9800
   Min. Damping (>=0)   DampMin         ....    0.0000
   Turn off err/grad.   DampErr         ....    0.1000
 Fernandez-Rico         CNVRico         .... off

SCF Procedure:
 Maximum # iterations   MaxIter         ....   125
 SCF integral mode      SCFMode         .... Direct
   Integral package                     .... SHARK and LIBINT hybrid scheme
 Reset frequency        DirectResetFreq ....    20
 Integral Threshold     Thresh          ....  2.500e-11 Eh
 Primitive CutOff       TCut            ....  2.500e-12 Eh

Convergence Tolerance:
 Convergence Check Mode ConvCheckMode   .... Total+1el-Energy
 Convergence forced     ConvForced      .... 1
 Energy Change          TolE            ....  1.000e-08 Eh
 1-El. energy change                    ....  1.000e-05 Eh
 Orbital Gradient       TolG            ....  1.000e-05
 Orbital Rotation angle TolX            ....  1.000e-05
 DIIS Error             TolErr          ....  5.000e-07


Diagonalization of the overlap matrix:
Smallest eigenvalue                        ... 4.272e-06
Time for diagonalization                   ...    0.335 sec
Threshold for overlap eigenvalues          ... 1.000e-08
Number of eigenvalues below threshold      ... 0
Time for construction of square roots      ...    0.164 sec
Total time needed                          ...    0.506 sec

Time for model grid setup =    0.658 sec

------------------------------
INITIAL GUESS: MODEL POTENTIAL
------------------------------
Loading Hartree-Fock densities                     ... done
Calculating cut-offs                               ... done
Initializing the effective Hamiltonian             ... done
Setting up the integral package (SHARK)            ... done
Starting the Coulomb interaction                   ... done (   1.3 sec)
Reading the grid                                   ... done
Mapping shells                                     ... done
Starting the XC term evaluation                    ... done (   0.4 sec)
  promolecular density results
     # of electrons  =    295.986807880
     EX              =   -238.287468673
     EC              =     -3.360129185
     EX+EC           =   -241.647597858
Transforming the Hamiltonian                       ... done (   0.1 sec)
Diagonalizing the Hamiltonian                      ... done (   0.2 sec)
Back transforming the eigenvectors                 ... done (   0.1 sec)
Now organizing SCF variables                       ... done
                      ------------------
                      INITIAL GUESS DONE (   2.8 sec)
                      ------------------
-------------------
DFT GRID GENERATION
-------------------

General Integration Accuracy     IntAcc      ... 4.388
Radial Grid Type                 RadialGrid  ... OptM3 with GC (2021)
Angular Grid (max. ang.)         AngularGrid ... 4 (Lebedev-302)
Angular grid pruning method      GridPruning ... 4 (adaptive)
Weight generation scheme         WeightScheme... Becke
Basis function cutoff            BFCut       ... 1.0000e-11
Integration weight cutoff        WCut        ... 1.0000e-14
Angular grids for H and He will be reduced by one unit
Partially contracted basis set               ... off
Rotationally invariant grid construction     ... off

Total number of grid points                  ...   354206
Total number of batches                      ...     5581
Average number of points per batch           ...       63
Average number of grid points per atom       ...     4852
Time for grid setup =    2.584 sec

--------------------
COSX GRID GENERATION
--------------------

GRIDX 1
-------
General Integration Accuracy     IntAcc      ... 3.816
Radial Grid Type                 RadialGrid  ... OptM3 with GC (2021)
Angular Grid (max. ang.)         AngularGrid ... 1 (Lebedev-50)
Angular grid pruning method      GridPruning ... 4 (adaptive)
Weight generation scheme         WeightScheme... Becke
Basis function cutoff            BFCut       ... 1.0000e-11
Integration weight cutoff        WCut        ... 1.0000e-14
Angular grids for H and He will be reduced by one unit
Partially contracted basis set               ... on
Rotationally invariant grid construction     ... off

Total number of grid points                  ...    44949
Total number of batches                      ...      729
Average number of points per batch           ...       61
Average number of grid points per atom       ...      616
UseSFitting                                  ... on

GRIDX 2
-------
General Integration Accuracy     IntAcc      ... 4.020
Radial Grid Type                 RadialGrid  ... OptM3 with GC (2021)
Angular Grid (max. ang.)         AngularGrid ... 2 (Lebedev-110)
Angular grid pruning method      GridPruning ... 4 (adaptive)
Weight generation scheme         WeightScheme... Becke
Basis function cutoff            BFCut       ... 1.0000e-11
Integration weight cutoff        WCut        ... 1.0000e-14
Angular grids for H and He will be reduced by one unit
Partially contracted basis set               ... on
Rotationally invariant grid construction     ... off

Total number of grid points                  ...    97822
Total number of batches                      ...     1566
Average number of points per batch           ...       62
Average number of grid points per atom       ...     1340
UseSFitting                                  ... on

GRIDX 3
-------
General Integration Accuracy     IntAcc      ... 4.338
Radial Grid Type                 RadialGrid  ... OptM3 with GC (2021)
Angular Grid (max. ang.)         AngularGrid ... 3 (Lebedev-194)
Angular grid pruning method      GridPruning ... 4 (adaptive)
Weight generation scheme         WeightScheme... Becke
Basis function cutoff            BFCut       ... 1.0000e-11
Integration weight cutoff        WCut        ... 1.0000e-14
Angular grids for H and He will be reduced by one unit
Partially contracted basis set               ... on
Rotationally invariant grid construction     ... off

Total number of grid points                  ...   214258
Total number of batches                      ...     3384
Average number of points per batch           ...       63
Average number of grid points per atom       ...     2935
UseSFitting                                  ... on

Time for X-Grid setup             =    3.516 sec


--------------------
CPCM SOLVATION MODEL
--------------------
CPCM parameters:
  Epsilon                                         ...      37.7810
  Refrac                                          ...       1.4380
  Rsolv                                           ...       1.3000
  Surface type                                    ... GAUSSIAN VDW
  Epsilon function type                           ...         CPCM
Solvent:                                     ... N,N-DIMETHYLACETAMIDE
SMD-CDS solvent descriptors:
  Soln                                       ...    1.4380
  Soln25                                     ...    1.4358
  Sola                                       ...    0.0000
  Solb                                       ...    0.7800
  Solg                                       ...   47.6200
  Solc                                       ...    0.0000
  Solh                                       ...    0.0000
Radii:
 Radius for C  used is    3.4960 Bohr (=   1.8500 Ang.)
 Radius for H  used is    2.2677 Bohr (=   1.2000 Ang.)
 Radius for N  used is    3.5716 Bohr (=   1.8900 Ang.)
 Radius for O  used is    4.3350 Bohr (=   2.2940 Ang.)
Calculating surface                               ...        done! (  0.0s)
GEPOL surface points                              ...         3975
GEPOL Volume                                      ...    3911.1986
GEPOL Surface-area                                ...    2061.3963
Calculating surface distance matrix               ...        done! (  0.1s)
Performing Cholesky decomposition & store         ...        done! (  0.4s)
Overall time for CPCM initialization              ...                 0.5s
--------------
SCF ITERATIONS
--------------
ITER       Energy         Delta-E        Max-DP      RMS-DP      [F,P]     Damp
               ***  Starting incremental Fock matrix formation  ***
  0  -1741.8778152471   0.000000000000 0.04006411  0.00051804  0.1510293 0.7000
  1  -1742.2792011100  -0.401385862880 0.04637519  0.00043950  0.0988030 0.7000
                               ***Turning on DIIS***
  2  -1742.5203171145  -0.241116004500 0.11079890  0.00103437  0.0606493 0.0000
  3  -1742.9716476439  -0.451330529356 0.01910949  0.00022677  0.0283923 0.0000
  4  -1743.0034918427  -0.031844198803 0.00870389  0.00009336  0.0064220 0.0000
                      *** Initiating the SOSCF procedure ***
                           *** Shutting down DIIS ***
                      *** Re-Reading the Fockian *** 
                      *** Removing any level shift *** 
ITER      Energy       Delta-E        Grad      Rot      Max-DP    RMS-DP
  5  -1743.00488888  -0.0013970416  0.003135  0.003135  0.003916  0.000038
               *** Restarting incremental Fock matrix formation ***
  6  -1743.00491405  -0.0000251642  0.002223  0.007480  0.041073  0.000300
  7  -1743.00506057  -0.0001465230  0.000749  0.006106  0.024584  0.000127
  8  -1743.00509584  -0.0000352710  0.000276  0.000491  0.018076  0.000103
  9  -1743.00510569  -0.0000098490  0.000097  0.000325  0.000875  0.000010
 10  -1743.00510665  -0.0000009571  0.000035  0.000192  0.000772  0.000004
 11  -1743.00510691  -0.0000002619  0.000020  0.000111  0.000473  0.000002
 12  -1743.00510697  -0.0000000615  0.000007  0.000014  0.000472  0.000002
                  ***Gradient check signals convergence***
              ***Rediagonalizing the Fockian in SOSCF/NRSCF***

               *****************************************************
               *                     SUCCESS                       *
               *           SCF CONVERGED AFTER  13 CYCLES          *
               *****************************************************

Old exchange energy                            =   -150.719373333 Eh
New exchange energy                            =   -150.719251113 Eh
Exchange energy change after final integration =      0.000122221 Eh
Total energy after final integration           =  -1743.004984819 Eh
Final COS-X integration done in                =   118.512 sec

SMD CDS free energy correction energy :                -7.35160     Kcal/mol
Total Energy after SMD CDS correction =             -1743.016700338 Eh

----------------
TOTAL SCF ENERGY
----------------

Total Energy       :        -1743.01670034 Eh          -47429.89571 eV

Components:
Nuclear Repulsion  :         4215.97886236 Eh          114722.61723 eV
Electronic Energy  :        -5958.99556270 Eh         -162152.51294 eV
One Electron Energy:       -10749.95415126 Eh         -292521.12394 eV
Two Electron Energy:         4790.95858856 Eh          130368.61101 eV
Max COSX asymmetry :            0.00001049 Eh               0.00029 eV
CPCM Dielectric    :           -0.03988685 Eh              -1.08538 eV
SMD CDS (Gcds)     :           -0.01171552 Eh              -0.31880 eV

Virial components:
Potential Energy   :        -3480.25397247 Eh          -94702.52517 eV
Kinetic Energy     :         1737.23727213 Eh           47272.62947 eV
Virial Ratio       :            2.00332679


DFT components:
N(Alpha)           :      148.000100870983 electrons
N(Beta)            :      148.000100870983 electrons
N(Total)           :      296.000201741966 electrons
E(X)               :      -91.102130165307 Eh       
E(C)               :       -7.361549043224 Eh       
E(XC)              :      -98.463679208531 Eh       
DFET-embed. en.    :        0.000000000000 Eh       
CPCM Solvation Model Properties:
Surface-charge          :           -0.10011478
Charge-correction       :            0.00052891 Eh               0.01439 eV
Free-energy (cav+disp)  :           -0.01171552 Eh              -0.31880 eV

---------------
SCF CONVERGENCE
---------------

  Last Energy change         ...   -6.7617e-08  Tolerance :   1.0000e-08
  Last MAX-Density change    ...    2.8866e-15  Tolerance :   1.0000e-07
  Last RMS-Density change    ...    1.0702e-17  Tolerance :   5.0000e-09
  Last Orbital Gradient      ...    1.8017e-06  Tolerance :   1.0000e-05
  Last Orbital Rotation      ...    9.9801e-06  Tolerance :   1.0000e-05

             **** THE GBW FILE WAS UPDATED (POZ_5_M06L_def2TZVP_coords.gbw) ****
             **** DENSITY POZ_5_M06L_def2TZVP_coords.scfp WAS UPDATED ****
             **** ENERGY FILE WAS UPDATED (POZ_5_M06L_def2TZVP_coords.en.tmp) ****
             **** THE GBW FILE WAS UPDATED (POZ_5_M06L_def2TZVP_coords.gbw) ****
             **** DENSITY POZ_5_M06L_def2TZVP_coords.scfp WAS UPDATED ****
----------------
ORBITAL ENERGIES
----------------

  NO   OCC          E(Eh)            E(eV) 
   0   2.0000     -19.845953      -540.0358 
   1   2.0000     -14.947064      -406.7303 
   2   2.0000     -10.757863      -292.7363 
   3   2.0000     -10.757841      -292.7357 
   4   2.0000     -10.744243      -292.3657 
   5   2.0000     -10.744224      -292.3652 
   6   2.0000     -10.730825      -292.0006 
   7   2.0000     -10.701120      -291.1923 
   8   2.0000     -10.701113      -291.1921 
   9   2.0000     -10.700471      -291.1746 
  10   2.0000     -10.700468      -291.1745 
  11   2.0000     -10.699059      -291.1362 
  12   2.0000     -10.699055      -291.1361 
  13   2.0000     -10.698790      -291.1289 
  14   2.0000     -10.698785      -291.1287 
  15   2.0000     -10.692106      -290.9470 
  16   2.0000     -10.692099      -290.9468 
  17   2.0000     -10.691169      -290.9215 
  18   2.0000     -10.690638      -290.9070 
  19   2.0000     -10.689983      -290.8892 
  20   2.0000     -10.689866      -290.8860 
  21   2.0000     -10.689863      -290.8860 
  22   2.0000     -10.688977      -290.8618 
  23   2.0000     -10.688976      -290.8618 
  24   2.0000     -10.687038      -290.8091 
  25   2.0000     -10.687035      -290.8090 
  26   2.0000     -10.686990      -290.8078 
  27   2.0000     -10.686987      -290.8077 
  28   2.0000     -10.686912      -290.8057 
  29   2.0000     -10.686910      -290.8056 
  30   2.0000     -10.686381      -290.7912 
  31   2.0000     -10.686378      -290.7911 
  32   2.0000     -10.686255      -290.7878 
  33   2.0000     -10.686253      -290.7877 
  34   2.0000     -10.685935      -290.7791 
  35   2.0000     -10.685930      -290.7789 
  36   2.0000     -10.685890      -290.7779 
  37   2.0000     -10.685885      -290.7777 
  38   2.0000     -10.685539      -290.7683 
  39   2.0000     -10.685537      -290.7682 
  40   2.0000     -10.685335      -290.7627 
  41   2.0000     -10.685333      -290.7627 
  42   2.0000     -10.684372      -290.7365 
  43   2.0000     -10.684371      -290.7365 
  44   2.0000      -1.324170       -36.0325 
  45   2.0000      -1.197620       -32.5889 
  46   2.0000      -1.094050       -29.7706 
  47   2.0000      -1.087730       -29.5986 
  48   2.0000      -1.080717       -29.4078 
  49   2.0000      -1.073749       -29.2182 
  50   2.0000      -1.066013       -29.0077 
  51   2.0000      -1.058785       -28.8110 
  52   2.0000      -1.045490       -28.4492 
  53   2.0000      -0.998333       -27.1660 
  54   2.0000      -0.986169       -26.8350 
  55   2.0000      -0.969264       -26.3750 
  56   2.0000      -0.957222       -26.0473 
  57   2.0000      -0.955521       -26.0010 
  58   2.0000      -0.947505       -25.7829 
  59   2.0000      -0.947302       -25.7774 
  60   2.0000      -0.946002       -25.7420 
  61   2.0000      -0.938344       -25.5336 
  62   2.0000      -0.936268       -25.4771 
  63   2.0000      -0.933088       -25.3906 
  64   2.0000      -0.919022       -25.0079 
  65   2.0000      -0.905261       -24.6334 
  66   2.0000      -0.881509       -23.9871 
  67   2.0000      -0.833439       -22.6790 
  68   2.0000      -0.830078       -22.5876 
  69   2.0000      -0.803956       -21.8767 
  70   2.0000      -0.798528       -21.7290 
  71   2.0000      -0.789248       -21.4765 
  72   2.0000      -0.788083       -21.4448 
  73   2.0000      -0.784496       -21.3472 
  74   2.0000      -0.772172       -21.0119 
  75   2.0000      -0.763611       -20.7789 
  76   2.0000      -0.753262       -20.4973 
  77   2.0000      -0.749400       -20.3922 
  78   2.0000      -0.747605       -20.3434 
  79   2.0000      -0.744611       -20.2619 
  80   2.0000      -0.725868       -19.7519 
  81   2.0000      -0.717487       -19.5238 
  82   2.0000      -0.693050       -18.8588 
  83   2.0000      -0.684528       -18.6269 
  84   2.0000      -0.684125       -18.6160 
  85   2.0000      -0.659594       -17.9485 
  86   2.0000      -0.657380       -17.8882 
  87   2.0000      -0.644839       -17.5470 
  88   2.0000      -0.637278       -17.3412 
  89   2.0000      -0.631142       -17.1742 
  90   2.0000      -0.624161       -16.9843 
  91   2.0000      -0.622316       -16.9341 
  92   2.0000      -0.618661       -16.8346 
  93   2.0000      -0.613132       -16.6842 
  94   2.0000      -0.608210       -16.5502 
  95   2.0000      -0.604998       -16.4628 
  96   2.0000      -0.592666       -16.1272 
  97   2.0000      -0.588166       -16.0048 
  98   2.0000      -0.582847       -15.8601 
  99   2.0000      -0.580523       -15.7968 
 100   2.0000      -0.576803       -15.6956 
 101   2.0000      -0.576315       -15.6823 
 102   2.0000      -0.573967       -15.6184 
 103   2.0000      -0.571548       -15.5526 
 104   2.0000      -0.568412       -15.4673 
 105   2.0000      -0.565590       -15.3905 
 106   2.0000      -0.563391       -15.3306 
 107   2.0000      -0.561213       -15.2714 
 108   2.0000      -0.560793       -15.2600 
 109   2.0000      -0.548775       -14.9329 
 110   2.0000      -0.548101       -14.9146 
 111   2.0000      -0.541731       -14.7412 
 112   2.0000      -0.530740       -14.4422 
 113   2.0000      -0.525350       -14.2955 
 114   2.0000      -0.522991       -14.2313 
 115   2.0000      -0.521951       -14.2030 
 116   2.0000      -0.519321       -14.1314 
 117   2.0000      -0.512480       -13.9453 
 118   2.0000      -0.507296       -13.8042 
 119   2.0000      -0.499168       -13.5830 
 120   2.0000      -0.498719       -13.5708 
 121   2.0000      -0.493044       -13.4164 
 122   2.0000      -0.491578       -13.3765 
 123   2.0000      -0.490753       -13.3541 
 124   2.0000      -0.484987       -13.1972 
 125   2.0000      -0.476571       -12.9681 
 126   2.0000      -0.476286       -12.9604 
 127   2.0000      -0.471481       -12.8297 
 128   2.0000      -0.467973       -12.7342 
 129   2.0000      -0.465454       -12.6656 
 130   2.0000      -0.461907       -12.5691 
 131   2.0000      -0.452746       -12.3198 
 132   2.0000      -0.449390       -12.2285 
 133   2.0000      -0.449262       -12.2250 
 134   2.0000      -0.405417       -11.0319 
 135   2.0000      -0.384325       -10.4580 
 136   2.0000      -0.368087       -10.0162 
 137   2.0000      -0.357864        -9.7380 
 138   2.0000      -0.355921        -9.6851 
 139   2.0000      -0.354167        -9.6374 
 140   2.0000      -0.353932        -9.6310 
 141   2.0000      -0.351637        -9.5685 
 142   2.0000      -0.351015        -9.5516 
 143   2.0000      -0.350857        -9.5473 
 144   2.0000      -0.335575        -9.1315 
 145   2.0000      -0.314834        -8.5671 
 146   2.0000      -0.297925        -8.1069 
 147   2.0000      -0.256968        -6.9924 
 148   0.0000       0.029996         0.8162 
 149   0.0000       0.041938         1.1412 
 150   0.0000       0.066545         1.8108 
 151   0.0000       0.073569         2.0019 
 152   0.0000       0.078075         2.1245 
 153   0.0000       0.078170         2.1271 
 154   0.0000       0.084585         2.3017 
 155   0.0000       0.086033         2.3411 
 156   0.0000       0.090813         2.4711 
 157   0.0000       0.096042         2.6134 
 158   0.0000       0.102341         2.7848 
 159   0.0000       0.107615         2.9284 
 160   0.0000       0.131034         3.5656 
 161   0.0000       0.138421         3.7666 
 162   0.0000       0.142772         3.8850 
 163   0.0000       0.143304         3.8995 
 164   0.0000       0.143501         3.9049 
 165   0.0000       0.147097         4.0027 
 166   0.0000       0.149128         4.0580 
 167   0.0000       0.153707         4.1826 
 168   0.0000       0.156372         4.2551 
 169   0.0000       0.157441         4.2842 
 170   0.0000       0.159026         4.3273 
 171   0.0000       0.166024         4.5177 
 172   0.0000       0.166598         4.5333 
 173   0.0000       0.167878         4.5682 
 174   0.0000       0.175631         4.7792 
 175   0.0000       0.176294         4.7972 
 176   0.0000       0.186484         5.0745 
 177   0.0000       0.186683         5.0799 
 178   0.0000       0.191347         5.2068 
 179   0.0000       0.194453         5.2913 
 180   0.0000       0.195875         5.3300 
 181   0.0000       0.197832         5.3833 
 182   0.0000       0.197859         5.3840 
 183   0.0000       0.202084         5.4990 
 184   0.0000       0.202608         5.5132 
 185   0.0000       0.204171         5.5558 
 186   0.0000       0.206809         5.6276 
 187   0.0000       0.209931         5.7125 
 188   0.0000       0.214674         5.8416 
 189   0.0000       0.215405         5.8615 
 190   0.0000       0.222122         6.0443 
 191   0.0000       0.222914         6.0658 
 192   0.0000       0.231503         6.2995 
 193   0.0000       0.233914         6.3651 
 194   0.0000       0.234520         6.3816 
 195   0.0000       0.238348         6.4858 
 196   0.0000       0.243827         6.6349 
 197   0.0000       0.245049         6.6681 
 198   0.0000       0.251528         6.8444 
 199   0.0000       0.257496         7.0068 
 200   0.0000       0.263166         7.1611 
 201   0.0000       0.265117         7.2142 
 202   0.0000       0.266985         7.2650 
 203   0.0000       0.273160         7.4331 
 204   0.0000       0.277953         7.5635 
 205   0.0000       0.278723         7.5844 
 206   0.0000       0.282102         7.6764 
 207   0.0000       0.282478         7.6866 
 208   0.0000       0.285470         7.7680 
 209   0.0000       0.288906         7.8615 
 210   0.0000       0.291184         7.9235 
 211   0.0000       0.291541         7.9332 
 212   0.0000       0.292586         7.9617 
 213   0.0000       0.294492         8.0135 
 214   0.0000       0.295529         8.0418 
 215   0.0000       0.298485         8.1222 
 216   0.0000       0.301802         8.2125 
 217   0.0000       0.302702         8.2369 
 218   0.0000       0.303363         8.2549 
 219   0.0000       0.307805         8.3758 
 220   0.0000       0.307946         8.3796 
 221   0.0000       0.308971         8.4075 
 222   0.0000       0.313320         8.5259 
 223   0.0000       0.313868         8.5408 
 224   0.0000       0.314912         8.5692 
 225   0.0000       0.318870         8.6769 
 226   0.0000       0.321150         8.7389 
 227   0.0000       0.321503         8.7485 
 228   0.0000       0.324761         8.8372 
 229   0.0000       0.326667         8.8891 
 230   0.0000       0.328665         8.9434 
 231   0.0000       0.334799         9.1103 
 232   0.0000       0.337843         9.1932 
 233   0.0000       0.338714         9.2169 
 234   0.0000       0.339783         9.2460 
 235   0.0000       0.341555         9.2942 
 236   0.0000       0.342150         9.3104 
 237   0.0000       0.346289         9.4230 
 238   0.0000       0.347052         9.4438 
 239   0.0000       0.350581         9.5398 
 240   0.0000       0.353120         9.6089 
 241   0.0000       0.353641         9.6230 
 242   0.0000       0.355326         9.6689 
 243   0.0000       0.357904         9.7391 
 244   0.0000       0.358110         9.7447 
 245   0.0000       0.362511         9.8644 
 246   0.0000       0.363868         9.9014 
 247   0.0000       0.371246        10.1021 
 248   0.0000       0.371661        10.1134 
 249   0.0000       0.375774        10.2253 
 250   0.0000       0.376997        10.2586 
 251   0.0000       0.379436        10.3250 
 252   0.0000       0.379721        10.3327 
 253   0.0000       0.385239        10.4829 
 254   0.0000       0.385946        10.5021 
 255   0.0000       0.392517        10.6809 
 256   0.0000       0.392904        10.6915 
 257   0.0000       0.396384        10.7862 
 258   0.0000       0.399429        10.8690 
 259   0.0000       0.403692        10.9850 
 260   0.0000       0.404168        10.9980 
 261   0.0000       0.406958        11.0739 
 262   0.0000       0.408665        11.1204 
 263   0.0000       0.415185        11.2978 
 264   0.0000       0.416250        11.3267 
 265   0.0000       0.420902        11.4533 
 266   0.0000       0.421120        11.4593 
 267   0.0000       0.427860        11.6427 
 268   0.0000       0.429957        11.6997 
 269   0.0000       0.430363        11.7108 
 270   0.0000       0.432751        11.7757 
 271   0.0000       0.433233        11.7889 
 272   0.0000       0.437442        11.9034 
 273   0.0000       0.440073        11.9750 
 274   0.0000       0.441953        12.0261 
 275   0.0000       0.446748        12.1566 
 276   0.0000       0.448097        12.1933 
 277   0.0000       0.448442        12.2027 
 278   0.0000       0.449068        12.2198 
 279   0.0000       0.450367        12.2551 
 280   0.0000       0.451911        12.2971 
 281   0.0000       0.452932        12.3249 
 282   0.0000       0.454679        12.3725 
 283   0.0000       0.455868        12.4048 
 284   0.0000       0.457750        12.4560 
 285   0.0000       0.464012        12.6264 
 286   0.0000       0.464984        12.6529 
 287   0.0000       0.467067        12.7095 
 288   0.0000       0.468889        12.7591 
 289   0.0000       0.470944        12.8150 
 290   0.0000       0.474244        12.9048 
 291   0.0000       0.478840        13.0299 
 292   0.0000       0.480283        13.0692 
 293   0.0000       0.483707        13.1623 
 294   0.0000       0.487413        13.2632 
 295   0.0000       0.487605        13.2684 
 296   0.0000       0.489030        13.3072 
 297   0.0000       0.489194        13.3116 
 298   0.0000       0.492509        13.4019 
 299   0.0000       0.493665        13.4333 
 300   0.0000       0.494806        13.4644 
 301   0.0000       0.497654        13.5419 
 302   0.0000       0.497931        13.5494 
 303   0.0000       0.501650        13.6506 
 304   0.0000       0.505044        13.7429 
 305   0.0000       0.510845        13.9008 
 306   0.0000       0.511027        13.9057 
 307   0.0000       0.516848        14.0641 
 308   0.0000       0.520357        14.1596 
 309   0.0000       0.521071        14.1791 
 310   0.0000       0.523615        14.2483 
 311   0.0000       0.526184        14.3182 
 312   0.0000       0.526230        14.3195 
 313   0.0000       0.529495        14.4083 
 314   0.0000       0.529548        14.4097 
 315   0.0000       0.531201        14.4547 
 316   0.0000       0.535674        14.5764 
 317   0.0000       0.537048        14.6138 
 318   0.0000       0.539079        14.6691 
 319   0.0000       0.540140        14.6979 
 320   0.0000       0.542755        14.7691 
 321   0.0000       0.544328        14.8119 
 322   0.0000       0.548927        14.9371 
 323   0.0000       0.550519        14.9804 
 324   0.0000       0.551071        14.9954 
 325   0.0000       0.553821        15.0702 
 326   0.0000       0.556404        15.1405 
[...]
   147a -> 149a  :     0.043362 
   147a -> 155a  :     0.032395 
   147a -> 157a  :     0.020043 
   147a -> 169a  :     0.023891 

STATE 22:  E=   0.221980 au      6.040 eV    48719.0 cm**-1 <S**2> =   0.000000
   136a -> 149a  :     0.014547 
   136a -> 151a  :     0.023308 
   136a -> 155a  :     0.031492 
   136a -> 157a  :     0.012271 
   139a -> 148a  :     0.012360 
   141a -> 155a  :     0.012205 
   142a -> 148a  :     0.066353 
   142a -> 152a  :     0.011791 
   142a -> 154a  :     0.011717 
   143a -> 149a  :     0.057158 
   143a -> 151a  :     0.015079 
   143a -> 157a  :     0.017215 
   144a -> 148a  :     0.015574 
   144a -> 150a  :     0.077601 
   144a -> 154a  :     0.025600 
   144a -> 158a  :     0.044870 
   145a -> 148a  :     0.025029 
   145a -> 150a  :     0.021495 
   145a -> 152a  :     0.030169 
   145a -> 158a  :     0.014891 
   146a -> 155a  :     0.049857 
   146a -> 157a  :     0.011051 
   147a -> 148a  :     0.023835 
   147a -> 150a  :     0.018103 
   147a -> 154a  :     0.015824 
   147a -> 156a  :     0.034012 
   147a -> 158a  :     0.082364 
   147a -> 160a  :     0.015863 
   147a -> 161a  :     0.019346 

STATE 23:  E=   0.222063 au      6.043 eV    48737.1 cm**-1 <S**2> =   0.000000
   136a -> 148a  :     0.159422 
   136a -> 150a  :     0.017277 
   136a -> 154a  :     0.034800 
   136a -> 158a  :     0.017202 
   137a -> 148a  :     0.045399 
   137a -> 154a  :     0.013297 
   138a -> 153a  :     0.011500 
   141a -> 148a  :     0.026671 
   141a -> 150a  :     0.019860 
   141a -> 152a  :     0.015073 
   142a -> 149a  :     0.024981 
   143a -> 150a  :     0.020306 
   143a -> 154a  :     0.010499 
   144a -> 149a  :     0.075532 
   144a -> 159a  :     0.057613 
   144a -> 169a  :     0.016044 
   145a -> 149a  :     0.020962 
   145a -> 151a  :     0.051198 
   145a -> 159a  :     0.033495 
   146a -> 150a  :     0.034369 
   146a -> 158a  :     0.010154 
   147a -> 149a  :     0.017890 
   147a -> 151a  :     0.024485 
   147a -> 155a  :     0.051358 
   147a -> 159a  :     0.011228 

STATE 24:  E=   0.229464 au      6.244 eV    50361.4 cm**-1 <S**2> =   0.000000
   137a -> 154a  :     0.017410 
   138a -> 153a  :     0.010647 
   139a -> 149a  :     0.011265 
   139a -> 151a  :     0.067903 
   139a -> 157a  :     0.068097 
   140a -> 148a  :     0.014435 
   140a -> 150a  :     0.032554 
   140a -> 152a  :     0.029955 
   140a -> 156a  :     0.042282 
   140a -> 158a  :     0.026843 
   141a -> 150a  :     0.014022 
   142a -> 149a  :     0.018780 
   142a -> 151a  :     0.067006 
   143a -> 148a  :     0.012195 
   143a -> 150a  :     0.030194 
   143a -> 152a  :     0.060043 
   144a -> 149a  :     0.024077 
   144a -> 151a  :     0.026241 
   145a -> 155a  :     0.029173 
   146a -> 148a  :     0.111293 
   146a -> 152a  :     0.019995 
   146a -> 154a  :     0.022379 
   146a -> 156a  :     0.018780 
   147a -> 149a  :     0.047599 
   147a -> 157a  :     0.012716 

STATE 25:  E=   0.231207 au      6.291 eV    50744.0 cm**-1 <S**2> =   0.000000
   136a -> 148a  :     0.028119 
   137a -> 148a  :     0.012095 
   139a -> 149a  :     0.085538 
   139a -> 151a  :     0.018520 
   139a -> 157a  :     0.014126 
   140a -> 148a  :     0.078565 
   140a -> 152a  :     0.012656 
   140a -> 154a  :     0.014622 
   140a -> 156a  :     0.015367 
   141a -> 150a  :     0.016605 
   142a -> 149a  :     0.043547 
   142a -> 151a  :     0.023195 
   142a -> 155a  :     0.031639 
   142a -> 159a  :     0.017287 
   143a -> 148a  :     0.028458 
   143a -> 150a  :     0.011511 
   143a -> 152a  :     0.016229 
   143a -> 154a  :     0.030517 
   144a -> 149a  :     0.013993 
   144a -> 155a  :     0.013037 
   145a -> 155a  :     0.050178 
   145a -> 157a  :     0.013015 
   146a -> 150a  :     0.010855 
   146a -> 152a  :     0.018030 
   146a -> 156a  :     0.089166 
   147a -> 157a  :     0.121296 

STATE 26:  E=   0.234604 au      6.384 eV    51489.6 cm**-1 <S**2> =   0.000000
   137a -> 151a  :     0.013351 
   139a -> 148a  :     0.046190 
   139a -> 150a  :     0.035469 
   139a -> 152a  :     0.013091 
   139a -> 156a  :     0.048107 
   139a -> 158a  :     0.024522 
   140a -> 149a  :     0.055634 
   140a -> 151a  :     0.026195 
   140a -> 157a  :     0.066668 
   142a -> 148a  :     0.021086 
   142a -> 150a  :     0.016150 
   142a -> 152a  :     0.092519 
   142a -> 154a  :     0.013792 
   143a -> 149a  :     0.016927 
   143a -> 151a  :     0.095676 
   143a -> 155a  :     0.020448 
   143a -> 159a  :     0.016162 
   144a -> 152a  :     0.012415 
   145a -> 150a  :     0.013613 
   145a -> 156a  :     0.015358 
   145a -> 158a  :     0.012015 
   146a -> 149a  :     0.020735 
   146a -> 155a  :     0.013148 
   146a -> 157a  :     0.047731 
   147a -> 156a  :     0.038505 
   147a -> 158a  :     0.026415 

STATE 27:  E=   0.233608 au      6.357 eV    51271.1 cm**-1 <S**2> =   0.000000
   139a -> 148a  :     0.072179 
   139a -> 152a  :     0.011696 
   139a -> 156a  :     0.038842 
   139a -> 158a  :     0.016798 
   140a -> 149a  :     0.061344 
   140a -> 151a  :     0.032384 
   140a -> 155a  :     0.012125 
   140a -> 157a  :     0.030559 
   141a -> 151a  :     0.016031 
   141a -> 155a  :     0.019951 
   142a -> 148a  :     0.021693 
   142a -> 150a  :     0.032389 
   142a -> 152a  :     0.055442 
   142a -> 154a  :     0.037612 
   142a -> 156a  :     0.014091 
   143a -> 149a  :     0.027968 
   143a -> 151a  :     0.049074 
   143a -> 155a  :     0.039381 
   145a -> 152a  :     0.020113 
   145a -> 156a  :     0.037315 
   146a -> 149a  :     0.011875 
   146a -> 155a  :     0.041491 
   146a -> 157a  :     0.043751 
   147a -> 154a  :     0.014446 
   147a -> 156a  :     0.024926 
   147a -> 158a  :     0.069665 

STATE 28:  E=   0.218144 au      5.936 eV    47877.1 cm**-1 <S**2> =   0.000000
   136a -> 155a  :     0.011371 
   137a -> 149a  :     0.019316 
   141a -> 149a  :     0.023054 
   142a -> 156a  :     0.010892 
   144a -> 148a  :     0.037782 
   144a -> 150a  :     0.028094 
   144a -> 158a  :     0.010663 
   145a -> 148a  :     0.094010 
   145a -> 161a  :     0.021978 
   146a -> 149a  :     0.012550 
   146a -> 159a  :     0.018181 
   147a -> 148a  :     0.109459 
   147a -> 150a  :     0.014307 
   147a -> 152a  :     0.013334 
   147a -> 154a  :     0.308268 
   147a -> 161a  :     0.076898 

STATE 29:  E=   0.235055 au      6.396 eV    51588.5 cm**-1 <S**2> =   0.000000
   137a -> 148a  :     0.015414 
   138a -> 153a  :     0.020266 
   139a -> 149a  :     0.019290 
   139a -> 155a  :     0.018669 
   139a -> 157a  :     0.021193 
   140a -> 156a  :     0.032425 
   141a -> 148a  :     0.013557 
   141a -> 150a  :     0.029219 
   142a -> 151a  :     0.069674 
   142a -> 155a  :     0.051525 
   142a -> 157a  :     0.022572 
   143a -> 152a  :     0.091919 
   143a -> 156a  :     0.037853 
   144a -> 151a  :     0.010524 
   144a -> 155a  :     0.040121 
   145a -> 149a  :     0.028976 
   145a -> 151a  :     0.019546 
   145a -> 159a  :     0.013755 
   146a -> 148a  :     0.020759 
   146a -> 150a  :     0.041376 
   146a -> 154a  :     0.057610 
   146a -> 158a  :     0.024479 
   147a -> 149a  :     0.031696 
   147a -> 151a  :     0.020964 
   147a -> 159a  :     0.056142 
   147a -> 169a  :     0.010889 

STATE 30:  E=   0.242438 au      6.597 eV    53209.0 cm**-1 <S**2> =   0.000000
   131a -> 148a  :     0.014832 
   135a -> 148a  :     0.042472 
   137a -> 149a  :     0.052433 
   139a -> 150a  :     0.021581 
   139a -> 152a  :     0.068901 
   140a -> 151a  :     0.082161 
   140a -> 155a  :     0.014304 
   141a -> 149a  :     0.020360 
   142a -> 152a  :     0.022747 
   142a -> 156a  :     0.072812 
   142a -> 158a  :     0.013490 
   143a -> 155a  :     0.047118 
   143a -> 157a  :     0.043232 
   144a -> 154a  :     0.029035 
   145a -> 154a  :     0.044513 
   146a -> 149a  :     0.021303 
   146a -> 151a  :     0.019639 
   146a -> 155a  :     0.041694 
   146a -> 157a  :     0.024058 
   146a -> 159a  :     0.063745 
   147a -> 154a  :     0.011704 
   147a -> 158a  :     0.011518 
   147a -> 161a  :     0.025026 


-------------------------
TD-DFT-EXCITATION SPECTRA
-------------------------

Center of mass = (  0.0000,  0.0112, -0.0001)
Calculating the Dipole integrals                  ... done
Transforming integrals                            ... done
Calculating the Linear Momentum integrals         ... done
Transforming integrals                            ... done
Calculating angular momentum integrals            ... done
Transforming integrals                            ... done

-----------------------------------------------------------------------------
         ABSORPTION SPECTRUM VIA TRANSITION ELECTRIC DIPOLE MOMENTS
-----------------------------------------------------------------------------
State   Energy    Wavelength  fosc         T2        TX        TY        TZ  
        (cm-1)      (nm)                 (au**2)    (au)      (au)      (au) 
-----------------------------------------------------------------------------
   1   28602.0    349.6   1.164081022  13.39869   3.66038  -0.00142   0.01781
   2   34467.7    290.1   0.735919662   7.02901  -0.00099  -2.65123   0.00161
   3   33434.4    299.1   0.392617246   3.86591   1.96574   0.00231   0.04209
   4   35497.7    281.7   0.105766118   0.98090  -0.00276   0.99040  -0.00086
   5   38063.0    262.7   0.736798252   6.37267   2.52433  -0.00045   0.02110
   6   38899.1    257.1   0.004935037   0.04177   0.20339  -0.01298   0.01513
   7   38945.7    256.8   0.001671065   0.01413  -0.02246  -0.11670  -0.00142
   8   38360.8    260.7   0.000006267   0.00005  -0.00112   0.00725  -0.00003
   9   41411.6    241.5   0.000766737   0.00610  -0.00032  -0.07807  -0.00045
  10   41395.8    241.6   0.000112402   0.00089   0.02624  -0.00090   0.01430
  11   43485.8    230.0   0.003003865   0.02274   0.00145   0.15079   0.00093
  12   43412.9    230.3   0.001857835   0.01409   0.03169   0.00002  -0.11439
  13   43559.8    229.6   0.318536116   2.40740   1.55001   0.00075   0.06987
  14   43453.6    230.1   0.162030637   1.22757   1.10451   0.00037   0.08737
  15   45994.6    217.4   0.009851727   0.07051  -0.00612   0.26548  -0.00028
  16   47210.5    211.8   0.079879928   0.55702  -0.68241  -0.00060   0.30222
  17   50042.6    199.8   0.000019940   0.00013   0.01077   0.00071  -0.00382
  18   47614.9    210.0   0.150232752   1.03872  -0.97746   0.00152   0.28858
  19   47928.5    208.6   0.975411220   6.69992   2.58570  -0.00237   0.11857
  20   47303.8    211.4   0.101306746   0.70505   0.00727   0.83964  -0.00051
  21   49547.9    201.8   0.309354176   2.05545  -0.00188  -1.43368   0.00035
  22   48719.0    205.3   0.054149599   0.36591   0.45029  -0.00631  -0.40387
  23   48737.1    205.2   0.194340092   1.31274  -0.00317  -1.14574   0.00244
  24   50361.4    198.6   0.742022264   4.85059  -0.00054   2.20241  -0.00068
  25   50744.0    197.1   0.939021440   6.09209  -0.01524   2.46810   0.01838
  26   51489.6    194.2   1.508103522   9.64245   2.83237   0.01867  -1.27272
  27   51271.1    195.0   0.476803943   3.06156  -0.91031   0.01532  -1.49421
  28   47877.1    208.9   0.155390761   1.06850  -1.02746  -0.00291  -0.11320
  29   51588.5    193.8   0.189619849   1.21006  -0.00059  -1.10002  -0.00161
  30   53209.0    187.9   0.041400541   0.25615   0.48861  -0.00135  -0.13195

-----------------------------------------------------------------------------
         ABSORPTION SPECTRUM VIA TRANSITION VELOCITY DIPOLE MOMENTS
-----------------------------------------------------------------------------
State   Energy    Wavelength   fosc        P2         PX        PY        PZ  
        (cm-1)      (nm)                 (au**2)     (au)      (au)      (au) 
-----------------------------------------------------------------------------
   1   28602.0    349.6   1.324431993   0.25890  -0.50882   0.00020  -0.00234
   2   34467.7    290.1   0.781916321   0.18420   0.00015   0.42918  -0.00027
   3   33434.4    299.1   0.479808771   0.10964  -0.33104  -0.00039  -0.00721
   4   35497.7    281.7   0.121711832   0.02953   0.00048  -0.17184   0.00014
   5   38063.0    262.7   0.784599445   0.20411  -0.45177   0.00008  -0.00376
   6   38899.1    257.1   0.006097896   0.00162  -0.04006   0.00256  -0.00308
   7   38945.7    256.8   0.002059745   0.00055   0.00443   0.02299   0.00030
   8   38360.8    260.7   0.000007430   0.00000   0.00023  -0.00138   0.00001
   9   41411.6    241.5   0.000816112   0.00023   0.00007   0.01520   0.00008
  10   41395.8    241.6   0.000131648   0.00004  -0.00575   0.00018  -0.00203
  11   43485.8    230.0   0.003200940   0.00095  -0.00029  -0.03084  -0.00019
  12   43412.9    230.3   0.002051428   0.00061  -0.00672  -0.00000   0.02374
  13   43559.8    229.6   0.362765683   0.10800  -0.32830  -0.00015  -0.01474
  14   43453.6    230.1   0.190406189   0.05655  -0.23710  -0.00009  -0.01826
  15   45994.6    217.4   0.010705923   0.00337   0.00136  -0.05800   0.00004
  16   47210.5    211.8   0.082942504   0.02676   0.15239   0.00011  -0.05950
  17   50042.6    199.8   0.000020088   0.00001  -0.00244  -0.00054   0.00079
  18   47614.9    210.0   0.155041818   0.05045   0.21918  -0.00037  -0.04912
  19   47928.5    208.6   1.040064057   0.34069  -0.58335   0.00052  -0.01977
  20   47303.8    211.4   0.112991943   0.03653  -0.00165  -0.19112   0.00007
  21   49547.9    201.8   0.319857307   0.10831   0.00043   0.32911  -0.00010
  22   48719.0    205.3   0.057856549   0.01926  -0.10486   0.00147   0.09093
  23   48737.1    205.2   0.220164867   0.07334   0.00074   0.27080  -0.00053
  24   50361.4    198.6   0.804152763   0.27679   0.00013  -0.52610   0.00016
  25   50744.0    197.1   1.024334043   0.35525   0.00368  -0.59600  -0.00447
  26   51489.6    194.2   1.604482862   0.56463  -0.68411  -0.00451   0.31081
  27   51271.1    195.0   0.516371788   0.18094   0.21927  -0.00370   0.36448
  28   47877.1    208.9   0.197062139   0.06448   0.25247   0.00071   0.02718
  29   51588.5    193.8   0.205833170   0.07257   0.00013   0.26939   0.00040
  30   53209.0    187.9   0.044846312   0.01631  -0.12326   0.00034   0.03341

-------------------------------------------------------------------
                             CD SPECTRUM
-------------------------------------------------------------------
State  Energy     Wavelength     R         MX        MY        MZ   
       (cm-1)       (nm)     (1e40*cgs)   (au)      (au)      (au)  
-------------------------------------------------------------------
   1   28602.0    349.6     39.53846   0.03232  -0.00216  -1.93273
   2   34467.7    290.1     68.50544  -0.00097  -0.05481   0.00063
   3   33434.4    299.1     -2.67031   0.00354  -0.00138  -0.29969
   4   35497.7    281.7     -3.17594   0.00027  -0.00680   0.00002
   5   38063.0    262.7     38.39820   0.03794  -0.00154  -0.67870
   6   38899.1    257.1     -8.21321  -0.09087   0.01589   0.08380
   7   38945.7    256.8     -7.90259   0.01006   0.14182  -0.00978
   8   38360.8    260.7      0.75020  -0.00008   0.21955  -0.00015
   9   41411.6    241.5     -5.10707  -0.00129   0.13877  -0.00112
  10   41395.8    241.6      1.98773   0.09311   0.00178   0.12410
  11   43485.8    230.0     -5.43464   0.00079  -0.07645  -0.00122
  12   43412.9    230.3     -1.89142  -0.12154  -0.00008   0.00140
  13   43559.8    229.6     -5.11697  -0.00194  -0.00167  -0.11223
  14   43453.6    230.1    -33.19372   0.00353  -0.00058  -0.85042
  15   45994.6    217.4      7.08042   0.00052   0.05658  -0.00066
  16   47210.5    211.8    -179.85791   0.22408  -0.00043  -0.75635
  17   50042.6    199.8     -0.04589  -0.00444  -0.01724   0.00974
  18   47614.9    210.0     66.70547  -0.00087   0.00126   0.48733
  19   47928.5    208.6    -238.55989  -0.15021  -0.00041  -0.99191
  20   47303.8    211.4    -194.03646   0.00079  -0.49019  -0.00193
  21   49547.9    201.8    -467.56173  -0.00227   0.69175   0.00281
  22   48719.0    205.3    245.72553   0.54687   0.00154  -0.68085
  23   48737.1    205.2    641.02748  -0.00151  -1.18673  -0.00121
  24   50361.4    198.6    -1857.52979   0.00125  -1.78897  -0.00253
  25   50744.0    197.1    4439.40440  -0.01534   3.81543  -0.03421
  26   51489.6    194.2    430.02213   1.03726   0.02294   1.59203
  27   51271.1    195.0    -3713.88981   1.17306   0.02071   4.55762
  28   47877.1    208.9    -118.23217   0.09589  -0.00356   1.34512
  29   51588.5    193.8    683.90334  -0.00074  -1.31873  -0.00203
  30   53209.0    187.9     10.44763   0.12952  -0.00055   0.31165

Total run time:    26951.529 sec

           *** ORCA-CIS/TD-DFT FINISHED WITHOUT ERROR ***

Maximum memory used throughout the entire CIS-calculation: 4591.7 MB

-----------------------
CIS/TD-DFT TOTAL ENERGY
-----------------------

    E(SCF)  =  -1743.016700338 Eh
    DE(CIS) =      0.130320342 Eh (Root  1)
    ----------------------------- ---------
    E(tot)  =  -1742.886379996 Eh


-------------------------   --------------------
FINAL SINGLE POINT ENERGY     -1742.886379995658
-------------------------   --------------------


                            ***************************************
                            *     ORCA property calculations      *
                            ***************************************


  WARNING: The energy has been calculated at the MP2 level but the densities
           used in the property calculations are still SCF densities
           MP2 response densities have not been calculated 
           use %mp2 Density relaxed end
           or  %mp2 Density unrelaxed end

                                    ---------------------
                                    Active property flags
                                    ---------------------
   (+) Dipole Moment


------------------------------------------------------------------------------
                       ORCA ELECTRIC PROPERTIES CALCULATION
------------------------------------------------------------------------------

Dipole Moment Calculation                       ... on
Quadrupole Moment Calculation                   ... off
Polarizability Calculation                      ... off
GBWName                                         ... POZ_5_M06L_def2TZVP_coords.gbw
Electron density                                ... POZ_5_M06L_def2TZVP_coords.scfp
The origin for moment calculation is the CENTER OF MASS  = ( 0.000004,  0.011184 -0.000097)

-------------
DIPOLE MOMENT
-------------
                                X             Y             Z
Electronic contribution:      0.00081       4.76149      -0.02557
Nuclear contribution   :     -0.00106      -3.31033       0.02858
                        -----------------------------------------
Total Dipole Moment    :     -0.00025       1.45116       0.00301
                        -----------------------------------------
Magnitude (a.u.)       :      1.45117
Magnitude (Debye)      :      3.68857



--------------------
Rotational spectrum 
--------------------
 
Rotational constants in cm-1:     0.003126     0.000782     0.000637 
Rotational constants in MHz :    93.711609    23.448179    19.093811 

 Dipole components along the rotational axes: 
x,y,z [a.u.] :     0.000246     1.451163     0.003023 
x,y,z [Debye]:     0.000625     3.688564     0.007685 

 

Timings for individual modules:

Sum of individual times         ...    29179.389 sec (= 486.323 min)
GTO integral calculation        ...        2.336 sec (=   0.039 min)   0.0 %
SCF iterations                  ...      770.517 sec (=  12.842 min)   2.6 %
MP2 module                      ...     1454.499 sec (=  24.242 min)   5.0 %
CIS module                      ...    26952.037 sec (= 449.201 min)  92.4 %
                             ****ORCA TERMINATED NORMALLY****
TOTAL RUN TIME: 0 days 8 hours 6 minutes 27 seconds 787 msec
