
                                 *****************
                                 * O   R   C   A *
                                 *****************

                                            #,                                       
                                            ###                                      
                                            ####                                     
                                            #####                                    
                                            ######                                   
                                           ########,                                 
                                     ,,################,,,,,                         
                               ,,#################################,,                 
                          ,,##########################################,,             
                       ,#########################################, ''#####,          
                    ,#############################################,,   '####,        
                  ,##################################################,,,,####,       
                ,###########''''           ''''###############################       
              ,#####''   ,,,,##########,,,,          '''####'''          '####       
            ,##' ,,,,###########################,,,                        '##       
           ' ,,###''''                  '''############,,,                           
         ,,##''                                '''############,,,,        ,,,,,,###''
      ,#''                                            '''#######################'''  
     '                                                          ''''####''''         
             ,#######,   #######,   ,#######,      ##                                
            ,#'     '#,  ##    ##  ,#'     '#,    #''#        ######   ,####,        
            ##       ##  ##   ,#'  ##            #'  '#       #        #'  '#        
            ##       ##  #######   ##           ,######,      #####,   #    #        
            '#,     ,#'  ##    ##  '#,     ,#' ,#      #,         ##   #,  ,#        
             '#######'   ##     ##  '#######'  #'      '#     #####' # '####'        



                  #######################################################
                  #                        -***-                        #
                  #          Department of theory and spectroscopy      #
                  #    Directorship and core code : Frank Neese         #
                  #        Max Planck Institute fuer Kohlenforschung    #
                  #                Kaiser Wilhelm Platz 1               #
                  #                 D-45470 Muelheim/Ruhr               #
                  #                      Germany                        #
                  #                                                     #
                  #                  All rights reserved                #
                  #                        -***-                        #
                  #######################################################


                         Program Version 5.0.2 -  RELEASE  -


 With contributions from (in alphabetic order):
   Daniel Aravena         : Magnetic Suceptibility
   Michael Atanasov       : Ab Initio Ligand Field Theory (pilot matlab implementation)
   Alexander A. Auer      : GIAO ZORA, VPT2 properties, NMR spectrum
   Ute Becker             : Parallelization
   Giovanni Bistoni       : ED, misc. LED, open-shell LED, HFLD
   Martin Brehm           : Molecular dynamics
   Dmytro Bykov           : SCF Hessian
   Vijay G. Chilkuri      : MRCI spin determinant printing, contributions to CSF-ICE
   Dipayan Datta          : RHF DLPNO-CCSD density
   Achintya Kumar Dutta   : EOM-CC, STEOM-CC
   Dmitry Ganyushin       : Spin-Orbit,Spin-Spin,Magnetic field MRCI
   Miquel Garcia          : C-PCM and meta-GGA Hessian, CC/C-PCM, Gaussian charge scheme
   Yang Guo               : DLPNO-NEVPT2, F12-NEVPT2, CIM, IAO-localization
   Andreas Hansen         : Spin unrestricted coupled pair/coupled cluster methods
   Benjamin Helmich-Paris : MC-RPA, TRAH-SCF, COSX integrals
   Lee Huntington         : MR-EOM, pCC
   Robert Izsak           : Overlap fitted RIJCOSX, COSX-SCS-MP3, EOM
   Marcus Kettner         : VPT2
   Christian Kollmar      : KDIIS, OOCD, Brueckner-CCSD(T), CCSD density, CASPT2, CASPT2-K
   Simone Kossmann        : Meta GGA functionals, TD-DFT gradient, OOMP2, MP2 Hessian
   Martin Krupicka        : Initial AUTO-CI
   Lucas Lang             : DCDCAS
   Marvin Lechner         : AUTO-CI (C++ implementation), FIC-MRCC
   Dagmar Lenk            : GEPOL surface, SMD
   Dimitrios Liakos       : Extrapolation schemes; Compound Job, initial MDCI parallelization
   Dimitrios Manganas     : Further ROCIS development; embedding schemes
   Dimitrios Pantazis     : SARC Basis sets
   Anastasios Papadopoulos: AUTO-CI, single reference methods and gradients
   Taras Petrenko         : DFT Hessian,TD-DFT gradient, ASA, ECA, R-Raman, ABS, FL, XAS/XES, NRVS
   Peter Pinski           : DLPNO-MP2, DLPNO-MP2 Gradient
   Christoph Reimann      : Effective Core Potentials
   Marius Retegan         : Local ZFS, SOC
   Christoph Riplinger    : Optimizer, TS searches, QM/MM, DLPNO-CCSD(T), (RO)-DLPNO pert. Triples
   Tobias Risthaus        : Range-separated hybrids, TD-DFT gradient, RPA, STAB
   Michael Roemelt        : Original ROCIS implementation
   Masaaki Saitow         : Open-shell DLPNO-CCSD energy and density
   Barbara Sandhoefer     : DKH picture change effects
   Avijit Sen             : IP-ROCIS
   Kantharuban Sivalingam : CASSCF convergence, NEVPT2, FIC-MRCI
   Bernardo de Souza      : ESD, SOC TD-DFT
   Georgi Stoychev        : AutoAux, RI-MP2 NMR, DLPNO-MP2 response
   Willem Van den Heuvel  : Paramagnetic NMR
   Boris Wezisla          : Elementary symmetry handling
   Frank Wennmohs         : Technical directorship


 We gratefully acknowledge several colleagues who have allowed us to
 interface, adapt or use parts of their codes:
   Stefan Grimme, W. Hujo, H. Kruse, P. Pracht,  : VdW corrections, initial TS optimization,
                  C. Bannwarth, S. Ehlert          DFT functionals, gCP, sTDA/sTD-DF
   Ed Valeev, F. Pavosevic, A. Kumar             : LibInt (2-el integral package), F12 methods
   Garnet Chan, S. Sharma, J. Yang, R. Olivares  : DMRG
   Ulf Ekstrom                                   : XCFun DFT Library
   Mihaly Kallay                                 : mrcc  (arbitrary order and MRCC methods)
   Jiri Pittner, Ondrej Demel                    : Mk-CCSD
   Frank Weinhold                                : gennbo (NPA and NBO analysis)
   Christopher J. Cramer and Donald G. Truhlar   : smd solvation model
   Lars Goerigk                                  : TD-DFT with DH, B97 family of functionals
   V. Asgeirsson, H. Jonsson                     : NEB implementation
   FAccTs GmbH                                   : IRC, NEB, NEB-TS, DLPNO-Multilevel, CI-OPT
                                                   MM, QMMM, 2- and 3-layer-ONIOM, Crystal-QMMM,
                                                   LR-CPCM, SF, NACMEs, symmetry and pop. for TD-DFT,
                                                   nearIR, NL-DFT gradient (VV10), updates on ESD,
                                                   ML-optimized integration grids
   S Lehtola, MJT Oliveira, MAL Marques          : LibXC Library
   Liviu Ungur et al                             : ANISO software


 Your calculation uses the libint2 library for the computation of 2-el integrals
 For citations please refer to: http://libint.valeyev.net

 Your ORCA version has been built with support for libXC version: 5.1.0
 For citations please refer to: https://tddft.org/programs/libxc/

 This ORCA versions uses:
   CBLAS   interface :  Fast vector & matrix operations
   LAPACKE interface :  Fast linear algebra routines
   SCALAPACK package :  Parallel linear algebra routines
   Shared memory     :  Shared parallel matrices
   BLAS/LAPACK       :  OpenBLAS 0.3.15  USE64BITINT DYNAMIC_ARCH NO_AFFINITY Zen SINGLE_THREADED
        Core in use  :  Zen
   Copyright (c) 2011-2014, The OpenBLAS Project


Your calculation utilizes the atom-pairwise dispersion correction
with the Becke-Johnson damping scheme (D3BJ)
Cite in your paper:
S.Grimme, S.Ehrlich, L.Goerigk, J Comput Chem, (2011), 32, 1456–1465 
S.Grimme, J.Antony, S.Ehrlich and H.Krieg, J.Chem.Phys., 132, (2010), 154104 
   

Your calculation utilizes the SMD solvation module
Please cite in your paper:
A.V. Marenich, C.J. Cramer, D.G. Truhlar J. Phys. Chem. B, 113, (2009), 6378 

================================================================================

----- Orbital basis set information -----
Your calculation utilizes the basis: def2-TZVP
   F. Weigend and R. Ahlrichs, Phys. Chem. Chem. Phys. 7, 3297 (2005).

----- AuxJ basis set information -----
Your calculation utilizes the auxiliary basis: def2/J
   F. Weigend, Phys. Chem. Chem. Phys. 8, 1057 (2006).

----- AuxC basis set information -----
Your calculation utilizes the auxiliary basis: def2-TZVP/C
  H-La, Hf-Rn : A. Hellweg, C. Hattig, S. Hofener and W. Klopper, Theor. Chem. Acc. 117, 587 (2007).
        Ce-Lu : J. Chmela and M. E. Harding, Mol. Phys. (2018).

================================================================================
                                        WARNINGS
                       Please study these warnings very carefully!
================================================================================

INFO   : Checking CIS options ...
  ===> : (D) CORRECTION FOUND - SETTING MODE=3
  ===> : JK MODE FOUND - ACTIVATING RI-MP2 CODE
  ===> : MP2 AND CIS FOUND - CHECKING
WARNING: CIS(D) and MP2 runs must have the same orbital window
  ===> : adjusting orbital windows

WARNING: No MP2 level density has been requested!
         To caclulate MP2 level properties use
         %mp2 Density relaxed end
         or
         %mp2 Density unrelaxed end
         Otherwise for double-hybrid DFT only the energy is correct!

WARNING: The frozen-core approximation is turned on by default for 
         the MP2 part of double-hybrid DFT.

WARNING: CIS/ROCIS methods need fully converged wavefunctions
  ===> : Setting SCFConvForced true
         You can overwrite this default with %scf ConvForced false 


INFO   : the flag for use of the SHARK integral package has been found!

================================================================================
                                       INPUT FILE
================================================================================
NAME = POZ_5_M06L_def2TZVP_coords.inp
|  1> %maxcore 3200
|  2> %pal
|  3>  nprocs= 8
|  4> end
|  5> ! RI-B2PLYP D3BJ def2-TZVP def2/J def2-TZVP/C RIJCOSX CPCM TightSCF
|  6> %TDDFT DCORR 4
|  7>    NROOTS   30
|  8> 
|  9>    TDA      FALSE
| 10> END
| 11> 
| 12> %CPCM
| 13>    SMD          TRUE
| 14>    SMDsolvent   "N,N-DIMETHYLACETAMIDE"
| 15> END
| 16>    
| 17> 
| 18> * xyz 0 1
| 19> C                  -3.61688000    1.95222700    0.00979700
| 20> C                  -2.44498300    2.69219500    0.00577400
| 21> C                  -1.20128400    2.06784400   -0.00149600
| 22> C                  -1.17907300    0.66788400   -0.00746600
| 23> C                  -2.34227100   -0.06585600   -0.00741200
| 24> C                  -3.59805500    0.55825700    0.00165200
| 25> C                   1.17925100    0.66797700    0.00012600
| 26> C                   1.20135300    2.06794100   -0.00564300
| 27> C                   2.44501800    2.69237500   -0.01150300
| 28> H                   2.49303900    3.77321800   -0.00557800
| 29> C                   3.61696900    1.95248600   -0.01421200
| 30> C                   3.59827200    0.55852100   -0.00584900
| 31> C                   2.34249600   -0.06566900    0.00156900
| 32> H                  -2.49308300    3.77303600   -0.00006600
| 33> H                  -2.25543500   -1.14453900    0.00896800
| 34> H                   4.56073300    2.48154200    0.00265200
| 35> N                   0.00000900    2.76974200   -0.00410800
| 36> C                  -0.00004400    4.19949700   -0.00031200
| 37> C                   0.00177500    4.89081800   -1.20408000
| 38> C                  -0.00193000    4.88400000    1.20737700
| 39> C                   0.00177600    6.27761900   -1.19683800
| 40> C                  -0.00208600    6.27078300    1.20807700
| 41> H                  -0.00331900    4.32511400    2.13518600
| 42> C                  -0.00019500    6.96725300    0.00757900
| 43> H                  -0.00358800    6.80775300    2.14807900
| 44> H                  -0.00025800    8.04987200    0.01064200
| 45> H                   2.25571800   -1.14436300   -0.01477100
| 46> H                  -4.56071600    2.48121500   -0.00600400
| 47> C                  -4.83465400   -0.23344000   -0.00549800
| 48> C                  -4.86912000   -1.53095200   -0.52941200
| 49> C                  -6.03242900    0.27587300    0.50971700
| 50> C                  -6.03346800   -2.27397400   -0.54043000
| 51> H                  -3.97000500   -1.96338800   -0.95084000
| 52> C                  -7.19568500   -0.46915300    0.50181400
| 53> H                  -6.05130600    1.27062200    0.93751300
| 54> C                  -7.22900300   -1.76453000   -0.02454400
| 55> H                  -6.01072000   -3.27794800   -0.94633800
| 56> H                  -8.10232300   -0.03070500    0.90091100
| 57> C                  -8.46775000   -2.55848400   -0.03671700
| 58> C                  -8.69537900   -3.52297100   -1.02463100
| 59> C                  -9.45568300   -2.37552800    0.93692500
| 60> C                  -9.86027200   -4.27171800   -1.03872000
| 61> H                  -7.95862700   -3.67262300   -1.80424300
| 62> C                 -10.62003700   -3.12578400    0.92352900
| 63> H                  -9.29910100   -1.65084400    1.72667100
| 64> C                 -10.82954000   -4.07809300   -0.06437200
| 65> H                 -10.01498200   -5.00597100   -1.81977700
| 66> H                 -11.36515500   -2.97070200    1.69415900
| 67> H                 -11.74002800   -4.66387300   -0.07456800
| 68> C                   4.83493800   -0.23306800    0.00315900
| 69> C                   4.86829700   -1.53110400    0.52585200
| 70> C                   6.03385300    0.27676000   -0.50893300
| 71> C                   6.03252800   -2.27425500    0.53845900
| 72> H                   3.96829300   -1.96390300    0.94498200
| 73> C                   7.19702400   -0.46839400   -0.49941800
| 74> H                   6.05370500    1.27200400   -0.93557100
| 75> C                   7.22914400   -1.76437800    0.02552300
| 76> H                   6.00883900   -3.27870400    0.94315900
| 77> H                   8.10456900   -0.02959600   -0.89607400
| 78> C                   8.46773800   -2.55854200    0.03917500
| 79> C                   8.69365700   -3.52365500    1.02687300
| 80> C                   9.45714600   -2.37529900   -0.93288700
| 81> C                   9.85829700   -4.27277200    1.04223400
| 82> H                   7.95576200   -3.67358200    1.80535600
| 83> C                  10.62126300   -3.12591200   -0.91821500
| 84> H                   9.30198600   -1.65016900   -1.72250000
| 85> C                  10.82903400   -4.07888800    0.06940600
| 86> H                  10.01163200   -5.00753100    1.82308600
| 87> H                  11.36754600   -2.97055700   -1.68766400
| 88> H                  11.73931500   -4.66497100    0.08052700
| 89> O                   0.00012000   -0.03539000   -0.00456200
| 90> H                   0.00321700    6.81993700   -2.13376300
| 91> H                   0.00321900    4.33723700   -2.13505800
| 92> *
| 93> 
| 94> 
| 95>                          ****END OF INPUT****
================================================================================

                       ****************************
                       * Single Point Calculation *
                       ****************************

---------------------------------
CARTESIAN COORDINATES (ANGSTROEM)
---------------------------------
  C     -3.616880    1.952227    0.009797
  C     -2.444983    2.692195    0.005774
  C     -1.201284    2.067844   -0.001496
  C     -1.179073    0.667884   -0.007466
  C     -2.342271   -0.065856   -0.007412
  C     -3.598055    0.558257    0.001652
  C      1.179251    0.667977    0.000126
  C      1.201353    2.067941   -0.005643
  C      2.445018    2.692375   -0.011503
  H      2.493039    3.773218   -0.005578
  C      3.616969    1.952486   -0.014212
  C      3.598272    0.558521   -0.005849
  C      2.342496   -0.065669    0.001569
  H     -2.493083    3.773036   -0.000066
  H     -2.255435   -1.144539    0.008968
  H      4.560733    2.481542    0.002652
  N      0.000009    2.769742   -0.004108
  C     -0.000044    4.199497   -0.000312
  C      0.001775    4.890818   -1.204080
  C     -0.001930    4.884000    1.207377
  C      0.001776    6.277619   -1.196838
  C     -0.002086    6.270783    1.208077
  H     -0.003319    4.325114    2.135186
  C     -0.000195    6.967253    0.007579
  H     -0.003588    6.807753    2.148079
  H     -0.000258    8.049872    0.010642
  H      2.255718   -1.144363   -0.014771
  H     -4.560716    2.481215   -0.006004
  C     -4.834654   -0.233440   -0.005498
  C     -4.869120   -1.530952   -0.529412
  C     -6.032429    0.275873    0.509717
  C     -6.033468   -2.273974   -0.540430
  H     -3.970005   -1.963388   -0.950840
  C     -7.195685   -0.469153    0.501814
  H     -6.051306    1.270622    0.937513
  C     -7.229003   -1.764530   -0.024544
  H     -6.010720   -3.277948   -0.946338
  H     -8.102323   -0.030705    0.900911
  C     -8.467750   -2.558484   -0.036717
  C     -8.695379   -3.522971   -1.024631
  C     -9.455683   -2.375528    0.936925
  C     -9.860272   -4.271718   -1.038720
  H     -7.958627   -3.672623   -1.804243
  C    -10.620037   -3.125784    0.923529
  H     -9.299101   -1.650844    1.726671
  C    -10.829540   -4.078093   -0.064372
  H    -10.014982   -5.005971   -1.819777
  H    -11.365155   -2.970702    1.694159
  H    -11.740028   -4.663873   -0.074568
  C      4.834938   -0.233068    0.003159
  C      4.868297   -1.531104    0.525852
  C      6.033853    0.276760   -0.508933
  C      6.032528   -2.274255    0.538459
  H      3.968293   -1.963903    0.944982
  C      7.197024   -0.468394   -0.499418
  H      6.053705    1.272004   -0.935571
  C      7.229144   -1.764378    0.025523
  H      6.008839   -3.278704    0.943159
  H      8.104569   -0.029596   -0.896074
  C      8.467738   -2.558542    0.039175
  C      8.693657   -3.523655    1.026873
  C      9.457146   -2.375299   -0.932887
  C      9.858297   -4.272772    1.042234
  H      7.955762   -3.673582    1.805356
  C     10.621263   -3.125912   -0.918215
  H      9.301986   -1.650169   -1.722500
  C     10.829034   -4.078888    0.069406
  H     10.011632   -5.007531    1.823086
  H     11.367546   -2.970557   -1.687664
  H     11.739315   -4.664971    0.080527
  O      0.000120   -0.035390   -0.004562
  H      0.003217    6.819937   -2.133763
  H      0.003219    4.337237   -2.135058

----------------------------
CARTESIAN COORDINATES (A.U.)
----------------------------
  NO LB      ZA    FRAG     MASS         X           Y           Z
   0 C     6.0000    0    12.011   -6.834913    3.689174    0.018514
   1 C     6.0000    0    12.011   -4.620348    5.087511    0.010911
   2 C     6.0000    0    12.011   -2.270098    3.907659   -0.002827
   3 C     6.0000    0    12.011   -2.228125    1.262118   -0.014109
   4 C     6.0000    0    12.011   -4.426251   -0.124450   -0.014007
   5 C     6.0000    0    12.011   -6.799339    1.054953    0.003122
   6 C     6.0000    0    12.011    2.228461    1.262294    0.000238
   7 C     6.0000    0    12.011    2.270228    3.907842   -0.010664
   8 C     6.0000    0    12.011    4.620414    5.087851   -0.021738
   9 H     1.0000    0     1.008    4.711161    7.130349   -0.010541
  10 C     6.0000    0    12.011    6.835081    3.689664   -0.026857
  11 C     6.0000    0    12.011    6.799749    1.055452   -0.011053
  12 C     6.0000    0    12.011    4.426676   -0.124096    0.002965
  13 H     1.0000    0     1.008   -4.711244    7.130005   -0.000125
  14 H     1.0000    0     1.008   -4.262154   -2.162865    0.016947
  15 H     1.0000    0     1.008    8.618536    4.689435    0.005012
  16 N     7.0000    0    14.007    0.000017    5.234054   -0.007763
  17 C     6.0000    0    12.011   -0.000083    7.935899   -0.000590
  18 C     6.0000    0    12.011    0.003354    9.242307   -2.275381
  19 C     6.0000    0    12.011   -0.003647    9.229422    2.281612
  20 C     6.0000    0    12.011    0.003356   11.862981   -2.261696
  21 C     6.0000    0    12.011   -0.003942   11.850063    2.282935
  22 H     1.0000    0     1.008   -0.006272    8.173281    4.034917
  23 C     6.0000    0    12.011   -0.000368   13.166200    0.014322
  24 H     1.0000    0     1.008   -0.006780   12.864789    4.059281
  25 H     1.0000    0     1.008   -0.000488   15.212053    0.020110
  26 H     1.0000    0     1.008    4.262689   -2.162533   -0.027913
  27 H     1.0000    0     1.008   -8.618504    4.688817   -0.011346
  28 C     6.0000    0    12.011   -9.136172   -0.441138   -0.010390
  29 C     6.0000    0    12.011   -9.201303   -2.893080   -1.000444
  30 C     6.0000    0    12.011  -11.399639    0.521324    0.963226
  31 C     6.0000    0    12.011  -11.401602   -4.297188   -1.021265
  32 H     1.0000    0     1.008   -7.502222   -3.710266   -1.796827
  33 C     6.0000    0    12.011  -13.597874   -0.886571    0.948291
  34 H     1.0000    0     1.008  -11.435311    2.401128    1.771643
  35 C     6.0000    0    12.011  -13.660836   -3.334478   -0.046381
  36 H     1.0000    0     1.008  -11.358615   -6.194424   -1.788320
  37 H     1.0000    0     1.008  -15.311172   -0.058024    1.702475
  38 C     6.0000    0    12.011  -16.001728   -4.834834   -0.069385
  39 C     6.0000    0    12.011  -16.431885   -6.657450   -1.936272
  40 C     6.0000    0    12.011  -17.868651   -4.489097    1.770532
  41 C     6.0000    0    12.011  -18.633214   -8.072377   -1.962896
  42 H     1.0000    0     1.008  -15.039625   -6.940252   -3.409525
  43 C     6.0000    0    12.011  -20.068961   -5.906876    1.745217
  44 H     1.0000    0     1.008  -17.572754   -3.119643    3.262935
  45 C     6.0000    0    12.011  -20.464865   -7.706479   -0.121645
  46 H     1.0000    0     1.008  -18.925573   -9.459914   -3.438880
  47 H     1.0000    0     1.008  -21.477030   -5.613813    3.201497
  48 H     1.0000    0     1.008  -22.185438   -8.813443   -0.140913
  49 C     6.0000    0    12.011    9.136709   -0.440435    0.005970
  50 C     6.0000    0    12.011    9.199748   -2.893367    0.993716
  51 C     6.0000    0    12.011   11.402330    0.523001   -0.961744
  52 C     6.0000    0    12.011   11.399826   -4.297719    1.017540
  53 H     1.0000    0     1.008    7.498987   -3.711239    1.785757
  54 C     6.0000    0    12.011   13.600404   -0.885136   -0.943763
  55 H     1.0000    0     1.008   11.439845    2.403739   -1.767973
  56 C     6.0000    0    12.011   13.661102   -3.334191    0.048231
  57 H     1.0000    0     1.008   11.355060   -6.195853    1.782312
  58 H     1.0000    0     1.008   15.315416   -0.055928   -1.693334
  59 C     6.0000    0    12.011   16.001706   -4.834944    0.074030
  60 C     6.0000    0    12.011   16.428631   -6.658743    1.940509
  61 C     6.0000    0    12.011   17.871416   -4.488665   -1.762901
  62 C     6.0000    0    12.011   18.629481   -8.074369    1.969537
  63 H     1.0000    0     1.008   15.034211   -6.942064    3.411628
  64 C     6.0000    0    12.011   20.071278   -5.907118   -1.735175
  65 H     1.0000    0     1.008   17.578206   -3.118367   -3.255053
  66 C     6.0000    0    12.011   20.463909   -7.707981    0.131158
  67 H     1.0000    0     1.008   18.919243   -9.462862    3.445133
  68 H     1.0000    0     1.008   21.481549   -5.613539   -3.189223
  69 H     1.0000    0     1.008   22.184090   -8.815518    0.152174
  70 O     8.0000    0    15.999    0.000227   -0.066877   -0.008621
  71 H     1.0000    0     1.008    0.006079   12.887813   -4.032228
  72 H     1.0000    0     1.008    0.006083    8.196190   -4.034675

--------------------------------
INTERNAL COORDINATES (ANGSTROEM)
--------------------------------
 C      0   0   0     0.000000000000     0.00000000     0.00000000
 C      1   0   0     1.385969481685     0.00000000     0.00000000
 C      2   1   0     1.391637246808   121.07378666     0.00000000
 C      3   2   1     1.400148910302   117.56687686     0.13313056
 C      4   3   2     1.375283235454   121.33426668     0.05874302
 C      1   2   3     1.394120899546   121.49384538   359.75477411
 C      4   3   2     2.358336222019    90.90588831   180.39845072
 C      7   4   3     1.400150342306    90.90597176   359.51372893
 C      8   7   4     1.391637449978   117.56593913   180.33713019
 H      9   8   7     1.081925465416   119.20250738   180.63468050
 C      9   8   7     1.385969775068   121.07383861     0.12572121
 C     11   9   8     1.394115468246   121.49554943   359.74249091
 C      7   4   3     1.375273596631   147.75839725   179.93249252
 H      2   1   3     1.081926514548   119.72174309   179.48957906
 H      5   4   3     1.082296544291   117.63765175   181.26508319
 H     11   9   8     1.082069837547   118.45454160   181.29060237
 N      8   7   4     1.391313913595   119.38753599     0.39370971
 C     17   8   7     1.429760040164   120.29479317   179.55421170
 C     18  17   8     1.388159008048   119.71649392    89.92799737
 C     18  17   8     1.388186095135   119.69611451   269.92725668
 C     19  18  17     1.386819909060   119.56941632   180.00274816
 C     20  18  17     1.386783185442   119.57292219   180.00518715
 H     20  18  17     1.083136663029   119.39246167     0.00000000
 C     21  19  18     1.387883009726   120.09407618     0.00000000
 H     22  20  18     1.082563068328   119.76578500   179.99795334
 H     24  21  19     1.082623334821   119.95698449   180.00415576
 H     13   7   4     1.082302251000   117.63534001     0.75751245
 H      1   2   3     1.082083347363   118.45520569   181.29105758
 C      6   1   2     1.468336592580   121.85541682   180.52060900
 C     29   6   1     1.399718248326   121.49129871   154.37369470
 C     29   6   1     1.399825410120   121.51015783   334.45426948
 C     30  29   6     1.381270919810   121.49267725   180.23109811
 H     30  29   6     1.083055971086   119.69094865   359.30393102
 C     31  29   6     1.381408961756   121.47998311   179.95354934
 H     31  29   6     1.083001076521   119.63625328   359.12527851
 C     32  30  29     1.398204380753   121.45497569   359.78777197
 H     32  30  29     1.083163223454   118.93944078   180.65110432
 H     34  31  29     1.083285524300   118.97130890   180.68530046
 C     36  32  30     1.471395686433   121.34556257   180.04019893
 C     39  36  32     1.399294181438   120.97854594   330.97937662
 C     39  36  32     1.399093726163   121.20869596   150.96266373
 C     40  39  36     1.384845215675   121.11027646   180.00218821
 H     40  39  36     1.083048522067   119.52394887   358.67060654
 C     41  39  36     1.385201702160   121.06345898   180.07887812
 H     41  39  36     1.083228307928   119.52328717   358.74390878
 C     42  40  39     1.387921151058   120.32277092   359.92391796
 H     42  40  39     1.083103268095   119.60510630   179.48225068
 H     44  41  39     1.083107500458   119.59273310   179.44938180
 H     46  42  40     1.082695970695   120.34411882   180.05223019
 C     12  11   9     1.468345015499   121.85599791   180.54219528
 C     50  12  11     1.399720776593   121.48679763   154.45477367
 C     50  12  11     1.399842842348   121.51632812   334.53513855
 C     51  50  12     1.381255286546   121.49582836   180.21800715
 H     51  50  12     1.083047612673   119.68886792   359.29656575
 C     52  50  12     1.381416589658   121.47846472   179.96519269
 H     52  50  12     1.083016483939   119.63651905   359.13468755
 C     53  51  50     1.398201611600   121.45365426   359.79181436
 H     53  51  50     1.083171755689   118.94039822   180.66288912
 H     55  52  50     1.083290170806   118.97278711   180.68532065
 C     57  53  51     1.471393194505   121.34511769   180.05023976
 C     60  57  53     1.399296193282   120.97871839   330.93855273
 C     60  57  53     1.399074951301   121.20892704   150.91342864
 C     61  60  57     1.384846045454   121.11124177   179.99099932
 H     61  60  57     1.083052592279   119.52713457   358.66067486
 C     62  60  57     1.385208840949   121.06315773   180.08918638
 H     62  60  57     1.083225199240   119.52766560   358.75001303
 C     63  61  60     1.387917737551   120.32227888   359.92465767
 H     63  61  60     1.083103068138   119.60511744   179.48436038
 H     65  62  60     1.083109069168   119.59046848   179.44997086
 H     67  63  61     1.082694997906   120.34607526   180.05553866
 O      7   4   3     1.372988357268    30.81419571   179.82541826
 H     21  19  18     1.082561474111   119.76421078   179.99846437
 H     19  18  17     1.083131591812   119.39472009     0.00000000

---------------------------
INTERNAL COORDINATES (A.U.)
---------------------------
 C      0   0   0     0.000000000000     0.00000000     0.00000000
 C      1   0   0     2.619102750357     0.00000000     0.00000000
 C      2   1   0     2.629813274230   121.07378666     0.00000000
 C      3   2   1     2.645897987180   117.56687686     0.13313056
 C      4   3   2     2.598908671581   121.33426668     0.05874302
 C      1   2   3     2.634506697717   121.49384538   359.75477411
 C      4   3   2     4.456609591323    90.90588831   180.39845072
 C      7   4   3     2.645900693275    90.90597176   359.51372893
 C      8   7   4     2.629813658167   117.56593913   180.33713019
 H      9   8   7     2.044542826951   119.20250738   180.63468050
 C      9   8   7     2.619103304772   121.07383861     0.12572121
 C     11   9   8     2.634496434048   121.49554943   359.74249091
 C      7   4   3     2.598890456845   147.75839725   179.93249252
 H      2   1   3     2.044544809523   119.72174309   179.48957906
 H      5   4   3     2.045244064400   117.63765175   181.26508319
 H     11   9   8     2.044815650740   118.45454160   181.29060237
 N      8   7   4     2.629202263008   119.38753599     0.39370971
 C     17   8   7     2.701854913134   120.29479317   179.55421170
 C     18  17   8     2.623240355547   119.71649392    89.92799737
 C     18  17   8     2.623291542723   119.69611451   269.92725668
 C     19  18  17     2.620709825194   119.56941632   180.00274816
 C     20  18  17     2.620640427613   119.57292219   180.00518715
 H     20  18  17     2.046831658735   119.39246167     0.00000000
 C     21  19  18     2.622718794304   120.09407618     0.00000000
 H     22  20  18     2.045747721838   119.76578500   179.99795334
 H     24  21  19     2.045861609004   119.95698449   180.00415576
 H     13   7   4     2.045254848517   117.63534001     0.75751245
 H      1   2   3     2.044841180593   118.45520569   181.29105758
 C      6   1   2     2.774754032392   121.85541682   180.52060900
 C     29   6   1     2.645084153988   121.49129871   154.37369470
 C     29   6   1     2.645286660432   121.51015783   334.45426948
 C     30  29   6     2.610223755190   121.49267725   180.23109811
 H     30  29   6     2.046679173061   119.69094865   359.30393102
 C     31  29   6     2.610484616664   121.47998311   179.95354934
 H     31  29   6     2.046575437367   119.63625328   359.12527851
 C     32  30  29     2.642223358872   121.45497569   359.78777197
 H     32  30  29     2.046881850664   118.93944078   180.65110432
 H     34  31  29     2.047112965767   118.97130890   180.68530046
 C     36  32  30     2.780534881992   121.34556257   180.04019893
 C     39  36  32     2.644282783707   120.97854594   330.97937662
 C     39  36  32     2.643903978136   121.20869596   150.96266373
 C     40  39  36     2.616978195498   121.11027646   180.00218821
 H     40  39  36     2.046665096455   119.52394887   358.67060654
 C     41  39  36     2.617651857325   121.06345898   180.07887812
 H     41  39  36     2.047004842494   119.52328717   358.74390878
 C     42  40  39     2.622790870976   120.32277092   359.92391796
 H     42  40  39     2.046768551455   119.60510630   179.48225068
 H     44  41  39     2.046776549461   119.59273310   179.44938180
 H     46  42  40     2.045998870914   120.34411882   180.05223019
 C     12  11   9     2.774769949402   121.85599791   180.54219528
 C     50  12  11     2.645088931720   121.48679763   154.45477367
 C     50  12  11     2.645319602568   121.51632812   334.53513855
 C     51  50  12     2.610194212603   121.49582836   180.21800715
 H     51  50  12     2.046663377949   119.68886792   359.29656575
 C     52  50  12     2.610499031309   121.47846472   179.96519269
 H     52  50  12     2.046604553167   119.63651905   359.13468755
 C     53  51  50     2.642218125931   121.45365426   359.79181436
 H     53  51  50     2.046897974251   118.94039822   180.66288912
 H     55  52  50     2.047121746392   118.97278711   180.68532065
 C     57  53  51     2.780530172930   121.34511769   180.05023976
 C     60  57  53     2.644286585542   120.97871839   330.93855273
 C     60  57  53     2.643868498787   121.20892704   150.91342864
 C     61  60  57     2.616979763552   121.11124177   179.99099932
 H     61  60  57     2.046672788041   119.52713457   358.66067486
 C     62  60  57     2.617665347679   121.06315773   180.08918638
 H     62  60  57     2.046998967926   119.52766560   358.75001303
 C     63  61  60     2.622784420383   120.32227888   359.92465767
 H     63  61  60     2.046768173591   119.60511744   179.48436038
 H     65  62  60     2.046779513895   119.59046848   179.44997086
 H     67  63  61     2.045997032609   120.34607526   180.05553866
 O      7   4   3     2.594571980299    30.81419571   179.82541826
 H     21  19  18     2.045744709204   119.76421078   179.99846437
 H     19  18  17     2.046822075523   119.39472009     0.00000000

---------------------
BASIS SET INFORMATION
---------------------
There are 4 groups of distinct atoms

 Group   1 Type C   : 11s6p2d1f contracted to 5s3p2d1f pattern {62111/411/11/1}
 Group   2 Type H   : 5s1p contracted to 3s1p pattern {311/1}
 Group   3 Type N   : 11s6p2d1f contracted to 5s3p2d1f pattern {62111/411/11/1}
 Group   4 Type O   : 11s6p2d1f contracted to 5s3p2d1f pattern {62111/411/11/1}

Atom   0C    basis set group =>   1
Atom   1C    basis set group =>   1
Atom   2C    basis set group =>   1
Atom   3C    basis set group =>   1
Atom   4C    basis set group =>   1
Atom   5C    basis set group =>   1
Atom   6C    basis set group =>   1
Atom   7C    basis set group =>   1
Atom   8C    basis set group =>   1
Atom   9H    basis set group =>   2
Atom  10C    basis set group =>   1
Atom  11C    basis set group =>   1
Atom  12C    basis set group =>   1
Atom  13H    basis set group =>   2
Atom  14H    basis set group =>   2
Atom  15H    basis set group =>   2
Atom  16N    basis set group =>   3
Atom  17C    basis set group =>   1
Atom  18C    basis set group =>   1
Atom  19C    basis set group =>   1
Atom  20C    basis set group =>   1
Atom  21C    basis set group =>   1
Atom  22H    basis set group =>   2
Atom  23C    basis set group =>   1
Atom  24H    basis set group =>   2
Atom  25H    basis set group =>   2
Atom  26H    basis set group =>   2
Atom  27H    basis set group =>   2
Atom  28C    basis set group =>   1
Atom  29C    basis set group =>   1
Atom  30C    basis set group =>   1
Atom  31C    basis set group =>   1
Atom  32H    basis set group =>   2
Atom  33C    basis set group =>   1
Atom  34H    basis set group =>   2
Atom  35C    basis set group =>   1
Atom  36H    basis set group =>   2
Atom  37H    basis set group =>   2
Atom  38C    basis set group =>   1
Atom  39C    basis set group =>   1
Atom  40C    basis set group =>   1
Atom  41C    basis set group =>   1
Atom  42H    basis set group =>   2
Atom  43C    basis set group =>   1
Atom  44H    basis set group =>   2
Atom  45C    basis set group =>   1
Atom  46H    basis set group =>   2
Atom  47H    basis set group =>   2
Atom  48H    basis set group =>   2
Atom  49C    basis set group =>   1
Atom  50C    basis set group =>   1
Atom  51C    basis set group =>   1
Atom  52C    basis set group =>   1
Atom  53H    basis set group =>   2
Atom  54C    basis set group =>   1
Atom  55H    basis set group =>   2
Atom  56C    basis set group =>   1
Atom  57H    basis set group =>   2
Atom  58H    basis set group =>   2
Atom  59C    basis set group =>   1
Atom  60C    basis set group =>   1
Atom  61C    basis set group =>   1
Atom  62C    basis set group =>   1
Atom  63H    basis set group =>   2
Atom  64C    basis set group =>   1
Atom  65H    basis set group =>   2
Atom  66C    basis set group =>   1
Atom  67H    basis set group =>   2
Atom  68H    basis set group =>   2
Atom  69H    basis set group =>   2
Atom  70O    basis set group =>   4
Atom  71H    basis set group =>   2
Atom  72H    basis set group =>   2
---------------------------------
AUXILIARY/J BASIS SET INFORMATION
---------------------------------
There are 4 groups of distinct atoms

 Group   1 Type C   : 12s5p4d2f1g contracted to 6s4p3d1f1g pattern {711111/2111/211/2/1}
 Group   2 Type H   : 5s2p1d contracted to 3s1p1d pattern {311/2/1}
 Group   3 Type N   : 12s5p4d2f1g contracted to 6s4p3d1f1g pattern {711111/2111/211/2/1}
 Group   4 Type O   : 12s5p4d2f1g contracted to 6s4p3d1f1g pattern {711111/2111/211/2/1}

Atom   0C    basis set group =>   1
Atom   1C    basis set group =>   1
Atom   2C    basis set group =>   1
Atom   3C    basis set group =>   1
Atom   4C    basis set group =>   1
Atom   5C    basis set group =>   1
Atom   6C    basis set group =>   1
Atom   7C    basis set group =>   1
Atom   8C    basis set group =>   1
Atom   9H    basis set group =>   2
Atom  10C    basis set group =>   1
Atom  11C    basis set group =>   1
Atom  12C    basis set group =>   1
Atom  13H    basis set group =>   2
Atom  14H    basis set group =>   2
Atom  15H    basis set group =>   2
Atom  16N    basis set group =>   3
Atom  17C    basis set group =>   1
Atom  18C    basis set group =>   1
Atom  19C    basis set group =>   1
Atom  20C    basis set group =>   1
Atom  21C    basis set group =>   1
Atom  22H    basis set group =>   2
Atom  23C    basis set group =>   1
Atom  24H    basis set group =>   2
Atom  25H    basis set group =>   2
Atom  26H    basis set group =>   2
Atom  27H    basis set group =>   2
Atom  28C    basis set group =>   1
Atom  29C    basis set group =>   1
Atom  30C    basis set group =>   1
Atom  31C    basis set group =>   1
Atom  32H    basis set group =>   2
Atom  33C    basis set group =>   1
Atom  34H    basis set group =>   2
Atom  35C    basis set group =>   1
Atom  36H    basis set group =>   2
Atom  37H    basis set group =>   2
Atom  38C    basis set group =>   1
Atom  39C    basis set group =>   1
Atom  40C    basis set group =>   1
Atom  41C    basis set group =>   1
Atom  42H    basis set group =>   2
Atom  43C    basis set group =>   1
Atom  44H    basis set group =>   2
Atom  45C    basis set group =>   1
Atom  46H    basis set group =>   2
Atom  47H    basis set group =>   2
Atom  48H    basis set group =>   2
Atom  49C    basis set group =>   1
Atom  50C    basis set group =>   1
Atom  51C    basis set group =>   1
Atom  52C    basis set group =>   1
Atom  53H    basis set group =>   2
Atom  54C    basis set group =>   1
Atom  55H    basis set group =>   2
Atom  56C    basis set group =>   1
Atom  57H    basis set group =>   2
Atom  58H    basis set group =>   2
Atom  59C    basis set group =>   1
Atom  60C    basis set group =>   1
Atom  61C    basis set group =>   1
Atom  62C    basis set group =>   1
Atom  63H    basis set group =>   2
Atom  64C    basis set group =>   1
Atom  65H    basis set group =>   2
Atom  66C    basis set group =>   1
Atom  67H    basis set group =>   2
Atom  68H    basis set group =>   2
Atom  69H    basis set group =>   2
Atom  70O    basis set group =>   4
Atom  71H    basis set group =>   2
Atom  72H    basis set group =>   2
---------------------------------
AUXILIARY/C BASIS SET INFORMATION
---------------------------------
There are 4 groups of distinct atoms

 Group   1 Type C   : 8s6p5d3f1g contracted to 8s6p4d3f1g pattern {11111111/111111/2111/111/1}
 Group   2 Type H   : 4s3p2d contracted to 4s2p1d pattern {1111/21/2}
 Group   3 Type N   : 8s6p5d3f1g contracted to 8s6p4d3f1g pattern {11111111/111111/2111/111/1}
 Group   4 Type O   : 8s6p5d3f1g contracted to 8s6p4d3f1g pattern {11111111/111111/2111/111/1}

Atom   0C    basis set group =>   1
Atom   1C    basis set group =>   1
Atom   2C    basis set group =>   1
Atom   3C    basis set group =>   1
Atom   4C    basis set group =>   1
Atom   5C    basis set group =>   1
Atom   6C    basis set group =>   1
Atom   7C    basis set group =>   1
Atom   8C    basis set group =>   1
Atom   9H    basis set group =>   2
Atom  10C    basis set group =>   1
Atom  11C    basis set group =>   1
Atom  12C    basis set group =>   1
Atom  13H    basis set group =>   2
Atom  14H    basis set group =>   2
Atom  15H    basis set group =>   2
Atom  16N    basis set group =>   3
Atom  17C    basis set group =>   1
Atom  18C    basis set group =>   1
Atom  19C    basis set group =>   1
Atom  20C    basis set group =>   1
Atom  21C    basis set group =>   1
Atom  22H    basis set group =>   2
Atom  23C    basis set group =>   1
Atom  24H    basis set group =>   2
Atom  25H    basis set group =>   2
Atom  26H    basis set group =>   2
Atom  27H    basis set group =>   2
Atom  28C    basis set group =>   1
Atom  29C    basis set group =>   1
Atom  30C    basis set group =>   1
Atom  31C    basis set group =>   1
Atom  32H    basis set group =>   2
Atom  33C    basis set group =>   1
Atom  34H    basis set group =>   2
Atom  35C    basis set group =>   1
Atom  36H    basis set group =>   2
Atom  37H    basis set group =>   2
Atom  38C    basis set group =>   1
Atom  39C    basis set group =>   1
Atom  40C    basis set group =>   1
Atom  41C    basis set group =>   1
Atom  42H    basis set group =>   2
Atom  43C    basis set group =>   1
Atom  44H    basis set group =>   2
Atom  45C    basis set group =>   1
Atom  46H    basis set group =>   2
Atom  47H    basis set group =>   2
Atom  48H    basis set group =>   2
Atom  49C    basis set group =>   1
Atom  50C    basis set group =>   1
Atom  51C    basis set group =>   1
Atom  52C    basis set group =>   1
Atom  53H    basis set group =>   2
Atom  54C    basis set group =>   1
Atom  55H    basis set group =>   2
Atom  56C    basis set group =>   1
Atom  57H    basis set group =>   2
Atom  58H    basis set group =>   2
Atom  59C    basis set group =>   1
Atom  60C    basis set group =>   1
Atom  61C    basis set group =>   1
Atom  62C    basis set group =>   1
Atom  63H    basis set group =>   2
Atom  64C    basis set group =>   1
Atom  65H    basis set group =>   2
Atom  66C    basis set group =>   1
Atom  67H    basis set group =>   2
Atom  68H    basis set group =>   2
Atom  69H    basis set group =>   2
Atom  70O    basis set group =>   4
Atom  71H    basis set group =>   2
Atom  72H    basis set group =>   2


           ************************************************************
           *        Program running with 8 parallel MPI-processes     *
           *              working on a common directory               *
           ************************************************************
------------------------------------------------------------------------------
                           ORCA GTO INTEGRAL CALCULATION
                           -- RI-GTO INTEGRALS CHOSEN --
------------------------------------------------------------------------------
------------------------------------------------------------------------------
                   ___                                                        
                  /   \      - P O W E R E D   B Y -                         
                 /     \                                                     
                 |  |  |   _    _      __       _____    __    __             
                 |  |  |  | |  | |    /  \     |  _  \  |  |  /  |          
                  \  \/   | |  | |   /    \    | | | |  |  | /  /          
                 / \  \   | |__| |  /  /\  \   | |_| |  |  |/  /          
                |  |  |   |  __  | /  /__\  \  |    /   |      \           
                |  |  |   | |  | | |   __   |  |    \   |  |\   \          
                \     /   | |  | | |  |  |  |  | |\  \  |  | \   \       
                 \___/    |_|  |_| |__|  |__|  |_| \__\ |__|  \__/        
                                                                              
                      - O R C A' S   B I G   F R I E N D -                    
                                      &                                       
                       - I N T E G R A L  F E E D E R -                       
                                                                              
 v1 FN, 2020, v2 2021                                                         
------------------------------------------------------------------------------


Reading SHARK input file POZ_5_M06L_def2TZVP_coords.SHARKINP.tmp ... ok
----------------------
SHARK INTEGRAL PACKAGE
----------------------

Number of atoms                             ...     73
Number of basis functions                   ...   1538
Number of shells                            ...    600
Maximum angular momentum                    ...      3
Integral batch strategy                     ... SHARK/LIBINT Hybrid
RI-J (if used) integral strategy            ... SPLIT-RIJ (Revised 2003 algorithm where possible)
Printlevel                                  ...      1
Contraction scheme used                     ... SEGMENTED contraction
Coulomb Range Separation                    ... NOT USED
Exchange Range Separation                   ... NOT USED
Finite Nucleus Model                        ... NOT USED
Auxiliary Coulomb fitting basis             ... AVAILABLE
   # of basis functions in Aux-J            ...   2475
   # of shells in Aux-J                     ...    805
   Maximum angular momentum in Aux-J        ...      4
Auxiliary J/K fitting basis                 ... NOT available
Auxiliary Correlation fitting basis         ... AVAILABLE
   # of basis functions in Aux-C            ...   3779
   # of shells in Aux-C                     ...   1171
   Maximum angular momentum in Aux-C        ...      4
Auxiliary 'external' fitting basis          ... NOT available
Integral threshold                          ...     2.500000e-11
Primitive cut-off                           ...     2.500000e-12
Primitive pair pre-selection threshold      ...     2.500000e-12

Calculating pre-screening integrals         ... done (  0.2 sec) Dimension = 600
Organizing shell pair data                  ... done (  0.5 sec)
Shell pair information
Total number of shell pairs                 ...    180300
Shell pairs after pre-screening             ...     73145
Total number of primitive shell pairs       ...    557040
Primitive shell pairs kept                  ...    146018
          la=0 lb=0:  18276 shell pairs
          la=1 lb=0:  21366 shell pairs
          la=1 lb=1:   6264 shell pairs
          la=2 lb=0:  10300 shell pairs
          la=2 lb=1:   6093 shell pairs
          la=2 lb=2:   1476 shell pairs
          la=3 lb=0:   4824 shell pairs
          la=3 lb=1:   2881 shell pairs
          la=3 lb=2:   1330 shell pairs
          la=3 lb=3:    335 shell pairs

Calculating one electron integrals          ... done (  0.1 sec)
Calculating RI/J V-Matrix + Cholesky decomp.... done (  0.2 sec)
Calculating RI/C V-Matrix + Cholesky decomp.... done (  0.5 sec)
Calculating Nuclear repulsion               ... done (  0.0 sec) ENN=   4215.978862362290 Eh

SHARK setup successfully completed in   2.2 seconds

Maximum memory used throughout the entire GTOINT-calculation: 148.3 MB


           ************************************************************
           *        Program running with 8 parallel MPI-processes     *
           *              working on a common directory               *
           ************************************************************
-------------------------------------------------------------------------------
                                 ORCA SCF
-------------------------------------------------------------------------------

------------
SCF SETTINGS
------------
Hamiltonian:
 Density Functional     Method          .... DFT(GTOs)
 Exchange Functional    Exchange        .... B88
   X-Alpha parameter    XAlpha          ....  0.666667
   Becke's b parameter  XBeta           ....  0.004200
 Correlation Functional Correlation     .... LYP
 LDA part of GGA corr.  LDAOpt          .... VWN-3
 Gradients option       PostSCFGGA      .... off
 Hybrid DFT is turned on
   Fraction HF Exchange ScalHFX         ....  0.530000
   Scaling of DF-GGA-X  ScalDFX         ....  0.470000
   Scaling of DF-GGA-C  ScalDFC         ....  0.730000
   Scaling of DF-LDA-C  ScalLDAC        ....  0.730000
   Perturbative correction              ....  0.270000
   Density functional embedding theory  .... OFF
   NL short-range parameter             ....  7.800000
 RI-approximation to the Coulomb term is turned on
   Number of AuxJ basis functions       .... 2475
   RIJ-COSX (HFX calculated with COS-X)).... on


General Settings:
 Integral files         IntName         .... POZ_5_M06L_def2TZVP_coords
 Hartree-Fock type      HFTyp           .... RHF
 Total Charge           Charge          ....    0
 Multiplicity           Mult            ....    1
 Number of Electrons    NEL             ....  296
 Basis Dimension        Dim             .... 1538
 Nuclear Repulsion      ENuc            ....   4215.9788623623 Eh

Convergence Acceleration:
 DIIS                   CNVDIIS         .... on
   Start iteration      DIISMaxIt       ....    12
   Startup error        DIISStart       ....  0.200000
   # of expansion vecs  DIISMaxEq       ....     5
   Bias factor          DIISBfac        ....   1.050
   Max. coefficient     DIISMaxC        ....  10.000
 Trust-Rad. Augm. Hess. CNVTRAH         .... auto
   Auto Start mean grad. ratio tolernc. ....  1.125000
   Auto Start start iteration           ....    20
   Auto Start num. interpolation iter.  ....    10
   Max. Number of Micro iterations      ....    16
   Max. Number of Macro iterations      .... Maxiter - #DIIS iter
   Number of Davidson start vectors     ....     2
   Converg. threshold I  (grad. norm)   ....   1.000e-05
   Converg. threshold II (energy diff.) ....   1.000e-08
   Grad. Scal. Fac. for Micro threshold ....   0.100
   Minimum threshold for Micro iter.    ....   0.010
   NR start threshold (gradient norm)   ....   0.001
   Initial trust radius                 ....   0.400
   Minimum AH scaling param. (alpha)    ....   1.000
   Maximum AH scaling param. (alpha)    .... 1000.000
   Orbital update algorithm             .... Taylor
   White noise on init. David. guess    .... on
   Maximum white noise                  ....   0.010
   Quad. conv. algorithm                .... NR
 SOSCF                  CNVSOSCF        .... on
   Start iteration      SOSCFMaxIt      ....   150
   Startup grad/error   SOSCFStart      ....  0.003300
 Level Shifting         CNVShift        .... on
   Level shift para.    LevelShift      ....    0.2500
   Turn off err/grad.   ShiftErr        ....    0.0010
 Zerner damping         CNVZerner       .... off
 Static damping         CNVDamp         .... on
   Fraction old density DampFac         ....    0.7000
   Max. Damping (<1)    DampMax         ....    0.9800
   Min. Damping (>=0)   DampMin         ....    0.0000
   Turn off err/grad.   DampErr         ....    0.1000
 Fernandez-Rico         CNVRico         .... off

SCF Procedure:
 Maximum # iterations   MaxIter         ....   125
 SCF integral mode      SCFMode         .... Direct
   Integral package                     .... SHARK and LIBINT hybrid scheme
 Reset frequency        DirectResetFreq ....    20
 Integral Threshold     Thresh          ....  2.500e-11 Eh
 Primitive CutOff       TCut            ....  2.500e-12 Eh

Convergence Tolerance:
 Convergence Check Mode ConvCheckMode   .... Total+1el-Energy
 Convergence forced     ConvForced      .... 1
 Energy Change          TolE            ....  1.000e-08 Eh
 1-El. energy change                    ....  1.000e-05 Eh
 Orbital Gradient       TolG            ....  1.000e-05
 Orbital Rotation angle TolX            ....  1.000e-05
 DIIS Error             TolErr          ....  5.000e-07


Diagonalization of the overlap matrix:
Smallest eigenvalue                        ... 4.272e-06
Time for diagonalization                   ...    0.345 sec
Threshold for overlap eigenvalues          ... 1.000e-08
Number of eigenvalues below threshold      ... 0
Time for construction of square roots      ...    0.190 sec
Total time needed                          ...    0.541 sec

Time for model grid setup =    0.712 sec

------------------------------
INITIAL GUESS: MODEL POTENTIAL
------------------------------
Loading Hartree-Fock densities                     ... done
Calculating cut-offs                               ... done
Initializing the effective Hamiltonian             ... done
Setting up the integral package (SHARK)            ... done
Starting the Coulomb interaction                   ... done (   1.5 sec)
Reading the grid                                   ... done
Mapping shells                                     ... done
Starting the XC term evaluation                    ... done (   0.5 sec)
  promolecular density results
     # of electrons  =    295.986807880
     EX              =   -239.581098644
     EC              =     -3.360129185
     EX+EC           =   -242.941227829
Transforming the Hamiltonian                       ... done (   0.2 sec)
Diagonalizing the Hamiltonian                      ... done (   0.3 sec)
Back transforming the eigenvectors                 ... done (   0.1 sec)
Now organizing SCF variables                       ... done
                      ------------------
                      INITIAL GUESS DONE (   3.2 sec)
                      ------------------
-------------------
DFT GRID GENERATION
-------------------

General Integration Accuracy     IntAcc      ... 4.388
Radial Grid Type                 RadialGrid  ... OptM3 with GC (2021)
Angular Grid (max. ang.)         AngularGrid ... 4 (Lebedev-302)
Angular grid pruning method      GridPruning ... 4 (adaptive)
Weight generation scheme         WeightScheme... Becke
Basis function cutoff            BFCut       ... 1.0000e-11
Integration weight cutoff        WCut        ... 1.0000e-14
Angular grids for H and He will be reduced by one unit
Partially contracted basis set               ... off
Rotationally invariant grid construction     ... off

Total number of grid points                  ...   354206
Total number of batches                      ...     5581
Average number of points per batch           ...       63
Average number of grid points per atom       ...     4852
Time for grid setup =    2.813 sec

--------------------
COSX GRID GENERATION
--------------------

GRIDX 1
-------
General Integration Accuracy     IntAcc      ... 3.816
Radial Grid Type                 RadialGrid  ... OptM3 with GC (2021)
Angular Grid (max. ang.)         AngularGrid ... 1 (Lebedev-50)
Angular grid pruning method      GridPruning ... 4 (adaptive)
Weight generation scheme         WeightScheme... Becke
Basis function cutoff            BFCut       ... 1.0000e-11
Integration weight cutoff        WCut        ... 1.0000e-14
Angular grids for H and He will be reduced by one unit
Partially contracted basis set               ... on
Rotationally invariant grid construction     ... off

Total number of grid points                  ...    44949
Total number of batches                      ...      729
Average number of points per batch           ...       61
Average number of grid points per atom       ...      616
UseSFitting                                  ... on

GRIDX 2
-------
General Integration Accuracy     IntAcc      ... 4.020
Radial Grid Type                 RadialGrid  ... OptM3 with GC (2021)
Angular Grid (max. ang.)         AngularGrid ... 2 (Lebedev-110)
Angular grid pruning method      GridPruning ... 4 (adaptive)
Weight generation scheme         WeightScheme... Becke
Basis function cutoff            BFCut       ... 1.0000e-11
Integration weight cutoff        WCut        ... 1.0000e-14
Angular grids for H and He will be reduced by one unit
Partially contracted basis set               ... on
Rotationally invariant grid construction     ... off

Total number of grid points                  ...    97822
Total number of batches                      ...     1566
Average number of points per batch           ...       62
Average number of grid points per atom       ...     1340
UseSFitting                                  ... on

GRIDX 3
-------
General Integration Accuracy     IntAcc      ... 4.338
Radial Grid Type                 RadialGrid  ... OptM3 with GC (2021)
Angular Grid (max. ang.)         AngularGrid ... 3 (Lebedev-194)
Angular grid pruning method      GridPruning ... 4 (adaptive)
Weight generation scheme         WeightScheme... Becke
Basis function cutoff            BFCut       ... 1.0000e-11
Integration weight cutoff        WCut        ... 1.0000e-14
Angular grids for H and He will be reduced by one unit
Partially contracted basis set               ... on
Rotationally invariant grid construction     ... off

Total number of grid points                  ...   214258
Total number of batches                      ...     3384
Average number of points per batch           ...       63
Average number of grid points per atom       ...     2935
UseSFitting                                  ... on

Time for X-Grid setup             =    3.992 sec


--------------------
CPCM SOLVATION MODEL
--------------------
CPCM parameters:
  Epsilon                                         ...      37.7810
  Refrac                                          ...       1.4380
  Rsolv                                           ...       1.3000
  Surface type                                    ... GAUSSIAN VDW
  Epsilon function type                           ...         CPCM
Solvent:                                     ... N,N-DIMETHYLACETAMIDE
SMD-CDS solvent descriptors:
  Soln                                       ...    1.4380
  Soln25                                     ...    1.4358
  Sola                                       ...    0.0000
  Solb                                       ...    0.7800
  Solg                                       ...   47.6200
  Solc                                       ...    0.0000
  Solh                                       ...    0.0000
Radii:
 Radius for C  used is    3.4960 Bohr (=   1.8500 Ang.)
 Radius for H  used is    2.2677 Bohr (=   1.2000 Ang.)
 Radius for N  used is    3.5716 Bohr (=   1.8900 Ang.)
 Radius for O  used is    4.3350 Bohr (=   2.2940 Ang.)
Calculating surface                               ...        done! (  0.0s)
GEPOL surface points                              ...         3975
GEPOL Volume                                      ...    3911.1986
GEPOL Surface-area                                ...    2061.3963
Calculating surface distance matrix               ...        done! (  0.1s)
Performing Cholesky decomposition & store         ...        done! (  0.5s)
Overall time for CPCM initialization              ...                 0.6s
--------------
SCF ITERATIONS
--------------
ITER       Energy         Delta-E        Max-DP      RMS-DP      [F,P]     Damp
               ***  Starting incremental Fock matrix formation  ***
  0  -1743.7080810948   0.000000000000 0.05221856  0.00048089  0.1548623 0.7000
  1  -1744.1229904512  -0.414909356347 0.06216975  0.00042543  0.0929628 0.7000
                               ***Turning on DIIS***
  2  -1744.3518861884  -0.228895737230 0.15710177  0.00100336  0.0538473 0.0000
  3  -1744.7405238174  -0.388637628974 0.02041718  0.00023222  0.0343766 0.0000
  4  -1744.7868851758  -0.046361358380 0.01863335  0.00011392  0.0087017 0.0000
                      *** Initiating the SOSCF procedure ***
                           *** Shutting down DIIS ***
                      *** Re-Reading the Fockian *** 
                      *** Removing any level shift *** 
ITER      Energy       Delta-E        Grad      Rot      Max-DP    RMS-DP
  5  -1744.78844782  -0.0015626415  0.001571  0.001571  0.003517  0.000040
               *** Restarting incremental Fock matrix formation ***
  6  -1744.78839477   0.0000530496  0.001343  0.006448  0.023049  0.000207
  7  -1744.78845155  -0.0000567785  0.000279  0.003365  0.013217  0.000087
  8  -1744.78846200  -0.0000104537  0.000195  0.000836  0.010985  0.000074
  9  -1744.78846734  -0.0000053372  0.000054  0.000262  0.001333  0.000014
 10  -1744.78846774  -0.0000004015  0.000033  0.000156  0.000944  0.000007
 11  -1744.78846780  -0.0000000613  0.000007  0.000039  0.000325  0.000002
 12  -1744.78846779   0.0000000112  0.000003  0.000014  0.000466  0.000002
                  ***Gradient check signals convergence***
              ***Rediagonalizing the Fockian in SOSCF/NRSCF***

               *****************************************************
               *                     SUCCESS                       *
               *           SCF CONVERGED AFTER  13 CYCLES          *
               *****************************************************

Old exchange energy                            =   -129.100811816 Eh
New exchange energy                            =   -129.100730405 Eh
Exchange energy change after final integration =      0.000081411 Eh
Total energy after final integration           =  -1744.788386476 Eh
Final COS-X integration done in                =    76.719 sec

SMD CDS free energy correction energy :                -7.35160     Kcal/mol
Total Energy after SMD CDS correction =             -1744.800101995 Eh

----------------
TOTAL SCF ENERGY
----------------

Total Energy       :        -1744.80010200 Eh          -47478.42453 eV

Components:
Nuclear Repulsion  :         4215.97886236 Eh          114722.61723 eV
Electronic Energy  :        -5960.77896436 Eh         -162201.04176 eV
One Electron Energy:       -10750.48844500 Eh         -292535.66281 eV
Two Electron Energy:         4789.70948064 Eh          130334.62105 eV
Max COSX asymmetry :            0.00000974 Eh               0.00026 eV
CPCM Dielectric    :           -0.03669351 Eh              -0.99848 eV
SMD CDS (Gcds)     :           -0.01171552 Eh              -0.31880 eV

Virial components:
Potential Energy   :        -3484.05962421 Eh          -94806.08222 eV
Kinetic Energy     :         1739.25952221 Eh           47327.65769 eV
Virial Ratio       :            2.00318560


DFT components:
N(Alpha)           :      148.000100814797 electrons
N(Beta)            :      148.000100814797 electrons
N(Total)           :      296.000201629594 electrons
E(X)               :     -114.686142104919 Eh       
E(C)               :       -7.361713918526 Eh       
E(XC)              :     -122.047856023445 Eh       
DFET-embed. en.    :        0.000000000000 Eh       
CPCM Solvation Model Properties:
Surface-charge          :           -0.09832176
Charge-correction       :            0.00053269 Eh               0.01450 eV
Free-energy (cav+disp)  :           -0.01171552 Eh              -0.31880 eV

---------------
SCF CONVERGENCE
---------------

  Last Energy change         ...   -9.8743e-08  Tolerance :   1.0000e-08
  Last MAX-Density change    ...    2.7756e-15  Tolerance :   1.0000e-07
  Last RMS-Density change    ...    1.0722e-17  Tolerance :   5.0000e-09
  Last Orbital Gradient      ...    7.7258e-07  Tolerance :   1.0000e-05
  Last Orbital Rotation      ...    4.4393e-06  Tolerance :   1.0000e-05

             **** THE GBW FILE WAS UPDATED (POZ_5_M06L_def2TZVP_coords.gbw) ****
             **** DENSITY POZ_5_M06L_def2TZVP_coords.scfp WAS UPDATED ****
             **** ENERGY FILE WAS UPDATED (POZ_5_M06L_def2TZVP_coords.en.tmp) ****
             **** THE GBW FILE WAS UPDATED (POZ_5_M06L_def2TZVP_coords.gbw) ****
             **** DENSITY POZ_5_M06L_def2TZVP_coords.scfp WAS UPDATED ****
----------------
ORBITAL ENERGIES
----------------

  NO   OCC          E(Eh)            E(eV) 
   0   2.0000     -19.773312      -538.0592 
   1   2.0000     -14.876795      -404.8182 
   2   2.0000     -10.684913      -290.7513 
   3   2.0000     -10.684894      -290.7507 
   4   2.0000     -10.670882      -290.3695 
   5   2.0000     -10.670865      -290.3690 
   6   2.0000     -10.659180      -290.0510 
   7   2.0000     -10.628441      -289.2146 
   8   2.0000     -10.628435      -289.2144 
   9   2.0000     -10.628181      -289.2075 
  10   2.0000     -10.628179      -289.2075 
  11   2.0000     -10.626451      -289.1604 
  12   2.0000     -10.626446      -289.1603 
  13   2.0000     -10.626096      -289.1508 
  14   2.0000     -10.626091      -289.1506 
  15   2.0000     -10.620850      -289.0080 
  16   2.0000     -10.620845      -289.0079 
  17   2.0000     -10.619904      -288.9823 
  18   2.0000     -10.619424      -288.9692 
  19   2.0000     -10.618722      -288.9501 
  20   2.0000     -10.617230      -288.9095 
  21   2.0000     -10.617227      -288.9094 
  22   2.0000     -10.616886      -288.9002 
  23   2.0000     -10.616886      -288.9001 
  24   2.0000     -10.614994      -288.8487 
  25   2.0000     -10.614991      -288.8486 
  26   2.0000     -10.614867      -288.8452 
  27   2.0000     -10.614865      -288.8452 
  28   2.0000     -10.614844      -288.8446 
  29   2.0000     -10.614842      -288.8445 
  30   2.0000     -10.614689      -288.8404 
  31   2.0000     -10.614688      -288.8403 
  32   2.0000     -10.614643      -288.8391 
  33   2.0000     -10.614640      -288.8390 
  34   2.0000     -10.613927      -288.8196 
  35   2.0000     -10.613925      -288.8196 
  36   2.0000     -10.613878      -288.8183 
  37   2.0000     -10.613874      -288.8182 
  38   2.0000     -10.613815      -288.8166 
  39   2.0000     -10.613809      -288.8164 
  40   2.0000     -10.613750      -288.8148 
  41   2.0000     -10.613749      -288.8148 
  42   2.0000     -10.612933      -288.7926 
  43   2.0000     -10.612932      -288.7926 
  44   2.0000      -1.241529       -33.7837 
  45   2.0000      -1.114561       -30.3288 
  46   2.0000      -1.008799       -27.4508 
  47   2.0000      -1.002629       -27.2829 
  48   2.0000      -0.995930       -27.1006 
  49   2.0000      -0.989632       -26.9292 
  50   2.0000      -0.981853       -26.7176 
  51   2.0000      -0.974576       -26.5196 
  52   2.0000      -0.961620       -26.1670 
  53   2.0000      -0.915429       -24.9101 
  54   2.0000      -0.903739       -24.5920 
  55   2.0000      -0.887519       -24.1506 
  56   2.0000      -0.876315       -23.8457 
  57   2.0000      -0.874106       -23.7856 
  58   2.0000      -0.867014       -23.5927 
  59   2.0000      -0.865833       -23.5605 
  60   2.0000      -0.864676       -23.5290 
  61   2.0000      -0.857508       -23.3340 
  62   2.0000      -0.855553       -23.2808 
  63   2.0000      -0.852425       -23.1957 
  64   2.0000      -0.838873       -22.8269 
  65   2.0000      -0.825575       -22.4650 
  66   2.0000      -0.802883       -21.8476 
  67   2.0000      -0.755805       -20.5665 
  68   2.0000      -0.752126       -20.4664 
  69   2.0000      -0.726622       -19.7724 
  70   2.0000      -0.721433       -19.6312 
  71   2.0000      -0.712563       -19.3898 
  72   2.0000      -0.711598       -19.3636 
  73   2.0000      -0.708694       -19.2846 
  74   2.0000      -0.696323       -18.9479 
  75   2.0000      -0.688439       -18.7334 
  76   2.0000      -0.678423       -18.4608 
  77   2.0000      -0.674857       -18.3638 
  78   2.0000      -0.672724       -18.3057 
  79   2.0000      -0.669529       -18.2188 
  80   2.0000      -0.651487       -17.7279 
  81   2.0000      -0.643227       -17.5031 
  82   2.0000      -0.619298       -16.8519 
  83   2.0000      -0.610015       -16.5993 
  84   2.0000      -0.609674       -16.5901 
  85   2.0000      -0.586479       -15.9589 
  86   2.0000      -0.585989       -15.9456 
  87   2.0000      -0.572345       -15.5743 
  88   2.0000      -0.565751       -15.3949 
  89   2.0000      -0.556567       -15.1450 
  90   2.0000      -0.554079       -15.0773 
  91   2.0000      -0.550723       -14.9859 
  92   2.0000      -0.548383       -14.9222 
  93   2.0000      -0.542999       -14.7758 
  94   2.0000      -0.537241       -14.6191 
  95   2.0000      -0.532350       -14.4860 
  96   2.0000      -0.522607       -14.2209 
  97   2.0000      -0.518807       -14.1174 
  98   2.0000      -0.513577       -13.9751 
  99   2.0000      -0.511562       -13.9203 
 100   2.0000      -0.508827       -13.8459 
 101   2.0000      -0.507274       -13.8036 
 102   2.0000      -0.504722       -13.7342 
 103   2.0000      -0.502980       -13.6868 
 104   2.0000      -0.500267       -13.6130 
 105   2.0000      -0.496761       -13.5175 
 106   2.0000      -0.495735       -13.4896 
 107   2.0000      -0.492848       -13.4111 
 108   2.0000      -0.492434       -13.3998 
 109   2.0000      -0.481046       -13.0899 
 110   2.0000      -0.480426       -13.0731 
 111   2.0000      -0.473864       -12.8945 
 112   2.0000      -0.457513       -12.4496 
 113   2.0000      -0.456334       -12.4175 
 114   2.0000      -0.455691       -12.4000 
 115   2.0000      -0.452792       -12.3211 
 116   2.0000      -0.448763       -12.2115 
 117   2.0000      -0.440212       -11.9788 
 118   2.0000      -0.437181       -11.8963 
 119   2.0000      -0.433884       -11.8066 
 120   2.0000      -0.428277       -11.6540 
 121   2.0000      -0.428190       -11.6516 
 122   2.0000      -0.424852       -11.5608 
 123   2.0000      -0.420282       -11.4365 
 124   2.0000      -0.419489       -11.4149 
 125   2.0000      -0.412240       -11.2176 
 126   2.0000      -0.411202       -11.1894 
 127   2.0000      -0.407660       -11.0930 
 128   2.0000      -0.404020       -10.9939 
 129   2.0000      -0.401433       -10.9235 
 130   2.0000      -0.398118       -10.8333 
 131   2.0000      -0.387178       -10.5357 
 132   2.0000      -0.386567       -10.5190 
 133   2.0000      -0.384918       -10.4741 
 134   2.0000      -0.343467        -9.3462 
 135   2.0000      -0.323782        -8.8106 
 136   2.0000      -0.309123        -8.4117 
 137   2.0000      -0.300342        -8.1727 
 138   2.0000      -0.299008        -8.1364 
 139   2.0000      -0.296670        -8.0728 
 140   2.0000      -0.296427        -8.0662 
 141   2.0000      -0.294907        -8.0248 
 142   2.0000      -0.293619        -7.9898 
 143   2.0000      -0.293442        -7.9850 
 144   2.0000      -0.279117        -7.5951 
 145   2.0000      -0.259893        -7.0720 
 146   2.0000      -0.246076        -6.6961 
 147   2.0000      -0.206053        -5.6070 
 148   0.0000      -0.008261        -0.2248 
 149   0.0000       0.003080         0.0838 
 150   0.0000       0.025546         0.6951 
 151   0.0000       0.032212         0.8765 
 152   0.0000       0.034942         0.9508 
 153   0.0000       0.035936         0.9779 
 154   0.0000       0.042185         1.1479 
 155   0.0000       0.043574         1.1857 
 156   0.0000       0.047371         1.2890 
 157   0.0000       0.052759         1.4356 
 158   0.0000       0.057880         1.5750 
 159   0.0000       0.063967         1.7406 
 160   0.0000       0.093071         2.5326 
 161   0.0000       0.095267         2.5924 
 162   0.0000       0.105223         2.8633 
 163   0.0000       0.105314         2.8657 
 164   0.0000       0.106923         2.9095 
 165   0.0000       0.110284         3.0010 
 166   0.0000       0.111266         3.0277 
 167   0.0000       0.113069         3.0768 
 168   0.0000       0.116904         3.1811 
 169   0.0000       0.119807         3.2601 
 170   0.0000       0.122419         3.3312 
 171   0.0000       0.129334         3.5194 
 172   0.0000       0.129558         3.5255 
 173   0.0000       0.131611         3.5813 
 174   0.0000       0.138568         3.7706 
 175   0.0000       0.139827         3.8049 
 176   0.0000       0.148714         4.0467 
 177   0.0000       0.149740         4.0746 
 178   0.0000       0.154465         4.2032 
 179   0.0000       0.156837         4.2678 
 180   0.0000       0.159651         4.3443 
 181   0.0000       0.160266         4.3611 
 182   0.0000       0.160329         4.3628 
 183   0.0000       0.163940         4.4610 
 184   0.0000       0.165215         4.4957 
 185   0.0000       0.166627         4.5342 
 186   0.0000       0.168929         4.5968 
 187   0.0000       0.171456         4.6656 
 188   0.0000       0.173104         4.7104 
 189   0.0000       0.176523         4.8034 
 190   0.0000       0.180716         4.9175 
 191   0.0000       0.185071         5.0360 
 192   0.0000       0.192754         5.2451 
 193   0.0000       0.195167         5.3108 
 194   0.0000       0.197138         5.3644 
 195   0.0000       0.197423         5.3722 
 196   0.0000       0.206067         5.6074 
 197   0.0000       0.206132         5.6091 
 198   0.0000       0.207772         5.6538 
 199   0.0000       0.214686         5.8419 
 200   0.0000       0.219609         5.9759 
 201   0.0000       0.221459         6.0262 
 202   0.0000       0.226171         6.1544 
 203   0.0000       0.231122         6.2891 
 204   0.0000       0.231422         6.2973 
 205   0.0000       0.235325         6.4035 
 206   0.0000       0.239218         6.5094 
 207   0.0000       0.240779         6.5519 
 208   0.0000       0.244659         6.6575 
 209   0.0000       0.246898         6.7184 
 210   0.0000       0.248996         6.7755 
 211   0.0000       0.249724         6.7953 
 212   0.0000       0.250117         6.8060 
 213   0.0000       0.251924         6.8552 
 214   0.0000       0.253306         6.8928 
 215   0.0000       0.256822         6.9885 
 216   0.0000       0.259138         7.0515 
 217   0.0000       0.261319         7.1108 
 218   0.0000       0.262221         7.1354 
 219   0.0000       0.264250         7.1906 
 220   0.0000       0.265763         7.2318 
 221   0.0000       0.266410         7.2494 
 222   0.0000       0.271005         7.3744 
 223   0.0000       0.271252         7.3811 
 224   0.0000       0.272880         7.4255 
 225   0.0000       0.275533         7.4976 
 226   0.0000       0.276448         7.5225 
 227   0.0000       0.277573         7.5531 
 228   0.0000       0.280446         7.6313 
 229   0.0000       0.283838         7.7236 
 230   0.0000       0.286922         7.8075 
 231   0.0000       0.292679         7.9642 
 232   0.0000       0.292958         7.9718 
 233   0.0000       0.294895         8.0245 
 234   0.0000       0.295789         8.0488 
 235   0.0000       0.296719         8.0741 
 236   0.0000       0.298247         8.1157 
 237   0.0000       0.301382         8.2010 
 238   0.0000       0.301757         8.2112 
 239   0.0000       0.304004         8.2724 
 240   0.0000       0.306851         8.3499 
 241   0.0000       0.308506         8.3949 
 242   0.0000       0.310559         8.4508 
 243   0.0000       0.313086         8.5195 
 244   0.0000       0.313598         8.5334 
 245   0.0000       0.318333         8.6623 
 246   0.0000       0.320810         8.7297 
 247   0.0000       0.325125         8.8471 
 248   0.0000       0.325801         8.8655 
 249   0.0000       0.329127         8.9560 
 250   0.0000       0.331295         9.0150 
 251   0.0000       0.332118         9.0374 
 252   0.0000       0.334803         9.1105 
 253   0.0000       0.340280         9.2595 
 254   0.0000       0.342411         9.3175 
 255   0.0000       0.346004         9.4153 
 256   0.0000       0.349020         9.4973 
 257   0.0000       0.349506         9.5105 
 258   0.0000       0.353865         9.6292 
 259   0.0000       0.356997         9.7144 
 260   0.0000       0.357016         9.7149 
 261   0.0000       0.361806         9.8453 
 262   0.0000       0.363748         9.8981 
 263   0.0000       0.368649        10.0314 
 264   0.0000       0.369258        10.0480 
 265   0.0000       0.375077        10.2064 
 266   0.0000       0.375768        10.2252 
 267   0.0000       0.379857        10.3364 
 268   0.0000       0.383591        10.4380 
 269   0.0000       0.384020        10.4497 
 270   0.0000       0.385497        10.4899 
 271   0.0000       0.386949        10.5294 
 272   0.0000       0.390201        10.6179 
 273   0.0000       0.390855        10.6357 
 274   0.0000       0.395853        10.7717 
 275   0.0000       0.400794        10.9062 
 276   0.0000       0.401040        10.9129 
 277   0.0000       0.402259        10.9460 
 278   0.0000       0.403770        10.9872 
 279   0.0000       0.403955        10.9922 
 280   0.0000       0.405780        11.0418 
 281   0.0000       0.406497        11.0613 
 282   0.0000       0.406970        11.0742 
 283   0.0000       0.409721        11.1491 
 284   0.0000       0.410648        11.1743 
 285   0.0000       0.415845        11.3157 
 286   0.0000       0.417238        11.3536 
 287   0.0000       0.419668        11.4197 
 288   0.0000       0.421608        11.4725 
 289   0.0000       0.424002        11.5377 
 290   0.0000       0.427780        11.6405 
 291   0.0000       0.431228        11.7343 
 292   0.0000       0.432197        11.7607 
 293   0.0000       0.436597        11.8804 
 294   0.0000       0.439475        11.9587 
 295   0.0000       0.439901        11.9703 
 296   0.0000       0.440493        11.9864 
 297   0.0000       0.441462        12.0128 
 298   0.0000       0.446161        12.1407 
 299   0.0000       0.446810        12.1583 
 300   0.0000       0.446952        12.1622 
 301   0.0000       0.450244        12.2518 
 302   0.0000       0.451870        12.2960 
 303   0.0000       0.452893        12.3238 
 304   0.0000       0.457584        12.4515 
 305   0.0000       0.460689        12.5360 
 306   0.0000       0.462588        12.5877 
 307   0.0000       0.468862        12.7584 
 308   0.0000       0.474136        12.9019 
 309   0.0000       0.475761        12.9461 
 310   0.0000       0.476635        12.9699 
 311   0.0000       0.477870        13.0035 
 312   0.0000       0.480341        13.0707 
 313   0.0000       0.481077        13.0908 
 314   0.0000       0.482476        13.1288 
 315   0.0000       0.484907        13.1950 
 316   0.0000       0.487231        13.2582 
 317   0.0000       0.489133        13.3100 
 318   0.0000       0.490575        13.3492 
 319   0.0000       0.491920        13.3858 
 320   0.0000       0.494036        13.4434 
 321   0.0000       0.497047        13.5253 
 322   0.0000       0.500552        13.6207 
 323   0.0000       0.502582        13.6759 
 324   0.0000       0.503135        13.6910 
 325   0.0000       0.506886        13.7931 
 326   0.0000       0.507784        13.8175 
 327   0.0000       0.510977        13.9044 
[...]
   145a -> 156a  :     0.012345 
   146a -> 149a  :     0.097464 
   146a -> 151a  :     0.084686 
   146a -> 155a  :     0.043266 
   146a -> 157a  :     0.020611 
   146a -> 159a  :     0.010219 
   147a -> 154a  :     0.021222 
   147a -> 160a  :     0.020616 

STATE 21:  E=   0.190829 au      5.193 eV    41882.1 cm**-1 <S**2> =   0.000000
   141a -> 150a  :     0.024175 
   142a -> 149a  :     0.059866 
   143a -> 148a  :     0.067106 
   145a -> 149a  :     0.022183 
   145a -> 151a  :     0.128792 
   145a -> 155a  :     0.023578 
   146a -> 148a  :     0.010685 
   146a -> 150a  :     0.417815 
   146a -> 156a  :     0.015823 
   146a -> 158a  :     0.020635 
   147a -> 151a  :     0.035849 
   147a -> 157a  :     0.019651 

STATE 22:  E=   0.199367 au      5.425 eV    43756.1 cm**-1 <S**2> =   0.000000
   137a -> 149a  :     0.011975 
   141a -> 149a  :     0.022255 
   142a -> 148a  :     0.052008 
   142a -> 154a  :     0.010018 
   143a -> 149a  :     0.038281 
   145a -> 148a  :     0.012995 
   145a -> 150a  :     0.013835 
   145a -> 161a  :     0.011693 
   146a -> 149a  :     0.022316 
   146a -> 151a  :     0.018831 
   146a -> 159a  :     0.011005 
   147a -> 156a  :     0.052236 
   147a -> 158a  :     0.034165 
   147a -> 160a  :     0.037262 
   147a -> 161a  :     0.270145 
   147a -> 164a  :     0.123234 
   147a -> 165a  :     0.040969 
   147a -> 168a  :     0.059865 

STATE 23:  E=   0.195674 au      5.325 eV    42945.5 cm**-1 <S**2> =   0.000000
   135a -> 148a  :     0.020574 
   139a -> 148a  :     0.061679 
   139a -> 149a  :     0.016429 
   140a -> 148a  :     0.018269 
   140a -> 149a  :     0.065028 
   143a -> 157a  :     0.010291 
   144a -> 148a  :     0.018226 
   144a -> 150a  :     0.017637 
   144a -> 154a  :     0.014733 
   145a -> 150a  :     0.097536 
   145a -> 156a  :     0.010310 
   146a -> 151a  :     0.015592 
   146a -> 155a  :     0.011745 
   146a -> 157a  :     0.021259 
   146a -> 159a  :     0.031859 
   147a -> 153a  :     0.073687 
   147a -> 155a  :     0.024281 
   147a -> 156a  :     0.151344 
   147a -> 157a  :     0.063518 
   147a -> 158a  :     0.013055 
   147a -> 160a  :     0.020174 

STATE 24:  E=   0.191309 au      5.206 eV    41987.4 cm**-1 <S**2> =   0.000000
   137a -> 148a  :     0.018049 
   139a -> 148a  :     0.015963 
   139a -> 149a  :     0.074531 
   140a -> 148a  :     0.071987 
   140a -> 149a  :     0.014374 
   141a -> 148a  :     0.024471 
   142a -> 149a  :     0.037251 
   143a -> 148a  :     0.023378 
   143a -> 154a  :     0.013279 
   145a -> 150a  :     0.022882 
   145a -> 155a  :     0.010286 
   146a -> 150a  :     0.021424 
   146a -> 153a  :     0.013837 
   146a -> 156a  :     0.025699 
   147a -> 151a  :     0.022300 
   147a -> 153a  :     0.017365 
   147a -> 155a  :     0.100507 
   147a -> 156a  :     0.036306 
   147a -> 157a  :     0.269920 

STATE 25:  E=   0.195941 au      5.332 eV    43004.1 cm**-1 <S**2> =   0.000000
   137a -> 149a  :     0.012029 
   139a -> 148a  :     0.018971 
   140a -> 149a  :     0.010627 
   141a -> 149a  :     0.021764 
   142a -> 148a  :     0.045685 
   142a -> 154a  :     0.010672 
   143a -> 149a  :     0.033338 
   145a -> 148a  :     0.034836 
   145a -> 150a  :     0.054852 
   145a -> 153a  :     0.024044 
   146a -> 149a  :     0.040806 
   146a -> 151a  :     0.072104 
   147a -> 156a  :     0.065165 
   147a -> 158a  :     0.102977 
   147a -> 161a  :     0.213269 
   147a -> 164a  :     0.057193 
   147a -> 165a  :     0.029494 
   147a -> 168a  :     0.032000 

STATE 26:  E=   0.211222 au      5.748 eV    46357.9 cm**-1 <S**2> =   0.000000
   135a -> 149a  :     0.015394 
   136a -> 150a  :     0.018088 
   137a -> 150a  :     0.048035 
   137a -> 153a  :     0.027692 
   137a -> 156a  :     0.012253 
   138a -> 151a  :     0.011792 
   138a -> 152a  :     0.272928 
   141a -> 148a  :     0.056912 
   141a -> 150a  :     0.073875 
   141a -> 153a  :     0.032882 
   141a -> 156a  :     0.014014 
   141a -> 158a  :     0.014373 
   143a -> 148a  :     0.013462 
   144a -> 149a  :     0.034109 
   145a -> 151a  :     0.014572 
   146a -> 153a  :     0.020580 
   147a -> 159a  :     0.158674 
   147a -> 167a  :     0.013963 

STATE 27:  E=   0.195536 au      5.321 eV    42915.2 cm**-1 <S**2> =   0.000000
   135a -> 148a  :     0.029050 
   139a -> 148a  :     0.021350 
   139a -> 150a  :     0.010196 
   139a -> 153a  :     0.016761 
   140a -> 149a  :     0.013625 
   140a -> 151a  :     0.021051 
   142a -> 156a  :     0.011726 
   144a -> 148a  :     0.195380 
   144a -> 154a  :     0.034017 
   145a -> 148a  :     0.132723 
   145a -> 154a  :     0.063766 
   146a -> 149a  :     0.170457 
   146a -> 151a  :     0.018967 
   146a -> 155a  :     0.020126 
   146a -> 159a  :     0.031935 
   147a -> 148a  :     0.020262 
   147a -> 156a  :     0.011345 
   147a -> 158a  :     0.026016 
   147a -> 160a  :     0.020337 

STATE 28:  E=   0.202783 au      5.518 eV    44505.7 cm**-1 <S**2> =   0.000000
   135a -> 149a  :     0.017303 
   136a -> 148a  :     0.020551 
   136a -> 150a  :     0.018278 
   137a -> 148a  :     0.036445 
   137a -> 150a  :     0.024602 
   137a -> 153a  :     0.011358 
   138a -> 152a  :     0.159692 
   140a -> 148a  :     0.022336 
   141a -> 148a  :     0.030281 
   141a -> 150a  :     0.046351 
   141a -> 153a  :     0.019371 
   141a -> 156a  :     0.020082 
   144a -> 149a  :     0.063681 
   146a -> 148a  :     0.010778 
   147a -> 155a  :     0.013675 
   147a -> 159a  :     0.307179 
   147a -> 167a  :     0.016611 

STATE 29:  E=   0.202844 au      5.520 eV    44519.2 cm**-1 <S**2> =   0.000000
   136a -> 151a  :     0.011565 
   136a -> 155a  :     0.014059 
   139a -> 148a  :     0.025398 
   142a -> 148a  :     0.040467 
   143a -> 149a  :     0.024136 
   143a -> 151a  :     0.014244 
   144a -> 150a  :     0.226986 
   144a -> 156a  :     0.011506 
   144a -> 158a  :     0.021569 
   145a -> 148a  :     0.013553 
   145a -> 150a  :     0.056005 
   145a -> 153a  :     0.072679 
   145a -> 158a  :     0.050003 
   146a -> 149a  :     0.018933 
   146a -> 151a  :     0.127755 
   146a -> 157a  :     0.017719 
   147a -> 150a  :     0.018436 
   147a -> 153a  :     0.061945 
   147a -> 154a  :     0.012955 
   147a -> 156a  :     0.028378 
   147a -> 158a  :     0.015878 

STATE 30:  E=   0.201086 au      5.472 eV    44133.3 cm**-1 <S**2> =   0.000000
   137a -> 150a  :     0.011244 
   138a -> 152a  :     0.018253 
   139a -> 151a  :     0.010099 
   140a -> 148a  :     0.021300 
   141a -> 150a  :     0.022568 
   142a -> 149a  :     0.040700 
   143a -> 148a  :     0.070247 
   144a -> 151a  :     0.046825 
   145a -> 149a  :     0.042544 
   145a -> 151a  :     0.037124 
   145a -> 155a  :     0.064613 
   145a -> 157a  :     0.034833 
   146a -> 148a  :     0.015926 
   146a -> 150a  :     0.013094 
   146a -> 153a  :     0.188991 
   146a -> 158a  :     0.059378 
   147a -> 151a  :     0.045344 
   147a -> 155a  :     0.106672 


-------------------------
TD-DFT-EXCITATION SPECTRA
-------------------------

Center of mass = (  0.0000,  0.0112, -0.0001)
Calculating the Dipole integrals                  ... done
Transforming integrals                            ... done
Calculating the Linear Momentum integrals         ... done
Transforming integrals                            ... done
Calculating angular momentum integrals            ... done
Transforming integrals                            ... done

-----------------------------------------------------------------------------
         ABSORPTION SPECTRUM VIA TRANSITION ELECTRIC DIPOLE MOMENTS
-----------------------------------------------------------------------------
State   Energy    Wavelength  fosc         T2        TX        TY        TZ  
        (cm-1)      (nm)                 (au**2)    (au)      (au)      (au) 
-----------------------------------------------------------------------------
   1   24054.1    415.7   1.033962036  14.15115  -3.76176   0.00125  -0.01805
   2   29407.4    340.1   0.620016214   6.94099   0.00071   2.63458  -0.00154
   3   28959.8    345.3   0.314014458   3.56968  -1.88889  -0.00186  -0.04194
   4   32040.5    312.1   0.116347342   1.19546  -0.00274   1.09336  -0.00091
   5   30807.4    324.6   0.000983485   0.01051  -0.02162  -0.10021  -0.00007
   6   34641.0    288.7   0.882791518   8.38963  -2.89639   0.00085  -0.02360
   7   34377.7    290.9   0.000071556   0.00069   0.01962  -0.00478  -0.01666
   8   34510.6    289.8   0.034109739   0.32539  -0.00025  -0.57043   0.00090
   9   34217.4    292.2   0.011906572   0.11456   0.00064   0.33846  -0.00071
  10   34473.5    290.1   0.006877219   0.06568  -0.25517   0.00049  -0.02371
  11   38551.0    259.4   0.000108694   0.00093  -0.00107  -0.03040  -0.00170
  12   38528.5    259.5   0.000298429   0.00255   0.03296  -0.00116   0.03824
  13   35182.5    284.2   0.051439771   0.48134  -0.69301  -0.00031  -0.03277
  14   38477.4    259.9   0.246721446   2.11095   1.44928   0.00025   0.10265
  15   41859.6    238.9   0.002726895   0.02145   0.00133   0.14644   0.00068
  16   38962.7    256.7   0.025589935   0.21622   0.00255  -0.46499  -0.00154
  17   39803.1    251.2   0.121953270   1.00868  -0.99548  -0.00204   0.13300
  18   41766.8    239.4   0.019097726   0.15053  -0.36025  -0.00086   0.14406
  19   40452.6    247.2   0.065508179   0.53312  -0.02898   0.72957  -0.00329
  20   42964.5    232.8   0.138514309   1.06136   1.02781   0.01800   0.06806
  21   41882.1    238.8   0.045516422   0.35778  -0.00065  -0.59814  -0.00315
  22   43756.1    228.5   0.060276575   0.45351  -0.10886  -0.00088   0.66457
  23   42945.5    232.9   0.206450009   1.58261  -1.03178  -0.24945   0.67514
  24   41987.4    238.2   0.079421853   0.62273   0.50270  -0.50932  -0.33259
  25   43004.1    232.5   0.023745707   0.18178  -0.02343  -0.00355   0.42570
  26   46357.9    215.7   0.024745155   0.17573   0.00096   0.41920  -0.00065
  27   42915.2    233.0   0.210357539   1.61370   1.24930   0.01051  -0.22989
  28   44505.7    224.7   0.043119162   0.31896  -0.02331   0.56426   0.00447
  29   44519.2    224.6   0.287915625   2.12909  -1.45579  -0.00622  -0.09866
  30   44133.3    226.6   0.294547499   2.19718  -0.00769   1.48227   0.00064

-----------------------------------------------------------------------------
         ABSORPTION SPECTRUM VIA TRANSITION VELOCITY DIPOLE MOMENTS
-----------------------------------------------------------------------------
State   Energy    Wavelength   fosc        P2         PX        PY        PZ  
        (cm-1)      (nm)                 (au**2)     (au)      (au)      (au) 
-----------------------------------------------------------------------------
   1   24054.1    415.7   1.372243957   0.22559   0.47496  -0.00016   0.00219
   2   29407.4    340.1   0.773966547   0.15556  -0.00010  -0.39441   0.00024
   3   28959.8    345.3   0.436218635   0.08634   0.29376   0.00029   0.00658
   4   32040.5    312.1   0.146290041   0.03203   0.00045  -0.17898   0.00014
   5   30807.4    324.6   0.001412165   0.00030   0.00363   0.01686   0.00001
   6   34641.0    288.7   1.018605658   0.24116   0.49106  -0.00014   0.00403
   7   34377.7    290.9   0.000146088   0.00003  -0.00521   0.00086   0.00253
   8   34510.6    289.8   0.044361842   0.01046   0.00006   0.10229  -0.00016
   9   34217.4    292.2   0.016394260   0.00383  -0.00011  -0.06192   0.00014
  10   34473.5    290.1   0.008921246   0.00210   0.04560  -0.00009   0.00471
  11   38551.0    259.4   0.000130323   0.00003   0.00021   0.00585   0.00035
  12   38528.5    259.5   0.000395267   0.00010  -0.00649   0.00022  -0.00787
  13   35182.5    284.2   0.078600860   0.01890   0.13731   0.00006   0.00685
  14   38477.4    259.9   0.312837365   0.08227  -0.28613  -0.00005  -0.01992
  15   41859.6    238.9   0.003052076   0.00087  -0.00026  -0.02955  -0.00013
  16   38962.7    256.7   0.034283541   0.00913  -0.00052   0.09555   0.00030
  17   39803.1    251.2   0.158051433   0.04300   0.20593   0.00042  -0.02425
  18   41766.8    239.4   0.022443258   0.00641   0.07457   0.00018  -0.02909
  19   40452.6    247.2   0.087064467   0.02407   0.00621  -0.15502   0.00059
  20   42964.5    232.8   0.165567018   0.04862  -0.22009  -0.00383  -0.01283
  21   41882.1    238.8   0.057168068   0.01636   0.00014   0.12792   0.00060
  22   43756.1    228.5   0.059630927   0.01783   0.02280   0.00016  -0.13158
  23   42945.5    232.9   0.260567295   0.07648   0.22619   0.05471  -0.14941
  24   41987.4    238.2   0.104705337   0.03005  -0.11021   0.11172   0.07361
  25   43004.1    232.5   0.037595087   0.01105   0.00556   0.00080  -0.10497
  26   46357.9    215.7   0.027007164   0.00856  -0.00021  -0.09250   0.00019
  27   42915.2    233.0   0.273880478   0.08033  -0.27843  -0.00234   0.05291
  28   44505.7    224.7   0.052012919   0.01582   0.00519  -0.12567  -0.00106
  29   44519.2    224.6   0.354566979   0.10788   0.32775   0.00140   0.02153
  30   44133.3    226.6   0.374731010   0.11303   0.00174  -0.33619  -0.00016

-------------------------------------------------------------------
                             CD SPECTRUM
-------------------------------------------------------------------
State  Energy     Wavelength     R         MX        MY        MZ   
       (cm-1)       (nm)     (1e40*cgs)   (au)      (au)      (au)  
-------------------------------------------------------------------
   1   24054.1    415.7     37.59574  -0.02990   0.00202   1.81284
   2   29407.4    340.1     56.52394   0.00091   0.04551  -0.00041
   3   28959.8    345.3     -2.63111  -0.00202   0.00128   0.22410
   4   32040.5    312.1     -7.90198   0.00030  -0.01533   0.00000
   5   30807.4    324.6      7.36138  -0.00028  -0.15576   0.00607
   6   34641.0    288.7     41.91274  -0.03686   0.00295   0.75655
   7   34377.7    290.9     -3.04371  -0.06904   0.00101   0.30593
   8   34510.6    289.8    -20.40507   0.00063   0.07587  -0.00352
   9   34217.4    292.2     25.57994  -0.00014   0.16031  -0.00059
  10   34473.5    290.1     -9.03692   0.05972   0.00002   0.16575
  11   38551.0    259.4     -3.52370   0.00557   0.24502   0.01147
  12   38528.5    259.5     -7.09531  -0.13963   0.00987  -0.27292
  13   35182.5    284.2    -11.00167   0.00669   0.00054   0.57060
  14   38477.4    259.9    -37.92385  -0.03170  -0.00130  -0.33612
  15   41859.6    238.9     -3.27554   0.00069  -0.04744  -0.00153
  16   38962.7    256.7      3.68279  -0.00054  -0.01681   0.00270
  17   39803.1    251.2    -84.09642   0.08826   0.00098  -0.68059
  18   41766.8    239.4    -39.90398   0.14106   0.00051  -0.23479
  19   40452.6    247.2    -158.21033   0.00528  -0.45970   0.01447
  20   42964.5    232.8    -101.84609  -0.17481  -0.01412  -0.53040
  21   41882.1    238.8    152.24435   0.00252  -0.53991   0.00426
  22   43756.1    228.5    -192.49035  -0.38489  -0.00776  -0.67743
  23   42945.5    232.9    -16.39967  -0.43961  -0.97676  -1.08425
  24   41987.4    238.2    450.55482   0.21850  -2.00834   0.53231
  25   43004.1    232.5    -291.35472  -0.61835  -0.00272  -1.48578
  26   46357.9    215.7     84.07818   0.00285   0.42543   0.00603
  27   42915.2    233.0     46.67191   0.11674   0.00686   0.20407
  28   44505.7    224.7    123.70345  -0.00290   0.46492  -0.00330
  29   44519.2    224.6     58.02490  -0.20027   0.00121   1.70762
  30   44133.3    226.6    -475.39172  -0.00061  -0.68029   0.00556

Total run time:    33653.947 sec

           *** ORCA-CIS/TD-DFT FINISHED WITHOUT ERROR ***

Maximum memory used throughout the entire CIS-calculation: 4669.8 MB

-----------------------
CIS/TD-DFT TOTAL ENERGY
-----------------------

    E(SCF)  =  -1744.800101995 Eh
    DE(CIS) =      0.109598357 Eh (Root  1)
    ----------------------------- ---------
    E(tot)  =  -1744.690503639 Eh



-------------------------------------------------------------------------------
                          DFT DISPERSION CORRECTION                            
                                                                               
                              DFTD3 V3.1  Rev 1                                
                          USING Becke-Johnson damping                          
-------------------------------------------------------------------------------
The B2PLYP functional is recognized
Active option DFTDOPT                   ...         4   

molecular C6(AA) [au] = 71897.808707 


            DFT-D V3
 parameters
 s6 scaling factor         :     0.6400 
 a1 scaling factor         :     0.3065 
 s8 scaling factor         :     0.9147 
 a2 scaling factor         :     5.0570 
 ad hoc parameters k1-k3   :    16.0000     1.3333    -4.0000 

 Edisp/kcal,au: -54.821215838796  -0.087363159055 
 E6   /kcal   : -30.567871956 
 E8   /kcal   : -24.253343882 
 % E8         :  44.240798952 

-------------------------   ----------------
Dispersion correction           -0.087363159
-------------------------   ----------------


-------------------------   --------------------
FINAL SINGLE POINT ENERGY     -1744.777866797655
-------------------------   --------------------


                            ***************************************
                            *     ORCA property calculations      *
                            ***************************************


  WARNING: The energy has been calculated at the MP2 level but the densities
           used in the property calculations are still SCF densities
           MP2 response densities have not been calculated 
           use %mp2 Density relaxed end
           or  %mp2 Density unrelaxed end

                                    ---------------------
                                    Active property flags
                                    ---------------------
   (+) Dipole Moment


------------------------------------------------------------------------------
                       ORCA ELECTRIC PROPERTIES CALCULATION
------------------------------------------------------------------------------

Dipole Moment Calculation                       ... on
Quadrupole Moment Calculation                   ... off
Polarizability Calculation                      ... off
GBWName                                         ... POZ_5_M06L_def2TZVP_coords.gbw
Electron density                                ... POZ_5_M06L_def2TZVP_coords.scfp
The origin for moment calculation is the CENTER OF MASS  = ( 0.000004,  0.011184 -0.000097)

-------------
DIPOLE MOMENT
-------------
                                X             Y             Z
Electronic contribution:      0.00077       4.81517      -0.02571
Nuclear contribution   :     -0.00106      -3.31033       0.02858
                        -----------------------------------------
Total Dipole Moment    :     -0.00028       1.50484       0.00287
                        -----------------------------------------
Magnitude (a.u.)       :      1.50484
Magnitude (Debye)      :      3.82501



--------------------
Rotational spectrum 
--------------------
 
Rotational constants in cm-1:     0.003126     0.000782     0.000637 
Rotational constants in MHz :    93.711609    23.448179    19.093811 

 Dipole components along the rotational axes: 
x,y,z [a.u.] :     0.000284     1.504841     0.002883 
x,y,z [Debye]:     0.000723     3.825002     0.007328 

 

Timings for individual modules:

Sum of individual times         ...    36113.575 sec (= 601.893 min)
GTO integral calculation        ...        2.609 sec (=   0.043 min)   0.0 %
SCF iterations                  ...      565.099 sec (=   9.418 min)   1.6 %
MP2 module                      ...     1890.166 sec (=  31.503 min)   5.2 %
CIS module                      ...    33655.700 sec (= 560.928 min)  93.2 %
                             ****ORCA TERMINATED NORMALLY****
TOTAL RUN TIME: 0 days 10 hours 1 minutes 57 seconds 835 msec
