
                                 *****************
                                 * O   R   C   A *
                                 *****************

                                            #,                                       
                                            ###                                      
                                            ####                                     
                                            #####                                    
                                            ######                                   
                                           ########,                                 
                                     ,,################,,,,,                         
                               ,,#################################,,                 
                          ,,##########################################,,             
                       ,#########################################, ''#####,          
                    ,#############################################,,   '####,        
                  ,##################################################,,,,####,       
                ,###########''''           ''''###############################       
              ,#####''   ,,,,##########,,,,          '''####'''          '####       
            ,##' ,,,,###########################,,,                        '##       
           ' ,,###''''                  '''############,,,                           
         ,,##''                                '''############,,,,        ,,,,,,###''
      ,#''                                            '''#######################'''  
     '                                                          ''''####''''         
             ,#######,   #######,   ,#######,      ##                                
            ,#'     '#,  ##    ##  ,#'     '#,    #''#        ######   ,####,        
            ##       ##  ##   ,#'  ##            #'  '#       #        #'  '#        
            ##       ##  #######   ##           ,######,      #####,   #    #        
            '#,     ,#'  ##    ##  '#,     ,#' ,#      #,         ##   #,  ,#        
             '#######'   ##     ##  '#######'  #'      '#     #####' # '####'        



                  #######################################################
                  #                        -***-                        #
                  #          Department of theory and spectroscopy      #
                  #    Directorship and core code : Frank Neese         #
                  #        Max Planck Institute fuer Kohlenforschung    #
                  #                Kaiser Wilhelm Platz 1               #
                  #                 D-45470 Muelheim/Ruhr               #
                  #                      Germany                        #
                  #                                                     #
                  #                  All rights reserved                #
                  #                        -***-                        #
                  #######################################################


                         Program Version 5.0.2 -  RELEASE  -


 With contributions from (in alphabetic order):
   Daniel Aravena         : Magnetic Suceptibility
   Michael Atanasov       : Ab Initio Ligand Field Theory (pilot matlab implementation)
   Alexander A. Auer      : GIAO ZORA, VPT2 properties, NMR spectrum
   Ute Becker             : Parallelization
   Giovanni Bistoni       : ED, misc. LED, open-shell LED, HFLD
   Martin Brehm           : Molecular dynamics
   Dmytro Bykov           : SCF Hessian
   Vijay G. Chilkuri      : MRCI spin determinant printing, contributions to CSF-ICE
   Dipayan Datta          : RHF DLPNO-CCSD density
   Achintya Kumar Dutta   : EOM-CC, STEOM-CC
   Dmitry Ganyushin       : Spin-Orbit,Spin-Spin,Magnetic field MRCI
   Miquel Garcia          : C-PCM and meta-GGA Hessian, CC/C-PCM, Gaussian charge scheme
   Yang Guo               : DLPNO-NEVPT2, F12-NEVPT2, CIM, IAO-localization
   Andreas Hansen         : Spin unrestricted coupled pair/coupled cluster methods
   Benjamin Helmich-Paris : MC-RPA, TRAH-SCF, COSX integrals
   Lee Huntington         : MR-EOM, pCC
   Robert Izsak           : Overlap fitted RIJCOSX, COSX-SCS-MP3, EOM
   Marcus Kettner         : VPT2
   Christian Kollmar      : KDIIS, OOCD, Brueckner-CCSD(T), CCSD density, CASPT2, CASPT2-K
   Simone Kossmann        : Meta GGA functionals, TD-DFT gradient, OOMP2, MP2 Hessian
   Martin Krupicka        : Initial AUTO-CI
   Lucas Lang             : DCDCAS
   Marvin Lechner         : AUTO-CI (C++ implementation), FIC-MRCC
   Dagmar Lenk            : GEPOL surface, SMD
   Dimitrios Liakos       : Extrapolation schemes; Compound Job, initial MDCI parallelization
   Dimitrios Manganas     : Further ROCIS development; embedding schemes
   Dimitrios Pantazis     : SARC Basis sets
   Anastasios Papadopoulos: AUTO-CI, single reference methods and gradients
   Taras Petrenko         : DFT Hessian,TD-DFT gradient, ASA, ECA, R-Raman, ABS, FL, XAS/XES, NRVS
   Peter Pinski           : DLPNO-MP2, DLPNO-MP2 Gradient
   Christoph Reimann      : Effective Core Potentials
   Marius Retegan         : Local ZFS, SOC
   Christoph Riplinger    : Optimizer, TS searches, QM/MM, DLPNO-CCSD(T), (RO)-DLPNO pert. Triples
   Tobias Risthaus        : Range-separated hybrids, TD-DFT gradient, RPA, STAB
   Michael Roemelt        : Original ROCIS implementation
   Masaaki Saitow         : Open-shell DLPNO-CCSD energy and density
   Barbara Sandhoefer     : DKH picture change effects
   Avijit Sen             : IP-ROCIS
   Kantharuban Sivalingam : CASSCF convergence, NEVPT2, FIC-MRCI
   Bernardo de Souza      : ESD, SOC TD-DFT
   Georgi Stoychev        : AutoAux, RI-MP2 NMR, DLPNO-MP2 response
   Willem Van den Heuvel  : Paramagnetic NMR
   Boris Wezisla          : Elementary symmetry handling
   Frank Wennmohs         : Technical directorship


 We gratefully acknowledge several colleagues who have allowed us to
 interface, adapt or use parts of their codes:
   Stefan Grimme, W. Hujo, H. Kruse, P. Pracht,  : VdW corrections, initial TS optimization,
                  C. Bannwarth, S. Ehlert          DFT functionals, gCP, sTDA/sTD-DF
   Ed Valeev, F. Pavosevic, A. Kumar             : LibInt (2-el integral package), F12 methods
   Garnet Chan, S. Sharma, J. Yang, R. Olivares  : DMRG
   Ulf Ekstrom                                   : XCFun DFT Library
   Mihaly Kallay                                 : mrcc  (arbitrary order and MRCC methods)
   Jiri Pittner, Ondrej Demel                    : Mk-CCSD
   Frank Weinhold                                : gennbo (NPA and NBO analysis)
   Christopher J. Cramer and Donald G. Truhlar   : smd solvation model
   Lars Goerigk                                  : TD-DFT with DH, B97 family of functionals
   V. Asgeirsson, H. Jonsson                     : NEB implementation
   FAccTs GmbH                                   : IRC, NEB, NEB-TS, DLPNO-Multilevel, CI-OPT
                                                   MM, QMMM, 2- and 3-layer-ONIOM, Crystal-QMMM,
                                                   LR-CPCM, SF, NACMEs, symmetry and pop. for TD-DFT,
                                                   nearIR, NL-DFT gradient (VV10), updates on ESD,
                                                   ML-optimized integration grids
   S Lehtola, MJT Oliveira, MAL Marques          : LibXC Library
   Liviu Ungur et al                             : ANISO software


 Your calculation uses the libint2 library for the computation of 2-el integrals
 For citations please refer to: http://libint.valeyev.net

 Your ORCA version has been built with support for libXC version: 5.1.0
 For citations please refer to: https://tddft.org/programs/libxc/

 This ORCA versions uses:
   CBLAS   interface :  Fast vector & matrix operations
   LAPACKE interface :  Fast linear algebra routines
   SCALAPACK package :  Parallel linear algebra routines
   Shared memory     :  Shared parallel matrices
   BLAS/LAPACK       :  OpenBLAS 0.3.15  USE64BITINT DYNAMIC_ARCH NO_AFFINITY Prescott SINGLE_THREADED
        Core in use  :  Prescott
   Copyright (c) 2011-2014, The OpenBLAS Project


Your calculation utilizes the SMD solvation module
Please cite in your paper:
A.V. Marenich, C.J. Cramer, D.G. Truhlar J. Phys. Chem. B, 113, (2009), 6378 

================================================================================

----- Orbital basis set information -----
Your calculation utilizes the basis: def2-TZVP
   F. Weigend and R. Ahlrichs, Phys. Chem. Chem. Phys. 7, 3297 (2005).

----- AuxJ basis set information -----
Your calculation utilizes the auxiliary basis: def2/J
   F. Weigend, Phys. Chem. Chem. Phys. 8, 1057 (2006).

----- AuxC basis set information -----
Your calculation utilizes the auxiliary basis: def2-TZVP/C
  H-La, Hf-Rn : A. Hellweg, C. Hattig, S. Hofener and W. Klopper, Theor. Chem. Acc. 117, 587 (2007).
        Ce-Lu : J. Chmela and M. E. Harding, Mol. Phys. (2018).

================================================================================
                                        WARNINGS
                       Please study these warnings very carefully!
================================================================================

INFO   : Checking CIS options ...
  ===> : (D) CORRECTION FOUND - SETTING MODE=3
  ===> : JK MODE FOUND - ACTIVATING RI-MP2 CODE
  ===> : MP2 AND CIS FOUND - CHECKING
WARNING: CIS(D) and MP2 runs must have the same orbital window
  ===> : adjusting orbital windows

WARNING: No MP2 level density has been requested!
         To caclulate MP2 level properties use
         %mp2 Density relaxed end
         or
         %mp2 Density unrelaxed end
         Otherwise for double-hybrid DFT only the energy is correct!

WARNING: The frozen-core approximation is turned on by default for 
         the MP2 part of double-hybrid DFT.

WARNING: CIS/ROCIS methods need fully converged wavefunctions
  ===> : Setting SCFConvForced true
         You can overwrite this default with %scf ConvForced false 


INFO   : the flag for use of the SHARK integral package has been found!

================================================================================
                                       INPUT FILE
================================================================================
NAME = POZ_5_M06L_def2TZVP_coords.inp
|  1> %maxcore 20000
|  2> %pal
|  3>  nprocs= 4
|  4> end
|  5> ! RI-B2GP-PLYP   def2-TZVP def2/J def2-TZVP/C RIJCOSX CPCM TightSCF
|  6> %TDDFT  
|  7>    NROOTS   30
|  8>    dcorr 4
|  9>    TDA      FALSE
| 10> END
| 11> 
| 12> %CPCM
| 13>    SMD          TRUE
| 14>    SMDsolvent   "N,N-DIMETHYLACETAMIDE"
| 15> END
| 16>    
| 17> 
| 18> * xyz 0 1
| 19> C                  -3.61688000    1.95222700    0.00979700
| 20> C                  -2.44498300    2.69219500    0.00577400
| 21> C                  -1.20128400    2.06784400   -0.00149600
| 22> C                  -1.17907300    0.66788400   -0.00746600
| 23> C                  -2.34227100   -0.06585600   -0.00741200
| 24> C                  -3.59805500    0.55825700    0.00165200
| 25> C                   1.17925100    0.66797700    0.00012600
| 26> C                   1.20135300    2.06794100   -0.00564300
| 27> C                   2.44501800    2.69237500   -0.01150300
| 28> H                   2.49303900    3.77321800   -0.00557800
| 29> C                   3.61696900    1.95248600   -0.01421200
| 30> C                   3.59827200    0.55852100   -0.00584900
| 31> C                   2.34249600   -0.06566900    0.00156900
| 32> H                  -2.49308300    3.77303600   -0.00006600
| 33> H                  -2.25543500   -1.14453900    0.00896800
| 34> H                   4.56073300    2.48154200    0.00265200
| 35> N                   0.00000900    2.76974200   -0.00410800
| 36> C                  -0.00004400    4.19949700   -0.00031200
| 37> C                   0.00177500    4.89081800   -1.20408000
| 38> C                  -0.00193000    4.88400000    1.20737700
| 39> C                   0.00177600    6.27761900   -1.19683800
| 40> C                  -0.00208600    6.27078300    1.20807700
| 41> H                  -0.00331900    4.32511400    2.13518600
| 42> C                  -0.00019500    6.96725300    0.00757900
| 43> H                  -0.00358800    6.80775300    2.14807900
| 44> H                  -0.00025800    8.04987200    0.01064200
| 45> H                   2.25571800   -1.14436300   -0.01477100
| 46> H                  -4.56071600    2.48121500   -0.00600400
| 47> C                  -4.83465400   -0.23344000   -0.00549800
| 48> C                  -4.86912000   -1.53095200   -0.52941200
| 49> C                  -6.03242900    0.27587300    0.50971700
| 50> C                  -6.03346800   -2.27397400   -0.54043000
| 51> H                  -3.97000500   -1.96338800   -0.95084000
| 52> C                  -7.19568500   -0.46915300    0.50181400
| 53> H                  -6.05130600    1.27062200    0.93751300
| 54> C                  -7.22900300   -1.76453000   -0.02454400
| 55> H                  -6.01072000   -3.27794800   -0.94633800
| 56> H                  -8.10232300   -0.03070500    0.90091100
| 57> C                  -8.46775000   -2.55848400   -0.03671700
| 58> C                  -8.69537900   -3.52297100   -1.02463100
| 59> C                  -9.45568300   -2.37552800    0.93692500
| 60> C                  -9.86027200   -4.27171800   -1.03872000
| 61> H                  -7.95862700   -3.67262300   -1.80424300
| 62> C                 -10.62003700   -3.12578400    0.92352900
| 63> H                  -9.29910100   -1.65084400    1.72667100
| 64> C                 -10.82954000   -4.07809300   -0.06437200
| 65> H                 -10.01498200   -5.00597100   -1.81977700
| 66> H                 -11.36515500   -2.97070200    1.69415900
| 67> H                 -11.74002800   -4.66387300   -0.07456800
| 68> C                   4.83493800   -0.23306800    0.00315900
| 69> C                   4.86829700   -1.53110400    0.52585200
| 70> C                   6.03385300    0.27676000   -0.50893300
| 71> C                   6.03252800   -2.27425500    0.53845900
| 72> H                   3.96829300   -1.96390300    0.94498200
| 73> C                   7.19702400   -0.46839400   -0.49941800
| 74> H                   6.05370500    1.27200400   -0.93557100
| 75> C                   7.22914400   -1.76437800    0.02552300
| 76> H                   6.00883900   -3.27870400    0.94315900
| 77> H                   8.10456900   -0.02959600   -0.89607400
| 78> C                   8.46773800   -2.55854200    0.03917500
| 79> C                   8.69365700   -3.52365500    1.02687300
| 80> C                   9.45714600   -2.37529900   -0.93288700
| 81> C                   9.85829700   -4.27277200    1.04223400
| 82> H                   7.95576200   -3.67358200    1.80535600
| 83> C                  10.62126300   -3.12591200   -0.91821500
| 84> H                   9.30198600   -1.65016900   -1.72250000
| 85> C                  10.82903400   -4.07888800    0.06940600
| 86> H                  10.01163200   -5.00753100    1.82308600
| 87> H                  11.36754600   -2.97055700   -1.68766400
| 88> H                  11.73931500   -4.66497100    0.08052700
| 89> O                   0.00012000   -0.03539000   -0.00456200
| 90> H                   0.00321700    6.81993700   -2.13376300
| 91> H                   0.00321900    4.33723700   -2.13505800
| 92> *
| 93> 
| 94> 
| 95>                          ****END OF INPUT****
================================================================================

                       ****************************
                       * Single Point Calculation *
                       ****************************

---------------------------------
CARTESIAN COORDINATES (ANGSTROEM)
---------------------------------
  C     -3.616880    1.952227    0.009797
  C     -2.444983    2.692195    0.005774
  C     -1.201284    2.067844   -0.001496
  C     -1.179073    0.667884   -0.007466
  C     -2.342271   -0.065856   -0.007412
  C     -3.598055    0.558257    0.001652
  C      1.179251    0.667977    0.000126
  C      1.201353    2.067941   -0.005643
  C      2.445018    2.692375   -0.011503
  H      2.493039    3.773218   -0.005578
  C      3.616969    1.952486   -0.014212
  C      3.598272    0.558521   -0.005849
  C      2.342496   -0.065669    0.001569
  H     -2.493083    3.773036   -0.000066
  H     -2.255435   -1.144539    0.008968
  H      4.560733    2.481542    0.002652
  N      0.000009    2.769742   -0.004108
  C     -0.000044    4.199497   -0.000312
  C      0.001775    4.890818   -1.204080
  C     -0.001930    4.884000    1.207377
  C      0.001776    6.277619   -1.196838
  C     -0.002086    6.270783    1.208077
  H     -0.003319    4.325114    2.135186
  C     -0.000195    6.967253    0.007579
  H     -0.003588    6.807753    2.148079
  H     -0.000258    8.049872    0.010642
  H      2.255718   -1.144363   -0.014771
  H     -4.560716    2.481215   -0.006004
  C     -4.834654   -0.233440   -0.005498
  C     -4.869120   -1.530952   -0.529412
  C     -6.032429    0.275873    0.509717
  C     -6.033468   -2.273974   -0.540430
  H     -3.970005   -1.963388   -0.950840
  C     -7.195685   -0.469153    0.501814
  H     -6.051306    1.270622    0.937513
  C     -7.229003   -1.764530   -0.024544
  H     -6.010720   -3.277948   -0.946338
  H     -8.102323   -0.030705    0.900911
  C     -8.467750   -2.558484   -0.036717
  C     -8.695379   -3.522971   -1.024631
  C     -9.455683   -2.375528    0.936925
  C     -9.860272   -4.271718   -1.038720
  H     -7.958627   -3.672623   -1.804243
  C    -10.620037   -3.125784    0.923529
  H     -9.299101   -1.650844    1.726671
  C    -10.829540   -4.078093   -0.064372
  H    -10.014982   -5.005971   -1.819777
  H    -11.365155   -2.970702    1.694159
  H    -11.740028   -4.663873   -0.074568
  C      4.834938   -0.233068    0.003159
  C      4.868297   -1.531104    0.525852
  C      6.033853    0.276760   -0.508933
  C      6.032528   -2.274255    0.538459
  H      3.968293   -1.963903    0.944982
  C      7.197024   -0.468394   -0.499418
  H      6.053705    1.272004   -0.935571
  C      7.229144   -1.764378    0.025523
  H      6.008839   -3.278704    0.943159
  H      8.104569   -0.029596   -0.896074
  C      8.467738   -2.558542    0.039175
  C      8.693657   -3.523655    1.026873
  C      9.457146   -2.375299   -0.932887
  C      9.858297   -4.272772    1.042234
  H      7.955762   -3.673582    1.805356
  C     10.621263   -3.125912   -0.918215
  H      9.301986   -1.650169   -1.722500
  C     10.829034   -4.078888    0.069406
  H     10.011632   -5.007531    1.823086
  H     11.367546   -2.970557   -1.687664
  H     11.739315   -4.664971    0.080527
  O      0.000120   -0.035390   -0.004562
  H      0.003217    6.819937   -2.133763
  H      0.003219    4.337237   -2.135058

----------------------------
CARTESIAN COORDINATES (A.U.)
----------------------------
  NO LB      ZA    FRAG     MASS         X           Y           Z
   0 C     6.0000    0    12.011   -6.834913    3.689174    0.018514
   1 C     6.0000    0    12.011   -4.620348    5.087511    0.010911
   2 C     6.0000    0    12.011   -2.270098    3.907659   -0.002827
   3 C     6.0000    0    12.011   -2.228125    1.262118   -0.014109
   4 C     6.0000    0    12.011   -4.426251   -0.124450   -0.014007
   5 C     6.0000    0    12.011   -6.799339    1.054953    0.003122
   6 C     6.0000    0    12.011    2.228461    1.262294    0.000238
   7 C     6.0000    0    12.011    2.270228    3.907842   -0.010664
   8 C     6.0000    0    12.011    4.620414    5.087851   -0.021738
   9 H     1.0000    0     1.008    4.711161    7.130349   -0.010541
  10 C     6.0000    0    12.011    6.835081    3.689664   -0.026857
  11 C     6.0000    0    12.011    6.799749    1.055452   -0.011053
  12 C     6.0000    0    12.011    4.426676   -0.124096    0.002965
  13 H     1.0000    0     1.008   -4.711244    7.130005   -0.000125
  14 H     1.0000    0     1.008   -4.262154   -2.162865    0.016947
  15 H     1.0000    0     1.008    8.618536    4.689435    0.005012
  16 N     7.0000    0    14.007    0.000017    5.234054   -0.007763
  17 C     6.0000    0    12.011   -0.000083    7.935899   -0.000590
  18 C     6.0000    0    12.011    0.003354    9.242307   -2.275381
  19 C     6.0000    0    12.011   -0.003647    9.229422    2.281612
  20 C     6.0000    0    12.011    0.003356   11.862981   -2.261696
  21 C     6.0000    0    12.011   -0.003942   11.850063    2.282935
  22 H     1.0000    0     1.008   -0.006272    8.173281    4.034917
  23 C     6.0000    0    12.011   -0.000368   13.166200    0.014322
  24 H     1.0000    0     1.008   -0.006780   12.864789    4.059281
  25 H     1.0000    0     1.008   -0.000488   15.212053    0.020110
  26 H     1.0000    0     1.008    4.262689   -2.162533   -0.027913
  27 H     1.0000    0     1.008   -8.618504    4.688817   -0.011346
  28 C     6.0000    0    12.011   -9.136172   -0.441138   -0.010390
  29 C     6.0000    0    12.011   -9.201303   -2.893080   -1.000444
  30 C     6.0000    0    12.011  -11.399639    0.521324    0.963226
  31 C     6.0000    0    12.011  -11.401602   -4.297188   -1.021265
  32 H     1.0000    0     1.008   -7.502222   -3.710266   -1.796827
  33 C     6.0000    0    12.011  -13.597874   -0.886571    0.948291
  34 H     1.0000    0     1.008  -11.435311    2.401128    1.771643
  35 C     6.0000    0    12.011  -13.660836   -3.334478   -0.046381
  36 H     1.0000    0     1.008  -11.358615   -6.194424   -1.788320
  37 H     1.0000    0     1.008  -15.311172   -0.058024    1.702475
  38 C     6.0000    0    12.011  -16.001728   -4.834834   -0.069385
  39 C     6.0000    0    12.011  -16.431885   -6.657450   -1.936272
  40 C     6.0000    0    12.011  -17.868651   -4.489097    1.770532
  41 C     6.0000    0    12.011  -18.633214   -8.072377   -1.962896
  42 H     1.0000    0     1.008  -15.039625   -6.940252   -3.409525
  43 C     6.0000    0    12.011  -20.068961   -5.906876    1.745217
  44 H     1.0000    0     1.008  -17.572754   -3.119643    3.262935
  45 C     6.0000    0    12.011  -20.464865   -7.706479   -0.121645
  46 H     1.0000    0     1.008  -18.925573   -9.459914   -3.438880
  47 H     1.0000    0     1.008  -21.477030   -5.613813    3.201497
  48 H     1.0000    0     1.008  -22.185438   -8.813443   -0.140913
  49 C     6.0000    0    12.011    9.136709   -0.440435    0.005970
  50 C     6.0000    0    12.011    9.199748   -2.893367    0.993716
  51 C     6.0000    0    12.011   11.402330    0.523001   -0.961744
  52 C     6.0000    0    12.011   11.399826   -4.297719    1.017540
  53 H     1.0000    0     1.008    7.498987   -3.711239    1.785757
  54 C     6.0000    0    12.011   13.600404   -0.885136   -0.943763
  55 H     1.0000    0     1.008   11.439845    2.403739   -1.767973
  56 C     6.0000    0    12.011   13.661102   -3.334191    0.048231
  57 H     1.0000    0     1.008   11.355060   -6.195853    1.782312
  58 H     1.0000    0     1.008   15.315416   -0.055928   -1.693334
  59 C     6.0000    0    12.011   16.001706   -4.834944    0.074030
  60 C     6.0000    0    12.011   16.428631   -6.658743    1.940509
  61 C     6.0000    0    12.011   17.871416   -4.488665   -1.762901
  62 C     6.0000    0    12.011   18.629481   -8.074369    1.969537
  63 H     1.0000    0     1.008   15.034211   -6.942064    3.411628
  64 C     6.0000    0    12.011   20.071278   -5.907118   -1.735175
  65 H     1.0000    0     1.008   17.578206   -3.118367   -3.255053
  66 C     6.0000    0    12.011   20.463909   -7.707981    0.131158
  67 H     1.0000    0     1.008   18.919243   -9.462862    3.445133
  68 H     1.0000    0     1.008   21.481549   -5.613539   -3.189223
  69 H     1.0000    0     1.008   22.184090   -8.815518    0.152174
  70 O     8.0000    0    15.999    0.000227   -0.066877   -0.008621
  71 H     1.0000    0     1.008    0.006079   12.887813   -4.032228
  72 H     1.0000    0     1.008    0.006083    8.196190   -4.034675

--------------------------------
INTERNAL COORDINATES (ANGSTROEM)
--------------------------------
 C      0   0   0     0.000000000000     0.00000000     0.00000000
 C      1   0   0     1.385969481685     0.00000000     0.00000000
 C      2   1   0     1.391637246808   121.07378666     0.00000000
 C      3   2   1     1.400148910302   117.56687686     0.13313056
 C      4   3   2     1.375283235454   121.33426668     0.05874302
 C      1   2   3     1.394120899546   121.49384538   359.75477411
 C      4   3   2     2.358336222019    90.90588831   180.39845072
 C      7   4   3     1.400150342306    90.90597176   359.51372893
 C      8   7   4     1.391637449978   117.56593913   180.33713019
 H      9   8   7     1.081925465416   119.20250738   180.63468050
 C      9   8   7     1.385969775068   121.07383861     0.12572121
 C     11   9   8     1.394115468246   121.49554943   359.74249091
 C      7   4   3     1.375273596631   147.75839725   179.93249252
 H      2   1   3     1.081926514548   119.72174309   179.48957906
 H      5   4   3     1.082296544291   117.63765175   181.26508319
 H     11   9   8     1.082069837547   118.45454160   181.29060237
 N      8   7   4     1.391313913595   119.38753599     0.39370971
 C     17   8   7     1.429760040164   120.29479317   179.55421170
 C     18  17   8     1.388159008048   119.71649392    89.92799737
 C     18  17   8     1.388186095135   119.69611451   269.92725668
 C     19  18  17     1.386819909060   119.56941632   180.00274816
 C     20  18  17     1.386783185442   119.57292219   180.00518715
 H     20  18  17     1.083136663029   119.39246167     0.00000000
 C     21  19  18     1.387883009726   120.09407618     0.00000000
 H     22  20  18     1.082563068328   119.76578500   179.99795334
 H     24  21  19     1.082623334821   119.95698449   180.00415576
 H     13   7   4     1.082302251000   117.63534001     0.75751245
 H      1   2   3     1.082083347363   118.45520569   181.29105758
 C      6   1   2     1.468336592580   121.85541682   180.52060900
 C     29   6   1     1.399718248326   121.49129871   154.37369470
 C     29   6   1     1.399825410120   121.51015783   334.45426948
 C     30  29   6     1.381270919810   121.49267725   180.23109811
 H     30  29   6     1.083055971086   119.69094865   359.30393102
 C     31  29   6     1.381408961756   121.47998311   179.95354934
 H     31  29   6     1.083001076521   119.63625328   359.12527851
 C     32  30  29     1.398204380753   121.45497569   359.78777197
 H     32  30  29     1.083163223454   118.93944078   180.65110432
 H     34  31  29     1.083285524300   118.97130890   180.68530046
 C     36  32  30     1.471395686433   121.34556257   180.04019893
 C     39  36  32     1.399294181438   120.97854594   330.97937662
 C     39  36  32     1.399093726163   121.20869596   150.96266373
 C     40  39  36     1.384845215675   121.11027646   180.00218821
 H     40  39  36     1.083048522067   119.52394887   358.67060654
 C     41  39  36     1.385201702160   121.06345898   180.07887812
 H     41  39  36     1.083228307928   119.52328717   358.74390878
 C     42  40  39     1.387921151058   120.32277092   359.92391796
 H     42  40  39     1.083103268095   119.60510630   179.48225068
 H     44  41  39     1.083107500458   119.59273310   179.44938180
 H     46  42  40     1.082695970695   120.34411882   180.05223019
 C     12  11   9     1.468345015499   121.85599791   180.54219528
 C     50  12  11     1.399720776593   121.48679763   154.45477367
 C     50  12  11     1.399842842348   121.51632812   334.53513855
 C     51  50  12     1.381255286546   121.49582836   180.21800715
 H     51  50  12     1.083047612673   119.68886792   359.29656575
 C     52  50  12     1.381416589658   121.47846472   179.96519269
 H     52  50  12     1.083016483939   119.63651905   359.13468755
 C     53  51  50     1.398201611600   121.45365426   359.79181436
 H     53  51  50     1.083171755689   118.94039822   180.66288912
 H     55  52  50     1.083290170806   118.97278711   180.68532065
 C     57  53  51     1.471393194505   121.34511769   180.05023976
 C     60  57  53     1.399296193282   120.97871839   330.93855273
 C     60  57  53     1.399074951301   121.20892704   150.91342864
 C     61  60  57     1.384846045454   121.11124177   179.99099932
 H     61  60  57     1.083052592279   119.52713457   358.66067486
 C     62  60  57     1.385208840949   121.06315773   180.08918638
 H     62  60  57     1.083225199240   119.52766560   358.75001303
 C     63  61  60     1.387917737551   120.32227888   359.92465767
 H     63  61  60     1.083103068138   119.60511744   179.48436038
 H     65  62  60     1.083109069168   119.59046848   179.44997086
 H     67  63  61     1.082694997906   120.34607526   180.05553866
 O      7   4   3     1.372988357268    30.81419571   179.82541826
 H     21  19  18     1.082561474111   119.76421078   179.99846437
 H     19  18  17     1.083131591812   119.39472009     0.00000000

---------------------------
INTERNAL COORDINATES (A.U.)
---------------------------
 C      0   0   0     0.000000000000     0.00000000     0.00000000
 C      1   0   0     2.619102750357     0.00000000     0.00000000
 C      2   1   0     2.629813274230   121.07378666     0.00000000
 C      3   2   1     2.645897987180   117.56687686     0.13313056
 C      4   3   2     2.598908671581   121.33426668     0.05874302
 C      1   2   3     2.634506697717   121.49384538   359.75477411
 C      4   3   2     4.456609591323    90.90588831   180.39845072
 C      7   4   3     2.645900693275    90.90597176   359.51372893
 C      8   7   4     2.629813658167   117.56593913   180.33713019
 H      9   8   7     2.044542826951   119.20250738   180.63468050
 C      9   8   7     2.619103304772   121.07383861     0.12572121
 C     11   9   8     2.634496434048   121.49554943   359.74249091
 C      7   4   3     2.598890456845   147.75839725   179.93249252
 H      2   1   3     2.044544809523   119.72174309   179.48957906
 H      5   4   3     2.045244064400   117.63765175   181.26508319
 H     11   9   8     2.044815650740   118.45454160   181.29060237
 N      8   7   4     2.629202263008   119.38753599     0.39370971
 C     17   8   7     2.701854913134   120.29479317   179.55421170
 C     18  17   8     2.623240355547   119.71649392    89.92799737
 C     18  17   8     2.623291542723   119.69611451   269.92725668
 C     19  18  17     2.620709825194   119.56941632   180.00274816
 C     20  18  17     2.620640427613   119.57292219   180.00518715
 H     20  18  17     2.046831658735   119.39246167     0.00000000
 C     21  19  18     2.622718794304   120.09407618     0.00000000
 H     22  20  18     2.045747721838   119.76578500   179.99795334
 H     24  21  19     2.045861609004   119.95698449   180.00415576
 H     13   7   4     2.045254848517   117.63534001     0.75751245
 H      1   2   3     2.044841180593   118.45520569   181.29105758
 C      6   1   2     2.774754032392   121.85541682   180.52060900
 C     29   6   1     2.645084153988   121.49129871   154.37369470
 C     29   6   1     2.645286660432   121.51015783   334.45426948
 C     30  29   6     2.610223755190   121.49267725   180.23109811
 H     30  29   6     2.046679173061   119.69094865   359.30393102
 C     31  29   6     2.610484616664   121.47998311   179.95354934
 H     31  29   6     2.046575437367   119.63625328   359.12527851
 C     32  30  29     2.642223358872   121.45497569   359.78777197
 H     32  30  29     2.046881850664   118.93944078   180.65110432
 H     34  31  29     2.047112965767   118.97130890   180.68530046
 C     36  32  30     2.780534881992   121.34556257   180.04019893
 C     39  36  32     2.644282783707   120.97854594   330.97937662
 C     39  36  32     2.643903978136   121.20869596   150.96266373
 C     40  39  36     2.616978195498   121.11027646   180.00218821
 H     40  39  36     2.046665096455   119.52394887   358.67060654
 C     41  39  36     2.617651857325   121.06345898   180.07887812
 H     41  39  36     2.047004842494   119.52328717   358.74390878
 C     42  40  39     2.622790870976   120.32277092   359.92391796
 H     42  40  39     2.046768551455   119.60510630   179.48225068
 H     44  41  39     2.046776549461   119.59273310   179.44938180
 H     46  42  40     2.045998870914   120.34411882   180.05223019
 C     12  11   9     2.774769949402   121.85599791   180.54219528
 C     50  12  11     2.645088931720   121.48679763   154.45477367
 C     50  12  11     2.645319602568   121.51632812   334.53513855
 C     51  50  12     2.610194212603   121.49582836   180.21800715
 H     51  50  12     2.046663377949   119.68886792   359.29656575
 C     52  50  12     2.610499031309   121.47846472   179.96519269
 H     52  50  12     2.046604553167   119.63651905   359.13468755
 C     53  51  50     2.642218125931   121.45365426   359.79181436
 H     53  51  50     2.046897974251   118.94039822   180.66288912
 H     55  52  50     2.047121746392   118.97278711   180.68532065
 C     57  53  51     2.780530172930   121.34511769   180.05023976
 C     60  57  53     2.644286585542   120.97871839   330.93855273
 C     60  57  53     2.643868498787   121.20892704   150.91342864
 C     61  60  57     2.616979763552   121.11124177   179.99099932
 H     61  60  57     2.046672788041   119.52713457   358.66067486
 C     62  60  57     2.617665347679   121.06315773   180.08918638
 H     62  60  57     2.046998967926   119.52766560   358.75001303
 C     63  61  60     2.622784420383   120.32227888   359.92465767
 H     63  61  60     2.046768173591   119.60511744   179.48436038
 H     65  62  60     2.046779513895   119.59046848   179.44997086
 H     67  63  61     2.045997032609   120.34607526   180.05553866
 O      7   4   3     2.594571980299    30.81419571   179.82541826
 H     21  19  18     2.045744709204   119.76421078   179.99846437
 H     19  18  17     2.046822075523   119.39472009     0.00000000

---------------------
BASIS SET INFORMATION
---------------------
There are 4 groups of distinct atoms

 Group   1 Type C   : 11s6p2d1f contracted to 5s3p2d1f pattern {62111/411/11/1}
 Group   2 Type H   : 5s1p contracted to 3s1p pattern {311/1}
 Group   3 Type N   : 11s6p2d1f contracted to 5s3p2d1f pattern {62111/411/11/1}
 Group   4 Type O   : 11s6p2d1f contracted to 5s3p2d1f pattern {62111/411/11/1}

Atom   0C    basis set group =>   1
Atom   1C    basis set group =>   1
Atom   2C    basis set group =>   1
Atom   3C    basis set group =>   1
Atom   4C    basis set group =>   1
Atom   5C    basis set group =>   1
Atom   6C    basis set group =>   1
Atom   7C    basis set group =>   1
Atom   8C    basis set group =>   1
Atom   9H    basis set group =>   2
Atom  10C    basis set group =>   1
Atom  11C    basis set group =>   1
Atom  12C    basis set group =>   1
Atom  13H    basis set group =>   2
Atom  14H    basis set group =>   2
Atom  15H    basis set group =>   2
Atom  16N    basis set group =>   3
Atom  17C    basis set group =>   1
Atom  18C    basis set group =>   1
Atom  19C    basis set group =>   1
Atom  20C    basis set group =>   1
Atom  21C    basis set group =>   1
Atom  22H    basis set group =>   2
Atom  23C    basis set group =>   1
Atom  24H    basis set group =>   2
Atom  25H    basis set group =>   2
Atom  26H    basis set group =>   2
Atom  27H    basis set group =>   2
Atom  28C    basis set group =>   1
Atom  29C    basis set group =>   1
Atom  30C    basis set group =>   1
Atom  31C    basis set group =>   1
Atom  32H    basis set group =>   2
Atom  33C    basis set group =>   1
Atom  34H    basis set group =>   2
Atom  35C    basis set group =>   1
Atom  36H    basis set group =>   2
Atom  37H    basis set group =>   2
Atom  38C    basis set group =>   1
Atom  39C    basis set group =>   1
Atom  40C    basis set group =>   1
Atom  41C    basis set group =>   1
Atom  42H    basis set group =>   2
Atom  43C    basis set group =>   1
Atom  44H    basis set group =>   2
Atom  45C    basis set group =>   1
Atom  46H    basis set group =>   2
Atom  47H    basis set group =>   2
Atom  48H    basis set group =>   2
Atom  49C    basis set group =>   1
Atom  50C    basis set group =>   1
Atom  51C    basis set group =>   1
Atom  52C    basis set group =>   1
Atom  53H    basis set group =>   2
Atom  54C    basis set group =>   1
Atom  55H    basis set group =>   2
Atom  56C    basis set group =>   1
Atom  57H    basis set group =>   2
Atom  58H    basis set group =>   2
Atom  59C    basis set group =>   1
Atom  60C    basis set group =>   1
Atom  61C    basis set group =>   1
Atom  62C    basis set group =>   1
Atom  63H    basis set group =>   2
Atom  64C    basis set group =>   1
Atom  65H    basis set group =>   2
Atom  66C    basis set group =>   1
Atom  67H    basis set group =>   2
Atom  68H    basis set group =>   2
Atom  69H    basis set group =>   2
Atom  70O    basis set group =>   4
Atom  71H    basis set group =>   2
Atom  72H    basis set group =>   2
---------------------------------
AUXILIARY/J BASIS SET INFORMATION
---------------------------------
There are 4 groups of distinct atoms

 Group   1 Type C   : 12s5p4d2f1g contracted to 6s4p3d1f1g pattern {711111/2111/211/2/1}
 Group   2 Type H   : 5s2p1d contracted to 3s1p1d pattern {311/2/1}
 Group   3 Type N   : 12s5p4d2f1g contracted to 6s4p3d1f1g pattern {711111/2111/211/2/1}
 Group   4 Type O   : 12s5p4d2f1g contracted to 6s4p3d1f1g pattern {711111/2111/211/2/1}

Atom   0C    basis set group =>   1
Atom   1C    basis set group =>   1
Atom   2C    basis set group =>   1
Atom   3C    basis set group =>   1
Atom   4C    basis set group =>   1
Atom   5C    basis set group =>   1
Atom   6C    basis set group =>   1
Atom   7C    basis set group =>   1
Atom   8C    basis set group =>   1
Atom   9H    basis set group =>   2
Atom  10C    basis set group =>   1
Atom  11C    basis set group =>   1
Atom  12C    basis set group =>   1
Atom  13H    basis set group =>   2
Atom  14H    basis set group =>   2
Atom  15H    basis set group =>   2
Atom  16N    basis set group =>   3
Atom  17C    basis set group =>   1
Atom  18C    basis set group =>   1
Atom  19C    basis set group =>   1
Atom  20C    basis set group =>   1
Atom  21C    basis set group =>   1
Atom  22H    basis set group =>   2
Atom  23C    basis set group =>   1
Atom  24H    basis set group =>   2
Atom  25H    basis set group =>   2
Atom  26H    basis set group =>   2
Atom  27H    basis set group =>   2
Atom  28C    basis set group =>   1
Atom  29C    basis set group =>   1
Atom  30C    basis set group =>   1
Atom  31C    basis set group =>   1
Atom  32H    basis set group =>   2
Atom  33C    basis set group =>   1
Atom  34H    basis set group =>   2
Atom  35C    basis set group =>   1
Atom  36H    basis set group =>   2
Atom  37H    basis set group =>   2
Atom  38C    basis set group =>   1
Atom  39C    basis set group =>   1
Atom  40C    basis set group =>   1
Atom  41C    basis set group =>   1
Atom  42H    basis set group =>   2
Atom  43C    basis set group =>   1
Atom  44H    basis set group =>   2
Atom  45C    basis set group =>   1
Atom  46H    basis set group =>   2
Atom  47H    basis set group =>   2
Atom  48H    basis set group =>   2
Atom  49C    basis set group =>   1
Atom  50C    basis set group =>   1
Atom  51C    basis set group =>   1
Atom  52C    basis set group =>   1
Atom  53H    basis set group =>   2
Atom  54C    basis set group =>   1
Atom  55H    basis set group =>   2
Atom  56C    basis set group =>   1
Atom  57H    basis set group =>   2
Atom  58H    basis set group =>   2
Atom  59C    basis set group =>   1
Atom  60C    basis set group =>   1
Atom  61C    basis set group =>   1
Atom  62C    basis set group =>   1
Atom  63H    basis set group =>   2
Atom  64C    basis set group =>   1
Atom  65H    basis set group =>   2
Atom  66C    basis set group =>   1
Atom  67H    basis set group =>   2
Atom  68H    basis set group =>   2
Atom  69H    basis set group =>   2
Atom  70O    basis set group =>   4
Atom  71H    basis set group =>   2
Atom  72H    basis set group =>   2
---------------------------------
AUXILIARY/C BASIS SET INFORMATION
---------------------------------
There are 4 groups of distinct atoms

 Group   1 Type C   : 8s6p5d3f1g contracted to 8s6p4d3f1g pattern {11111111/111111/2111/111/1}
 Group   2 Type H   : 4s3p2d contracted to 4s2p1d pattern {1111/21/2}
 Group   3 Type N   : 8s6p5d3f1g contracted to 8s6p4d3f1g pattern {11111111/111111/2111/111/1}
 Group   4 Type O   : 8s6p5d3f1g contracted to 8s6p4d3f1g pattern {11111111/111111/2111/111/1}

Atom   0C    basis set group =>   1
Atom   1C    basis set group =>   1
Atom   2C    basis set group =>   1
Atom   3C    basis set group =>   1
Atom   4C    basis set group =>   1
Atom   5C    basis set group =>   1
Atom   6C    basis set group =>   1
Atom   7C    basis set group =>   1
Atom   8C    basis set group =>   1
Atom   9H    basis set group =>   2
Atom  10C    basis set group =>   1
Atom  11C    basis set group =>   1
Atom  12C    basis set group =>   1
Atom  13H    basis set group =>   2
Atom  14H    basis set group =>   2
Atom  15H    basis set group =>   2
Atom  16N    basis set group =>   3
Atom  17C    basis set group =>   1
Atom  18C    basis set group =>   1
Atom  19C    basis set group =>   1
Atom  20C    basis set group =>   1
Atom  21C    basis set group =>   1
Atom  22H    basis set group =>   2
Atom  23C    basis set group =>   1
Atom  24H    basis set group =>   2
Atom  25H    basis set group =>   2
Atom  26H    basis set group =>   2
Atom  27H    basis set group =>   2
Atom  28C    basis set group =>   1
Atom  29C    basis set group =>   1
Atom  30C    basis set group =>   1
Atom  31C    basis set group =>   1
Atom  32H    basis set group =>   2
Atom  33C    basis set group =>   1
Atom  34H    basis set group =>   2
Atom  35C    basis set group =>   1
Atom  36H    basis set group =>   2
Atom  37H    basis set group =>   2
Atom  38C    basis set group =>   1
Atom  39C    basis set group =>   1
Atom  40C    basis set group =>   1
Atom  41C    basis set group =>   1
Atom  42H    basis set group =>   2
Atom  43C    basis set group =>   1
Atom  44H    basis set group =>   2
Atom  45C    basis set group =>   1
Atom  46H    basis set group =>   2
Atom  47H    basis set group =>   2
Atom  48H    basis set group =>   2
Atom  49C    basis set group =>   1
Atom  50C    basis set group =>   1
Atom  51C    basis set group =>   1
Atom  52C    basis set group =>   1
Atom  53H    basis set group =>   2
Atom  54C    basis set group =>   1
Atom  55H    basis set group =>   2
Atom  56C    basis set group =>   1
Atom  57H    basis set group =>   2
Atom  58H    basis set group =>   2
Atom  59C    basis set group =>   1
Atom  60C    basis set group =>   1
Atom  61C    basis set group =>   1
Atom  62C    basis set group =>   1
Atom  63H    basis set group =>   2
Atom  64C    basis set group =>   1
Atom  65H    basis set group =>   2
Atom  66C    basis set group =>   1
Atom  67H    basis set group =>   2
Atom  68H    basis set group =>   2
Atom  69H    basis set group =>   2
Atom  70O    basis set group =>   4
Atom  71H    basis set group =>   2
Atom  72H    basis set group =>   2


           ************************************************************
           *        Program running with 4 parallel MPI-processes     *
           *              working on a common directory               *
           ************************************************************
------------------------------------------------------------------------------
                           ORCA GTO INTEGRAL CALCULATION
                           -- RI-GTO INTEGRALS CHOSEN --
------------------------------------------------------------------------------
------------------------------------------------------------------------------
                   ___                                                        
                  /   \      - P O W E R E D   B Y -                         
                 /     \                                                     
                 |  |  |   _    _      __       _____    __    __             
                 |  |  |  | |  | |    /  \     |  _  \  |  |  /  |          
                  \  \/   | |  | |   /    \    | | | |  |  | /  /          
                 / \  \   | |__| |  /  /\  \   | |_| |  |  |/  /          
                |  |  |   |  __  | /  /__\  \  |    /   |      \           
                |  |  |   | |  | | |   __   |  |    \   |  |\   \          
                \     /   | |  | | |  |  |  |  | |\  \  |  | \   \       
                 \___/    |_|  |_| |__|  |__|  |_| \__\ |__|  \__/        
                                                                              
                      - O R C A' S   B I G   F R I E N D -                    
                                      &                                       
                       - I N T E G R A L  F E E D E R -                       
                                                                              
 v1 FN, 2020, v2 2021                                                         
------------------------------------------------------------------------------


Reading SHARK input file POZ_5_M06L_def2TZVP_coords.SHARKINP.tmp ... ok
----------------------
SHARK INTEGRAL PACKAGE
----------------------

Number of atoms                             ...     73
Number of basis functions                   ...   1538
Number of shells                            ...    600
Maximum angular momentum                    ...      3
Integral batch strategy                     ... SHARK/LIBINT Hybrid
RI-J (if used) integral strategy            ... SPLIT-RIJ (Revised 2003 algorithm where possible)
Printlevel                                  ...      1
Contraction scheme used                     ... SEGMENTED contraction
Coulomb Range Separation                    ... NOT USED
Exchange Range Separation                   ... NOT USED
Finite Nucleus Model                        ... NOT USED
Auxiliary Coulomb fitting basis             ... AVAILABLE
   # of basis functions in Aux-J            ...   2475
   # of shells in Aux-J                     ...    805
   Maximum angular momentum in Aux-J        ...      4
Auxiliary J/K fitting basis                 ... NOT available
Auxiliary Correlation fitting basis         ... AVAILABLE
   # of basis functions in Aux-C            ...   3779
   # of shells in Aux-C                     ...   1171
   Maximum angular momentum in Aux-C        ...      4
Auxiliary 'external' fitting basis          ... NOT available
Integral threshold                          ...     2.500000e-11
Primitive cut-off                           ...     2.500000e-12
Primitive pair pre-selection threshold      ...     2.500000e-12

Calculating pre-screening integrals         ... done (  0.5 sec) Dimension = 600
Organizing shell pair data                  ... done (  1.9 sec)
Shell pair information
Total number of shell pairs                 ...    180300
Shell pairs after pre-screening             ...     73145
Total number of primitive shell pairs       ...    557040
Primitive shell pairs kept                  ...    146018
          la=0 lb=0:  18276 shell pairs
          la=1 lb=0:  21366 shell pairs
          la=1 lb=1:   6264 shell pairs
          la=2 lb=0:  10300 shell pairs
          la=2 lb=1:   6093 shell pairs
          la=2 lb=2:   1476 shell pairs
          la=3 lb=0:   4824 shell pairs
          la=3 lb=1:   2881 shell pairs
          la=3 lb=2:   1330 shell pairs
          la=3 lb=3:    335 shell pairs

Calculating one electron integrals          ... done (  0.6 sec)
Calculating RI/J V-Matrix + Cholesky decomp.... done (  0.9 sec)
Calculating RI/C V-Matrix + Cholesky decomp.... done (  2.3 sec)
Calculating Nuclear repulsion               ... done (  0.0 sec) ENN=   4215.978862362290 Eh

SHARK setup successfully completed in   8.3 seconds

Maximum memory used throughout the entire GTOINT-calculation: 189.0 MB


           ************************************************************
           *        Program running with 4 parallel MPI-processes     *
           *              working on a common directory               *
           ************************************************************
-------------------------------------------------------------------------------
                                 ORCA SCF
-------------------------------------------------------------------------------

------------
SCF SETTINGS
------------
Hamiltonian:
 Density Functional     Method          .... DFT(GTOs)
 Exchange Functional    Exchange        .... B88
   X-Alpha parameter    XAlpha          ....  0.666667
   Becke's b parameter  XBeta           ....  0.004200
 Correlation Functional Correlation     .... LYP
 LDA part of GGA corr.  LDAOpt          .... VWN-3
 Gradients option       PostSCFGGA      .... off
 Hybrid DFT is turned on
   Fraction HF Exchange ScalHFX         ....  0.650000
   Scaling of DF-GGA-X  ScalDFX         ....  0.350000
   Scaling of DF-GGA-C  ScalDFC         ....  0.640000
   Scaling of DF-LDA-C  ScalLDAC        ....  0.640000
   Perturbative correction              ....  0.360000
   Density functional embedding theory  .... OFF
 RI-approximation to the Coulomb term is turned on
   Number of AuxJ basis functions       .... 2475
   RIJ-COSX (HFX calculated with COS-X)).... on


General Settings:
 Integral files         IntName         .... POZ_5_M06L_def2TZVP_coords
 Hartree-Fock type      HFTyp           .... RHF
 Total Charge           Charge          ....    0
 Multiplicity           Mult            ....    1
 Number of Electrons    NEL             ....  296
 Basis Dimension        Dim             .... 1538
 Nuclear Repulsion      ENuc            ....   4215.9788623623 Eh

Convergence Acceleration:
 DIIS                   CNVDIIS         .... on
   Start iteration      DIISMaxIt       ....    12
   Startup error        DIISStart       ....  0.200000
   # of expansion vecs  DIISMaxEq       ....     5
   Bias factor          DIISBfac        ....   1.050
   Max. coefficient     DIISMaxC        ....  10.000
 Trust-Rad. Augm. Hess. CNVTRAH         .... auto
   Auto Start mean grad. ratio tolernc. ....  1.125000
   Auto Start start iteration           ....    20
   Auto Start num. interpolation iter.  ....    10
   Max. Number of Micro iterations      ....    16
   Max. Number of Macro iterations      .... Maxiter - #DIIS iter
   Number of Davidson start vectors     ....     2
   Converg. threshold I  (grad. norm)   ....   1.000e-05
   Converg. threshold II (energy diff.) ....   1.000e-08
   Grad. Scal. Fac. for Micro threshold ....   0.100
   Minimum threshold for Micro iter.    ....   0.010
   NR start threshold (gradient norm)   ....   0.001
   Initial trust radius                 ....   0.400
   Minimum AH scaling param. (alpha)    ....   1.000
   Maximum AH scaling param. (alpha)    .... 1000.000
   Orbital update algorithm             .... Taylor
   White noise on init. David. guess    .... on
   Maximum white noise                  ....   0.010
   Quad. conv. algorithm                .... NR
 SOSCF                  CNVSOSCF        .... on
   Start iteration      SOSCFMaxIt      ....   150
   Startup grad/error   SOSCFStart      ....  0.003300
 Level Shifting         CNVShift        .... on
   Level shift para.    LevelShift      ....    0.2500
   Turn off err/grad.   ShiftErr        ....    0.0010
 Zerner damping         CNVZerner       .... off
 Static damping         CNVDamp         .... on
   Fraction old density DampFac         ....    0.7000
   Max. Damping (<1)    DampMax         ....    0.9800
   Min. Damping (>=0)   DampMin         ....    0.0000
   Turn off err/grad.   DampErr         ....    0.1000
 Fernandez-Rico         CNVRico         .... off

SCF Procedure:
 Maximum # iterations   MaxIter         ....   125
 SCF integral mode      SCFMode         .... Direct
   Integral package                     .... SHARK and LIBINT hybrid scheme
 Reset frequency        DirectResetFreq ....    20
 Integral Threshold     Thresh          ....  2.500e-11 Eh
 Primitive CutOff       TCut            ....  2.500e-12 Eh

Convergence Tolerance:
 Convergence Check Mode ConvCheckMode   .... Total+1el-Energy
 Convergence forced     ConvForced      .... 1
 Energy Change          TolE            ....  1.000e-08 Eh
 1-El. energy change                    ....  1.000e-05 Eh
 Orbital Gradient       TolG            ....  1.000e-05
 Orbital Rotation angle TolX            ....  1.000e-05
 DIIS Error             TolErr          ....  5.000e-07


Diagonalization of the overlap matrix:
Smallest eigenvalue                        ... 4.272e-06
Time for diagonalization                   ...    1.441 sec
Threshold for overlap eigenvalues          ... 1.000e-08
Number of eigenvalues below threshold      ... 0
Time for construction of square roots      ...    1.321 sec
Total time needed                          ...    2.779 sec

Time for model grid setup =    2.688 sec

------------------------------
INITIAL GUESS: MODEL POTENTIAL
------------------------------
Loading Hartree-Fock densities                     ... done
Calculating cut-offs                               ... done
Initializing the effective Hamiltonian             ... done
Setting up the integral package (SHARK)            ... done
Starting the Coulomb interaction                   ... done (   7.5 sec)
Reading the grid                                   ... done
Mapping shells                                     ... done
Starting the XC term evaluation                    ... done (   3.2 sec)
  promolecular density results
     # of electrons  =    295.986807880
     EX              =   -239.581098644
     EC              =     -1.135285167
     EX+EC           =   -240.716383811
Transforming the Hamiltonian                       ... done (   1.1 sec)
Diagonalizing the Hamiltonian                      ... done (   1.4 sec)
Back transforming the eigenvectors                 ... done (   0.5 sec)
Now organizing SCF variables                       ... done
                      ------------------
                      INITIAL GUESS DONE (  16.6 sec)
                      ------------------
-------------------
DFT GRID GENERATION
-------------------

General Integration Accuracy     IntAcc      ... 4.388
Radial Grid Type                 RadialGrid  ... OptM3 with GC (2021)
Angular Grid (max. ang.)         AngularGrid ... 4 (Lebedev-302)
Angular grid pruning method      GridPruning ... 4 (adaptive)
Weight generation scheme         WeightScheme... Becke
Basis function cutoff            BFCut       ... 1.0000e-11
Integration weight cutoff        WCut        ... 1.0000e-14
Angular grids for H and He will be reduced by one unit
Partially contracted basis set               ... off
Rotationally invariant grid construction     ... off

Total number of grid points                  ...   354206
Total number of batches                      ...     5581
Average number of points per batch           ...       63
Average number of grid points per atom       ...     4852
Time for grid setup =    9.118 sec

--------------------
COSX GRID GENERATION
--------------------

GRIDX 1
-------
General Integration Accuracy     IntAcc      ... 3.816
Radial Grid Type                 RadialGrid  ... OptM3 with GC (2021)
Angular Grid (max. ang.)         AngularGrid ... 1 (Lebedev-50)
Angular grid pruning method      GridPruning ... 4 (adaptive)
Weight generation scheme         WeightScheme... Becke
Basis function cutoff            BFCut       ... 1.0000e-11
Integration weight cutoff        WCut        ... 1.0000e-14
Angular grids for H and He will be reduced by one unit
Partially contracted basis set               ... on
Rotationally invariant grid construction     ... off

Total number of grid points                  ...    44949
Total number of batches                      ...      729
Average number of points per batch           ...       61
Average number of grid points per atom       ...      616
UseSFitting                                  ... on

GRIDX 2
-------
General Integration Accuracy     IntAcc      ... 4.020
Radial Grid Type                 RadialGrid  ... OptM3 with GC (2021)
Angular Grid (max. ang.)         AngularGrid ... 2 (Lebedev-110)
Angular grid pruning method      GridPruning ... 4 (adaptive)
Weight generation scheme         WeightScheme... Becke
Basis function cutoff            BFCut       ... 1.0000e-11
Integration weight cutoff        WCut        ... 1.0000e-14
Angular grids for H and He will be reduced by one unit
Partially contracted basis set               ... on
Rotationally invariant grid construction     ... off

Total number of grid points                  ...    97822
Total number of batches                      ...     1566
Average number of points per batch           ...       62
Average number of grid points per atom       ...     1340
UseSFitting                                  ... on

GRIDX 3
-------
General Integration Accuracy     IntAcc      ... 4.338
Radial Grid Type                 RadialGrid  ... OptM3 with GC (2021)
Angular Grid (max. ang.)         AngularGrid ... 3 (Lebedev-194)
Angular grid pruning method      GridPruning ... 4 (adaptive)
Weight generation scheme         WeightScheme... Becke
Basis function cutoff            BFCut       ... 1.0000e-11
Integration weight cutoff        WCut        ... 1.0000e-14
Angular grids for H and He will be reduced by one unit
Partially contracted basis set               ... on
Rotationally invariant grid construction     ... off

Total number of grid points                  ...   214258
Total number of batches                      ...     3384
Average number of points per batch           ...       63
Average number of grid points per atom       ...     2935
UseSFitting                                  ... on

Time for X-Grid setup             =   24.000 sec


--------------------
CPCM SOLVATION MODEL
--------------------
CPCM parameters:
  Epsilon                                         ...      37.7810
  Refrac                                          ...       1.4380
  Rsolv                                           ...       1.3000
  Surface type                                    ... GAUSSIAN VDW
  Epsilon function type                           ...         CPCM
Solvent:                                     ... N,N-DIMETHYLACETAMIDE
SMD-CDS solvent descriptors:
  Soln                                       ...    1.4380
  Soln25                                     ...    1.4358
  Sola                                       ...    0.0000
  Solb                                       ...    0.7800
  Solg                                       ...   47.6200
  Solc                                       ...    0.0000
  Solh                                       ...    0.0000
Radii:
 Radius for C  used is    3.4960 Bohr (=   1.8500 Ang.)
 Radius for H  used is    2.2677 Bohr (=   1.2000 Ang.)
 Radius for N  used is    3.5716 Bohr (=   1.8900 Ang.)
 Radius for O  used is    4.3350 Bohr (=   2.2940 Ang.)
Calculating surface                               ...        done! (  0.0s)
GEPOL surface points                              ...         3975
GEPOL Volume                                      ...    3911.1986
GEPOL Surface-area                                ...    2061.3963
Calculating surface distance matrix               ...        done! (  0.2s)
Performing Cholesky decomposition & store         ...        done! (  2.0s)
Overall time for CPCM initialization              ...                 2.2s
--------------
SCF ITERATIONS
--------------
ITER       Energy         Delta-E        Max-DP      RMS-DP      [F,P]     Damp
               ***  Starting incremental Fock matrix formation  ***
  0  -1742.6816790158   0.000000000000 0.05662001  0.00049154  0.1591581 0.7000
  1  -1743.1058596835  -0.424180667709 0.06055688  0.00042707  0.0984323 0.7000
                               ***Turning on DIIS***
  2  -1743.3517217322  -0.245862048720 0.14639519  0.00101243  0.0585993 0.0000
  3  -1743.7941347976  -0.442413065350 0.02164014  0.00023582  0.0313621 0.0000
  4  -1743.8341517873  -0.040016989772 0.01444947  0.00010531  0.0080004 0.0000
                      *** Initiating the SOSCF procedure ***
                           *** Shutting down DIIS ***
                      *** Re-Reading the Fockian *** 
                      *** Removing any level shift *** 
ITER      Energy       Delta-E        Grad      Rot      Max-DP    RMS-DP
  5  -1743.83557424  -0.0014224513  0.002041  0.002041  0.003206  0.000038
               *** Restarting incremental Fock matrix formation ***
  6  -1743.83547921   0.0000950307  0.001609  0.006788  0.032461  0.000255
  7  -1743.83556531  -0.0000860996  0.000359  0.004169  0.019084  0.000106
  8  -1743.83557987  -0.0000145662  0.000248  0.000746  0.015188  0.000088
  9  -1743.83558703  -0.0000071598  0.000052  0.000232  0.001339  0.000013
 10  -1743.83558753  -0.0000004981  0.000025  0.000103  0.000656  0.000005
 11  -1743.83558761  -0.0000000784  0.000008  0.000049  0.000866  0.000003
 12  -1743.83558759   0.0000000221  0.000003  0.000009  0.000273  0.000001
                  ***Gradient check signals convergence***
              ***Rediagonalizing the Fockian in SOSCF/NRSCF***

               *****************************************************
               *                     SUCCESS                       *
               *           SCF CONVERGED AFTER  13 CYCLES          *
               *****************************************************

Old exchange energy                            =   -158.351855928 Eh
New exchange energy                            =   -158.351753651 Eh
Exchange energy change after final integration =      0.000102277 Eh
Total energy after final integration           =  -1743.835485428 Eh
Final COS-X integration done in                =   420.743 sec

SMD CDS free energy correction energy :                -7.35160     Kcal/mol
Total Energy after SMD CDS correction =             -1743.847200947 Eh

----------------
TOTAL SCF ENERGY
----------------

Total Energy       :        -1743.84720095 Eh          -47452.49478 eV

Components:
Nuclear Repulsion  :         4215.97886236 Eh          114722.61723 eV
Electronic Energy  :        -5959.82606331 Eh         -162175.11201 eV
One Electron Energy:       -10749.78883144 Eh         -292516.62536 eV
Two Electron Energy:         4789.96276813 Eh          130341.51336 eV
Max COSX asymmetry :            0.00001193 Eh               0.00032 eV
CPCM Dielectric    :           -0.03826881 Eh              -1.04135 eV
SMD CDS (Gcds)     :           -0.01171552 Eh              -0.31880 eV

Virial components:
Potential Energy   :        -3482.33759549 Eh          -94759.22344 eV
Kinetic Energy     :         1738.49039455 Eh           47306.72866 eV
Virial Ratio       :            2.00308130


DFT components:
N(Alpha)           :      148.000097882837 electrons
N(Beta)            :      148.000097882837 electrons
N(Total)           :      296.000195765675 electrons
E(X)               :      -85.382401883713 Eh       
E(C)               :       -6.451370045565 Eh       
E(XC)              :      -91.833771929278 Eh       
DFET-embed. en.    :        0.000000000000 Eh       
CPCM Solvation Model Properties:
Surface-charge          :           -0.09734721
Charge-correction       :            0.00050579 Eh               0.01376 eV
Free-energy (cav+disp)  :           -0.01171552 Eh              -0.31880 eV

---------------
SCF CONVERGENCE
---------------

  Last Energy change         ...   -1.1636e-07  Tolerance :   1.0000e-08
  Last MAX-Density change    ...    1.9984e-15  Tolerance :   1.0000e-07
  Last RMS-Density change    ...    1.0405e-17  Tolerance :   5.0000e-09
  Last Orbital Gradient      ...    7.6923e-07  Tolerance :   1.0000e-05
  Last Orbital Rotation      ...    2.5941e-06  Tolerance :   1.0000e-05

             **** THE GBW FILE WAS UPDATED (POZ_5_M06L_def2TZVP_coords.gbw) ****
             **** DENSITY POZ_5_M06L_def2TZVP_coords.scfp WAS UPDATED ****
             **** ENERGY FILE WAS UPDATED (POZ_5_M06L_def2TZVP_coords.en.tmp) ****
             **** THE GBW FILE WAS UPDATED (POZ_5_M06L_def2TZVP_coords.gbw) ****
             **** DENSITY POZ_5_M06L_def2TZVP_coords.scfp WAS UPDATED ****
----------------
ORBITAL ENERGIES
----------------

  NO   OCC          E(Eh)            E(eV) 
   0   2.0000     -19.988397      -543.9119 
   1   2.0000     -15.063663      -409.9031 
   2   2.0000     -10.846028      -295.1354 
   3   2.0000     -10.846009      -295.1349 
   4   2.0000     -10.832207      -294.7593 
   5   2.0000     -10.832190      -294.7589 
   6   2.0000     -10.819544      -294.4148 
   7   2.0000     -10.789211      -293.5894 
   8   2.0000     -10.789204      -293.5892 
   9   2.0000     -10.788814      -293.5786 
  10   2.0000     -10.788812      -293.5785 
  11   2.0000     -10.787123      -293.5325 
  12   2.0000     -10.787119      -293.5324 
  13   2.0000     -10.786808      -293.5240 
  14   2.0000     -10.786803      -293.5238 
  15   2.0000     -10.781013      -293.3663 
  16   2.0000     -10.780996      -293.3658 
  17   2.0000     -10.780114      -293.3418 
  18   2.0000     -10.779535      -293.3261 
  19   2.0000     -10.778836      -293.3070 
  20   2.0000     -10.778048      -293.2856 
  21   2.0000     -10.778047      -293.2856 
  22   2.0000     -10.777409      -293.2682 
  23   2.0000     -10.777409      -293.2682 
  24   2.0000     -10.775590      -293.2187 
  25   2.0000     -10.775587      -293.2186 
  26   2.0000     -10.775458      -293.2151 
  27   2.0000     -10.775457      -293.2151 
  28   2.0000     -10.775378      -293.2129 
  29   2.0000     -10.775375      -293.2129 
  30   2.0000     -10.775327      -293.2115 
  31   2.0000     -10.775324      -293.2115 
  32   2.0000     -10.775154      -293.2069 
  33   2.0000     -10.775153      -293.2068 
  34   2.0000     -10.774377      -293.1857 
  35   2.0000     -10.774373      -293.1856 
  36   2.0000     -10.774326      -293.1843 
  37   2.0000     -10.774324      -293.1843 
  38   2.0000     -10.774316      -293.1840 
  39   2.0000     -10.774311      -293.1839 
  40   2.0000     -10.774121      -293.1787 
  41   2.0000     -10.774120      -293.1787 
  42   2.0000     -10.773247      -293.1550 
  43   2.0000     -10.773246      -293.1549 
  44   2.0000      -1.295930       -35.2640 
  45   2.0000      -1.164418       -31.6854 
  46   2.0000      -1.056689       -28.7540 
  47   2.0000      -1.050533       -28.5865 
  48   2.0000      -1.043411       -28.3927 
  49   2.0000      -1.036646       -28.2086 
  50   2.0000      -1.028763       -27.9941 
  51   2.0000      -1.021351       -27.7924 
  52   2.0000      -1.007816       -27.4241 
  53   2.0000      -0.960034       -26.1238 
  54   2.0000      -0.947939       -25.7947 
  55   2.0000      -0.930524       -25.3208 
  56   2.0000      -0.918986       -25.0069 
  57   2.0000      -0.917190       -24.9580 
  58   2.0000      -0.909753       -24.7556 
  59   2.0000      -0.908952       -24.7338 
  60   2.0000      -0.907744       -24.7010 
  61   2.0000      -0.900341       -24.4995 
  62   2.0000      -0.898406       -24.4469 
  63   2.0000      -0.894980       -24.3537 
  64   2.0000      -0.880895       -23.9704 
  65   2.0000      -0.867057       -23.5938 
  66   2.0000      -0.843417       -22.9505 
  67   2.0000      -0.792886       -21.5755 
  68   2.0000      -0.789131       -21.4733 
  69   2.0000      -0.763124       -20.7656 
  70   2.0000      -0.758163       -20.6307 
  71   2.0000      -0.748781       -20.3754 
  72   2.0000      -0.747568       -20.3423 
  73   2.0000      -0.744443       -20.2573 
  74   2.0000      -0.732023       -19.9194 
  75   2.0000      -0.723622       -19.6908 
  76   2.0000      -0.713357       -19.4114 
  77   2.0000      -0.709985       -19.3197 
  78   2.0000      -0.707679       -19.2569 
  79   2.0000      -0.703260       -19.1367 
  80   2.0000      -0.682923       -18.5833 
  81   2.0000      -0.676637       -18.4122 
  82   2.0000      -0.649804       -17.6821 
  83   2.0000      -0.640637       -17.4326 
  84   2.0000      -0.640348       -17.4248 
  85   2.0000      -0.617005       -16.7896 
  86   2.0000      -0.616419       -16.7736 
  87   2.0000      -0.602317       -16.3899 
  88   2.0000      -0.595530       -16.2052 
  89   2.0000      -0.586340       -15.9551 
  90   2.0000      -0.583735       -15.8842 
  91   2.0000      -0.580149       -15.7867 
  92   2.0000      -0.578539       -15.7428 
  93   2.0000      -0.572527       -15.5793 
  94   2.0000      -0.566495       -15.4151 
  95   2.0000      -0.561836       -15.2883 
  96   2.0000      -0.551046       -14.9947 
  97   2.0000      -0.547339       -14.8939 
  98   2.0000      -0.542066       -14.7504 
  99   2.0000      -0.539826       -14.6894 
 100   2.0000      -0.536791       -14.6068 
 101   2.0000      -0.535287       -14.5659 
 102   2.0000      -0.532714       -14.4959 
 103   2.0000      -0.530905       -14.4467 
 104   2.0000      -0.528093       -14.3701 
 105   2.0000      -0.524296       -14.2668 
 106   2.0000      -0.522894       -14.2287 
 107   2.0000      -0.520336       -14.1591 
 108   2.0000      -0.519888       -14.1469 
 109   2.0000      -0.508150       -13.8275 
 110   2.0000      -0.507492       -13.8096 
 111   2.0000      -0.501185       -13.6379 
 112   2.0000      -0.483454       -13.1555 
 113   2.0000      -0.482578       -13.1316 
 114   2.0000      -0.480923       -13.0866 
 115   2.0000      -0.478897       -13.0315 
 116   2.0000      -0.473302       -12.8792 
 117   2.0000      -0.463599       -12.6152 
 118   2.0000      -0.461160       -12.5488 
 119   2.0000      -0.459621       -12.5069 
 120   2.0000      -0.453705       -12.3459 
 121   2.0000      -0.451610       -12.2889 
 122   2.0000      -0.448562       -12.2060 
 123   2.0000      -0.445482       -12.1222 
 124   2.0000      -0.441982       -12.0269 
 125   2.0000      -0.437143       -11.8953 
 126   2.0000      -0.435496       -11.8505 
 127   2.0000      -0.432425       -11.7669 
 128   2.0000      -0.428817       -11.6687 
 129   2.0000      -0.426123       -11.5954 
 130   2.0000      -0.422826       -11.5057 
 131   2.0000      -0.411325       -11.1927 
 132   2.0000      -0.410850       -11.1798 
 133   2.0000      -0.406722       -11.0675 
 134   2.0000      -0.360793        -9.8177 
 135   2.0000      -0.340675        -9.2702 
 136   2.0000      -0.324835        -8.8392 
 137   2.0000      -0.315362        -8.5814 
 138   2.0000      -0.313800        -8.5389 
 139   2.0000      -0.311732        -8.4826 
 140   2.0000      -0.311470        -8.4755 
 141   2.0000      -0.309592        -8.4244 
 142   2.0000      -0.308562        -8.3964 
 143   2.0000      -0.308390        -8.3917 
 144   2.0000      -0.294334        -8.0092 
 145   2.0000      -0.274402        -7.4669 
 146   2.0000      -0.258493        -7.0340 
 147   2.0000      -0.219262        -5.9664 
 148   0.0000       0.007445         0.2026 
 149   0.0000       0.018911         0.5146 
 150   0.0000       0.042549         1.1578 
 151   0.0000       0.049093         1.3359 
 152   0.0000       0.053018         1.4427 
 153   0.0000       0.053309         1.4506 
 154   0.0000       0.059972         1.6319 
 155   0.0000       0.060993         1.6597 
 156   0.0000       0.065455         1.7811 
 157   0.0000       0.070775         1.9259 
 158   0.0000       0.076734         2.0880 
 159   0.0000       0.082191         2.2365 
 160   0.0000       0.108914         2.9637 
 161   0.0000       0.112409         3.0588 
 162   0.0000       0.119570         3.2537 
 163   0.0000       0.119698         3.2571 
 164   0.0000       0.121199         3.2980 
 165   0.0000       0.124153         3.3784 
 166   0.0000       0.125885         3.4255 
 167   0.0000       0.130911         3.5623 
 168   0.0000       0.131613         3.5814 
 169   0.0000       0.133704         3.6383 
 170   0.0000       0.136321         3.7095 
 171   0.0000       0.143193         3.8965 
 172   0.0000       0.143508         3.9051 
 173   0.0000       0.145252         3.9525 
 174   0.0000       0.152569         4.1516 
 175   0.0000       0.153548         4.1783 
 176   0.0000       0.163280         4.4431 
 177   0.0000       0.163708         4.4547 
 178   0.0000       0.168330         4.5805 
 179   0.0000       0.171140         4.6569 
 180   0.0000       0.173170         4.7122 
 181   0.0000       0.174475         4.7477 
 182   0.0000       0.174618         4.7516 
 183   0.0000       0.178415         4.8549 
 184   0.0000       0.179454         4.8832 
 185   0.0000       0.180887         4.9222 
 186   0.0000       0.183625         4.9967 
 187   0.0000       0.186125         5.0647 
 188   0.0000       0.190173         5.1749 
 189   0.0000       0.191256         5.2043 
 190   0.0000       0.197731         5.3805 
 191   0.0000       0.199537         5.4297 
 192   0.0000       0.208197         5.6653 
 193   0.0000       0.210624         5.7314 
 194   0.0000       0.211380         5.7520 
 195   0.0000       0.213871         5.8197 
 196   0.0000       0.220726         6.0063 
 197   0.0000       0.222270         6.0483 
 198   0.0000       0.225875         6.1464 
 199   0.0000       0.233042         6.3414 
 200   0.0000       0.238122         6.4796 
 201   0.0000       0.238917         6.5013 
 202   0.0000       0.243373         6.6225 
 203   0.0000       0.248902         6.7730 
 204   0.0000       0.251127         6.8335 
 205   0.0000       0.253165         6.8890 
 206   0.0000       0.257211         6.9991 
 207   0.0000       0.257755         7.0139 
 208   0.0000       0.261074         7.1042 
 209   0.0000       0.263888         7.1808 
 210   0.0000       0.266348         7.2477 
 211   0.0000       0.266513         7.2522 
 212   0.0000       0.267322         7.2742 
 213   0.0000       0.269482         7.3330 
 214   0.0000       0.270457         7.3595 
 215   0.0000       0.273722         7.4484 
 216   0.0000       0.276621         7.5272 
 217   0.0000       0.277850         7.5607 
 218   0.0000       0.278381         7.5751 
 219   0.0000       0.282694         7.6925 
 220   0.0000       0.283216         7.7067 
 221   0.0000       0.283317         7.7095 
 222   0.0000       0.288398         7.8477 
 223   0.0000       0.288579         7.8526 
 224   0.0000       0.290285         7.8991 
 225   0.0000       0.293674         7.9913 
 226   0.0000       0.295297         8.0354 
 227   0.0000       0.295693         8.0462 
 228   0.0000       0.299190         8.1414 
 229   0.0000       0.301720         8.2102 
 230   0.0000       0.303988         8.2719 
 231   0.0000       0.310031         8.4364 
 232   0.0000       0.312448         8.5021 
 233   0.0000       0.313767         8.5380 
 234   0.0000       0.314052         8.5458 
 235   0.0000       0.315543         8.5864 
 236   0.0000       0.316290         8.6067 
 237   0.0000       0.320825         8.7301 
 238   0.0000       0.321207         8.7405 
 239   0.0000       0.324148         8.8205 
 240   0.0000       0.326949         8.8967 
 241   0.0000       0.327820         8.9204 
 242   0.0000       0.329541         8.9673 
 243   0.0000       0.332294         9.0422 
 244   0.0000       0.332494         9.0476 
 245   0.0000       0.337045         9.1715 
 246   0.0000       0.339046         9.2259 
 247   0.0000       0.344992         9.3877 
 248   0.0000       0.345807         9.4099 
 249   0.0000       0.349763         9.5175 
 250   0.0000       0.351248         9.5579 
 251   0.0000       0.353347         9.6151 
 252   0.0000       0.353892         9.6299 
 253   0.0000       0.359410         9.7800 
 254   0.0000       0.361124         9.8267 
 255   0.0000       0.366715         9.9788 
 256   0.0000       0.367960        10.0127 
 257   0.0000       0.370049        10.0696 
 258   0.0000       0.373993        10.1769 
 259   0.0000       0.377372        10.2688 
 260   0.0000       0.377678        10.2771 
 261   0.0000       0.381317        10.3762 
 262   0.0000       0.383128        10.4254 
 263   0.0000       0.388933        10.5834 
 264   0.0000       0.389710        10.6045 
 265   0.0000       0.395083        10.7508 
 266   0.0000       0.395458        10.7610 
 267   0.0000       0.401374        10.9219 
 268   0.0000       0.403534        10.9807 
 269   0.0000       0.404499        11.0070 
 270   0.0000       0.405827        11.0431 
 271   0.0000       0.407393        11.0857 
 272   0.0000       0.411438        11.1958 
 273   0.0000       0.412949        11.2369 
 274   0.0000       0.416293        11.3279 
 275   0.0000       0.420913        11.4536 
 276   0.0000       0.421641        11.4734 
 277   0.0000       0.422206        11.4888 
 278   0.0000       0.423769        11.5313 
 279   0.0000       0.424213        11.5434 
 280   0.0000       0.425246        11.5715 
 281   0.0000       0.425604        11.5813 
 282   0.0000       0.426996        11.6192 
 283   0.0000       0.429990        11.7006 
 284   0.0000       0.431354        11.7377 
 285   0.0000       0.436900        11.8887 
 286   0.0000       0.438735        11.9386 
 287   0.0000       0.440399        11.9839 
 288   0.0000       0.442700        12.0465 
 289   0.0000       0.444385        12.0923 
 290   0.0000       0.448239        12.1972 
 291   0.0000       0.452605        12.3160 
 292   0.0000       0.453781        12.3480 
 293   0.0000       0.457723        12.4553 
 294   0.0000       0.461077        12.5465 
 295   0.0000       0.461424        12.5560 
 296   0.0000       0.462209        12.5774 
 297   0.0000       0.462565        12.5870 
 298   0.0000       0.466921        12.7056 
 299   0.0000       0.467464        12.7203 
 300   0.0000       0.468573        12.7505 
 301   0.0000       0.471786        12.8380 
 302   0.0000       0.471968        12.8429 
 303   0.0000       0.475275        12.9329 
 304   0.0000       0.478853        13.0303 
 305   0.0000       0.484183        13.1753 
 306   0.0000       0.484374        13.1805 
 307   0.0000       0.490130        13.3371 
 308   0.0000       0.494775        13.4635 
 309   0.0000       0.495712        13.4890 
 310   0.0000       0.497741        13.5442 
 311   0.0000       0.499826        13.6009 
 312   0.0000       0.500557        13.6209 
 313   0.0000       0.503149        13.6914 
 314   0.0000       0.503555        13.7024 
 315   0.0000       0.505175        13.7465 
 316   0.0000       0.509259        13.8576 
 317   0.0000       0.511313        13.9135 
 318   0.0000       0.512097        13.9349 
 319   0.0000       0.513412        13.9707 
 320   0.0000       0.516331        14.0501 
 321   0.0000       0.518492        14.1089 
 322   0.0000       0.522732        14.2243 
 323   0.0000       0.524341        14.2680 
 324   0.0000       0.524631        14.2759 
 325   0.0000       0.528401        14.3785 
 326   0.0000       0.529857        14.4181 
 327   0.0000       0.532351        14.4860 
 328   0.0000       0.532904        14.5011 
 329   0.0000       0.534212        14.5366 
 330   0.0000       0.537902        14.6371 
 331   0.0000       0.538145        14.6437 
 332   0.0000       0.540944        14.7198 
 333   0.0000       0.545340        14.8395 
 334   0.0000       0.546030        14.8582 
[...]
   136a -> 150a  :     0.022717 
   136a -> 153a  :     0.015808 
   137a -> 150a  :     0.071577 
   137a -> 153a  :     0.034230 
   137a -> 156a  :     0.020529 
   137a -> 158a  :     0.017662 
   138a -> 152a  :     0.440569 
   141a -> 150a  :     0.110174 
   141a -> 153a  :     0.065050 
   141a -> 154a  :     0.011994 
   141a -> 156a  :     0.032227 
   141a -> 158a  :     0.027365 

STATE 21:  E=   0.205012 au      5.579 eV    44995.0 cm**-1 <S**2> =   0.000000
   142a -> 148a  :     0.031928 
   143a -> 149a  :     0.032650 
   145a -> 150a  :     0.023090 
   145a -> 160a  :     0.020337 
   145a -> 164a  :     0.011076 
   146a -> 151a  :     0.024452 
   147a -> 154a  :     0.023024 
   147a -> 160a  :     0.384133 
   147a -> 164a  :     0.150997 
   147a -> 165a  :     0.049746 
   147a -> 167a  :     0.086138 
   147a -> 176a  :     0.016368 

STATE 22:  E=   0.203394 au      5.535 eV    44639.8 cm**-1 <S**2> =   0.000000
   135a -> 149a  :     0.025036 
   136a -> 148a  :     0.097832 
   136a -> 150a  :     0.011754 
   136a -> 154a  :     0.027324 
   137a -> 148a  :     0.065673 
   139a -> 151a  :     0.015073 
   140a -> 153a  :     0.014889 
   141a -> 148a  :     0.012177 
   142a -> 149a  :     0.049018 
   142a -> 157a  :     0.010454 
   143a -> 148a  :     0.023493 
   144a -> 149a  :     0.105146 
   144a -> 151a  :     0.024056 
   144a -> 155a  :     0.032731 
   144a -> 157a  :     0.033898 
   144a -> 159a  :     0.012362 
   145a -> 149a  :     0.097693 
   145a -> 155a  :     0.012391 
   146a -> 148a  :     0.028826 
   146a -> 150a  :     0.021570 
   147a -> 155a  :     0.097437 
   147a -> 157a  :     0.012367 
   147a -> 168a  :     0.011488 

STATE 23:  E=   0.208472 au      5.673 eV    45754.3 cm**-1 <S**2> =   0.000000
   134a -> 148a  :     0.016835 
   135a -> 149a  :     0.015148 
   136a -> 148a  :     0.041654 
   136a -> 150a  :     0.042807 
   136a -> 158a  :     0.011036 
   137a -> 154a  :     0.018694 
   138a -> 152a  :     0.019070 
   139a -> 151a  :     0.019261 
   140a -> 153a  :     0.013454 
   141a -> 148a  :     0.012375 
   141a -> 154a  :     0.011046 
   142a -> 149a  :     0.018395 
   142a -> 155a  :     0.026315 
   143a -> 156a  :     0.015056 
   144a -> 151a  :     0.017347 
   144a -> 155a  :     0.044745 
   144a -> 157a  :     0.012122 
   144a -> 159a  :     0.011627 
   145a -> 151a  :     0.113515 
   145a -> 155a  :     0.023723 
   145a -> 159a  :     0.058070 
   146a -> 150a  :     0.147366 
   146a -> 158a  :     0.017686 
   146a -> 161a  :     0.014791 
   147a -> 151a  :     0.051148 
   147a -> 157a  :     0.020848 
   147a -> 168a  :     0.019324 

STATE 24:  E=   0.208181 au      5.665 eV    45690.5 cm**-1 <S**2> =   0.000000
   134a -> 149a  :     0.010230 
   135a -> 148a  :     0.010363 
   136a -> 149a  :     0.012198 
   136a -> 151a  :     0.026637 
   136a -> 155a  :     0.031273 
   141a -> 149a  :     0.016185 
   141a -> 155a  :     0.014866 
   142a -> 148a  :     0.024417 
   142a -> 153a  :     0.010951 
   142a -> 156a  :     0.012166 
   143a -> 149a  :     0.012412 
   143a -> 151a  :     0.010974 
   143a -> 157a  :     0.014286 
   144a -> 148a  :     0.069816 
   144a -> 150a  :     0.115544 
   144a -> 154a  :     0.029864 
   144a -> 158a  :     0.043052 
   145a -> 150a  :     0.124376 
   145a -> 156a  :     0.022260 
   145a -> 158a  :     0.021255 
   146a -> 155a  :     0.031467 
   146a -> 159a  :     0.031342 
   147a -> 153a  :     0.053197 
   147a -> 154a  :     0.062941 
   147a -> 156a  :     0.031984 
   147a -> 158a  :     0.016871 
   147a -> 160a  :     0.011857 

STATE 25:  E=   0.211162 au      5.746 eV    46344.7 cm**-1 <S**2> =   0.000000
   134a -> 148a  :     0.022619 
   135a -> 149a  :     0.032726 
   139a -> 151a  :     0.068598 
   139a -> 157a  :     0.014171 
   140a -> 150a  :     0.020298 
   140a -> 153a  :     0.054401 
   140a -> 158a  :     0.010109 
   141a -> 150a  :     0.024156 
   142a -> 155a  :     0.014333 
   142a -> 157a  :     0.016491 
   143a -> 156a  :     0.024669 
   144a -> 149a  :     0.025431 
   145a -> 149a  :     0.045881 
   145a -> 151a  :     0.029984 
   145a -> 155a  :     0.028929 
   146a -> 148a  :     0.036496 
   146a -> 150a  :     0.148376 
   146a -> 156a  :     0.029575 
   146a -> 158a  :     0.011394 
   146a -> 161a  :     0.019028 
   147a -> 151a  :     0.067850 
   147a -> 155a  :     0.016390 
   147a -> 159a  :     0.030107 
   147a -> 168a  :     0.032417 

STATE 26:  E=   0.205163 au      5.583 eV    45028.1 cm**-1 <S**2> =   0.000000
   136a -> 148a  :     0.024191 
   137a -> 148a  :     0.017840 
   139a -> 149a  :     0.086992 
   140a -> 148a  :     0.082078 
   140a -> 153a  :     0.012480 
   140a -> 154a  :     0.011794 
   142a -> 149a  :     0.060724 
   142a -> 157a  :     0.010904 
   143a -> 148a  :     0.048952 
   143a -> 154a  :     0.022687 
   144a -> 149a  :     0.011601 
   144a -> 151a  :     0.011146 
   145a -> 149a  :     0.024444 
   145a -> 151a  :     0.024520 
   145a -> 155a  :     0.036850 
   145a -> 159a  :     0.011774 
   146a -> 153a  :     0.044229 
   146a -> 156a  :     0.053331 
   147a -> 155a  :     0.012978 
   147a -> 157a  :     0.249743 
   147a -> 159a  :     0.023326 

STATE 27:  E=   0.204763 au      5.572 eV    44940.2 cm**-1 <S**2> =   0.000000
   139a -> 148a  :     0.090682 
   140a -> 149a  :     0.080239 
   142a -> 148a  :     0.057562 
   142a -> 154a  :     0.029536 
   143a -> 149a  :     0.054020 
   143a -> 159a  :     0.011531 
   145a -> 150a  :     0.019998 
   145a -> 153a  :     0.045326 
   146a -> 151a  :     0.047121 
   146a -> 155a  :     0.030856 
   146a -> 157a  :     0.024660 
   147a -> 156a  :     0.125638 
   147a -> 158a  :     0.161453 
   147a -> 160a  :     0.049568 

STATE 28:  E=   0.215421 au      5.862 eV    47279.5 cm**-1 <S**2> =   0.000000
   137a -> 157a  :     0.010087 
   139a -> 148a  :     0.025822 
   139a -> 150a  :     0.020978 
   139a -> 153a  :     0.023826 
   139a -> 156a  :     0.035056 
   139a -> 158a  :     0.022068 
   140a -> 151a  :     0.048936 
   140a -> 155a  :     0.012622 
   140a -> 157a  :     0.032484 
   142a -> 150a  :     0.024798 
   142a -> 153a  :     0.062299 
   143a -> 151a  :     0.089250 
   143a -> 155a  :     0.011662 
   144a -> 150a  :     0.066705 
   144a -> 156a  :     0.010570 
   145a -> 153a  :     0.012459 
   146a -> 149a  :     0.082152 
   146a -> 151a  :     0.090349 
   146a -> 155a  :     0.044821 
   147a -> 150a  :     0.024105 
   147a -> 153a  :     0.082219 

STATE 29:  E=   0.220981 au      6.013 eV    48499.8 cm**-1 <S**2> =   0.000000
   137a -> 153a  :     0.010889 
   139a -> 151a  :     0.059871 
   139a -> 157a  :     0.063833 
   140a -> 150a  :     0.031873 
   140a -> 153a  :     0.015282 
   140a -> 156a  :     0.055282 
   140a -> 158a  :     0.020441 
   141a -> 148a  :     0.019031 
   142a -> 151a  :     0.112979 
   142a -> 155a  :     0.026931 
   143a -> 150a  :     0.053292 
   143a -> 153a  :     0.101547 
   144a -> 149a  :     0.010849 
   144a -> 151a  :     0.029786 
   146a -> 148a  :     0.032521 
   146a -> 150a  :     0.044148 
   147a -> 151a  :     0.049208 
   147a -> 159a  :     0.092993 

STATE 30:  E=   0.208754 au      5.680 eV    45816.1 cm**-1 <S**2> =   0.000000
   139a -> 148a  :     0.026949 
   139a -> 150a  :     0.020887 
   139a -> 153a  :     0.011731 
   139a -> 156a  :     0.016625 
   140a -> 149a  :     0.033300 
   140a -> 151a  :     0.028519 
   140a -> 157a  :     0.023145 
   141a -> 149a  :     0.011678 
   142a -> 150a  :     0.014585 
   142a -> 153a  :     0.028257 
   143a -> 151a  :     0.032877 
   144a -> 150a  :     0.022590 
   145a -> 148a  :     0.036223 
   145a -> 150a  :     0.012641 
   145a -> 153a  :     0.055250 
   145a -> 156a  :     0.013232 
   145a -> 158a  :     0.027387 
   146a -> 149a  :     0.118459 
   146a -> 151a  :     0.080913 
   146a -> 157a  :     0.035731 
   147a -> 148a  :     0.014425 
   147a -> 150a  :     0.022211 
   147a -> 153a  :     0.127643 
   147a -> 156a  :     0.027773 


-------------------------
TD-DFT-EXCITATION SPECTRA
-------------------------

Center of mass = (  0.0000,  0.0112, -0.0001)
Calculating the Dipole integrals                  ... done
Transforming integrals                            ... done
Calculating the Linear Momentum integrals         ... done
Transforming integrals                            ... done
Calculating angular momentum integrals            ... done
Transforming integrals                            ... done

-----------------------------------------------------------------------------
         ABSORPTION SPECTRUM VIA TRANSITION ELECTRIC DIPOLE MOMENTS
-----------------------------------------------------------------------------
State   Energy    Wavelength  fosc         T2        TX        TY        TZ  
        (cm-1)      (nm)                 (au**2)    (au)      (au)      (au) 
-----------------------------------------------------------------------------
   1   25664.7    389.6   1.127711216  14.46563  -3.80332   0.00141  -0.01881
   2   31613.0    316.3   0.712108278   7.41577  -0.00136  -2.72319   0.00164
   3   30336.0    329.6   0.350412845   3.80275  -1.94955  -0.00160  -0.04462
   4   32894.3    304.0   0.079851321   0.79917  -0.00325   0.89396  -0.00084
   5   35831.5    279.1   0.696040691   6.39506  -2.52877   0.00022  -0.01995
   6   32687.6    305.9   0.000341750   0.00344  -0.00316   0.05858  -0.00012
   7   36101.9    277.0   0.003658118   0.03336  -0.18251   0.00535  -0.00433
   8   36196.8    276.3   0.004864947   0.04425   0.00493   0.21029  -0.00027
   9   36822.2    271.6   0.000026743   0.00024  -0.00077   0.01542  -0.00091
  10   38923.8    256.9   0.000143590   0.00121   0.03209   0.00004  -0.01359
  11   39319.8    254.3   0.000203250   0.00170  -0.00028   0.04125   0.00004
  12   36551.0    273.6   0.002015869   0.01816  -0.13422  -0.00031   0.01187
  13   40455.6    247.2   0.397224608   3.23246   1.79374   0.00021   0.12228
  14   41724.1    239.7   0.000069607   0.00055   0.02304   0.00384   0.00193
  15   42175.8    237.1   0.001374599   0.01073  -0.01953   0.00060   0.10172
  16   38509.6    259.7   0.026477708   0.22635   0.47133  -0.00017  -0.06482
  17   42025.8    237.9   0.020972805   0.16429  -0.00137   0.40532   0.00125
  18   42928.9    232.9   0.097765488   0.74974  -0.83883  -0.00109   0.21472
  19   45567.4    219.5   0.469781179   3.39404  -1.84219   0.00060   0.01964
  20   49769.0    200.9   0.004486714   0.02968   0.00387   0.17223   0.00032
  21   44995.0    222.2   0.055926608   0.40919  -0.43226   0.00620  -0.47149
  22   44639.8    224.0   0.112053763   0.82638   0.00211   0.90904   0.00519
  23   45754.3    218.6   0.133322595   0.95928   0.00338  -0.97942  -0.00015
  24   45690.5    218.9   0.316035756   2.27712  -1.41581  -0.00107   0.52211
  25   46344.7    215.8   0.264105864   1.87609   0.00322   1.36970  -0.00116
  26   45028.1    222.1   0.222184024   1.62444   0.02910  -1.27364  -0.03781
  27   44940.2    222.5   0.379328861   2.77879   1.02550   0.04030  -1.31359
  28   47279.5    211.5   0.874922526   6.09217  -2.41414   0.00013  -0.51389
  29   48499.8    206.2   0.711020732   4.82634   0.00332  -2.19689  -0.00154
  30   45816.1    218.3   0.452769759   3.25338   1.73814   0.00191  -0.48193

-----------------------------------------------------------------------------
         ABSORPTION SPECTRUM VIA TRANSITION VELOCITY DIPOLE MOMENTS
-----------------------------------------------------------------------------
State   Energy    Wavelength   fosc        P2         PX        PY        PZ  
        (cm-1)      (nm)                 (au**2)     (au)      (au)      (au) 
-----------------------------------------------------------------------------
   1   25664.7    389.6   1.459177469   0.25595   0.50591  -0.00019   0.00240
   2   31613.0    316.3   0.832005217   0.17976   0.00021   0.42398  -0.00026
   3   30336.0    329.6   0.491219331   0.10185   0.31905   0.00026   0.00740
   4   32894.3    304.0   0.102417642   0.02303   0.00056  -0.15174   0.00013
   5   35831.5    279.1   0.795692698   0.19486   0.44141  -0.00004   0.00349
   6   32687.6    305.9   0.000519175   0.00012   0.00059  -0.01075   0.00002
   7   36101.9    277.0   0.005074273   0.00125   0.03535  -0.00101   0.00119
   8   36196.8    276.3   0.006354964   0.00157  -0.00096  -0.03964   0.00004
   9   36822.2    271.6   0.000037534   0.00001   0.00015  -0.00306   0.00018
  10   38923.8    256.9   0.000244581   0.00007  -0.00736  -0.00000   0.00330
  11   39319.8    254.3   0.000238393   0.00006   0.00006  -0.00800  -0.00001
  12   36551.0    273.6   0.003409679   0.00085   0.02910   0.00006  -0.00226
  13   40455.6    247.2   0.497091715   0.13744  -0.36989  -0.00004  -0.02502
  14   41724.1    239.7   0.000084588   0.00002  -0.00476  -0.00116  -0.00039
  15   42175.8    237.1   0.001669829   0.00048   0.00401  -0.00013  -0.02157
  16   38509.6    259.7   0.038171266   0.01005  -0.09918   0.00003   0.01446
  17   42025.8    237.9   0.026943822   0.00774   0.00029  -0.08797  -0.00025
  18   42928.9    232.9   0.119015754   0.03492   0.18221   0.00023  -0.04144
  19   45567.4    219.5   0.531485894   0.16552   0.40684  -0.00014  -0.00171
  20   49769.0    200.9   0.004295788   0.00146  -0.00086  -0.03822  -0.00005
  21   44995.0    222.2   0.057151093   0.01758   0.09761  -0.00134   0.08970
  22   44639.8    224.0   0.136079644   0.04152  -0.00049  -0.20375  -0.00104
  23   45754.3    218.6   0.156756384   0.04902  -0.00077   0.22140   0.00006
  24   45690.5    218.9   0.379212364   0.11842   0.32343   0.00024  -0.11752
  25   46344.7    215.8   0.311478084   0.09866  -0.00074  -0.31410   0.00025
  26   45028.1    222.1   0.282469495   0.08693  -0.00674   0.29462   0.00894
  27   44940.2    222.5   0.499352583   0.15337  -0.23775  -0.00933   0.31106
  28   47279.5    211.5   1.054322538   0.34069   0.57098  -0.00003   0.12113
  29   48499.8    206.2   0.821296066   0.27224  -0.00079   0.52176   0.00036
  30   45816.1    218.3   0.590281577   0.18484  -0.41458  -0.00045   0.11385

-------------------------------------------------------------------
                             CD SPECTRUM
-------------------------------------------------------------------
State  Energy     Wavelength     R         MX        MY        MZ   
       (cm-1)       (nm)     (1e40*cgs)   (au)      (au)      (au)  
-------------------------------------------------------------------
   1   25664.7    389.6     41.16162  -0.03228   0.00214   1.88587
   2   31613.0    316.3     65.51883  -0.00096  -0.05103   0.00062
   3   30336.0    329.6     -2.05029  -0.00418   0.00137   0.28002
   4   32894.3    304.0     -4.24270   0.00022  -0.01007   0.00010
   5   35831.5    279.1     36.85837  -0.03613   0.00136   0.66032
   6   32687.6    305.9      4.31840  -0.00001   0.15636   0.00033
   7   36101.9    277.0     -7.50940   0.09134  -0.00453  -0.17686
   8   36196.8    276.3    -16.23040  -0.00237  -0.16365   0.00517
   9   36822.2    271.6      1.14139  -0.00054   0.15705   0.00064
  10   38923.8    256.9      0.09136   0.12083   0.00025   0.27099
  11   39319.8    254.3     -3.35023   0.00023  -0.17227   0.00024
  12   36551.0    273.6     -2.25198   0.01641   0.00056  -0.21688
  13   40455.6    247.2    -50.73270  -0.01987  -0.00177  -0.58850
  14   41724.1    239.7      0.03688   0.00020   0.02314  -0.00791
  15   42175.8    237.1      0.16657   0.11406  -0.00001   0.02537
  16   38509.6    259.7    -13.03527  -0.02235  -0.00028   0.26403
  17   42025.8    237.9    -27.27921   0.00060  -0.14275  -0.00101
  18   42928.9    232.9    -170.03230   0.22191   0.00080  -0.81276
  19   45567.4    219.5    -146.71761   0.17607   0.00209   0.66948
  20   49769.0    200.9     -3.52030  -0.00198  -0.04331  -0.00098
  21   44995.0    222.2    -126.58067   0.22921  -0.00696   0.35922
  22   44639.8    224.0    -394.19715  -0.00205  -0.91977  -0.00608
  23   45754.3    218.6    310.58879   0.00099  -0.67263  -0.00200
  24   45690.5    218.9    392.00346  -0.43113  -0.00625   0.42343
  25   46344.7    215.8    -664.74461   0.00177  -1.02943  -0.00298
  26   45028.1    222.1    1911.29362   0.03450  -3.18465   0.08038
  27   44940.2    222.5    -1304.30336   1.17475   0.08683   3.02589
  28   47279.5    211.5    -982.88006   0.21982  -0.00226   3.02424
  29   48499.8    206.2    167.56902   0.00064  -0.16179   0.00518
  30   45816.1    218.3     44.77483   0.15023  -0.00789   0.34472

Total run time:   358157.265 sec

           *** ORCA-CIS/TD-DFT FINISHED WITHOUT ERROR ***

Maximum memory used throughout the entire CIS-calculation: 10020.5 MB

-----------------------
CIS/TD-DFT TOTAL ENERGY
-----------------------

    E(SCF)  =  -1743.847200947 Eh
    DE(CIS) =      0.116936950 Eh (Root  1)
    ----------------------------- ---------
    E(tot)  =  -1743.730263997 Eh


-------------------------   --------------------
FINAL SINGLE POINT ENERGY     -1743.730263997161
-------------------------   --------------------


                            ***************************************
                            *     ORCA property calculations      *
                            ***************************************


  WARNING: The energy has been calculated at the MP2 level but the densities
           used in the property calculations are still SCF densities
           MP2 response densities have not been calculated 
           use %mp2 Density relaxed end
           or  %mp2 Density unrelaxed end

                                    ---------------------
                                    Active property flags
                                    ---------------------
   (+) Dipole Moment


------------------------------------------------------------------------------
                       ORCA ELECTRIC PROPERTIES CALCULATION
------------------------------------------------------------------------------

Dipole Moment Calculation                       ... on
Quadrupole Moment Calculation                   ... off
Polarizability Calculation                      ... off
GBWName                                         ... POZ_5_M06L_def2TZVP_coords.gbw
Electron density                                ... POZ_5_M06L_def2TZVP_coords.scfp
The origin for moment calculation is the CENTER OF MASS  = ( 0.000004,  0.011184 -0.000097)

-------------
DIPOLE MOMENT
-------------
                                X             Y             Z
Electronic contribution:      0.00079       4.78596      -0.02566
Nuclear contribution   :     -0.00106      -3.31033       0.02858
                        -----------------------------------------
Total Dipole Moment    :     -0.00027       1.47563       0.00292
                        -----------------------------------------
Magnitude (a.u.)       :      1.47563
Magnitude (Debye)      :      3.75075



--------------------
Rotational spectrum 
--------------------
 
Rotational constants in cm-1:     0.003126     0.000782     0.000637 
Rotational constants in MHz :    93.711609    23.448179    19.093811 

 Dipole components along the rotational axes: 
x,y,z [a.u.] :     0.000270     1.475627     0.002935 
x,y,z [Debye]:     0.000687     3.750746     0.007459 

 

Timings for individual modules:

Sum of individual times         ...   371299.433 sec (=6188.324 min)
GTO integral calculation        ...        9.353 sec (=   0.156 min)   0.0 %
SCF iterations                  ...     3127.506 sec (=  52.125 min)   0.8 %
MP2 module                      ...    10003.352 sec (= 166.723 min)   2.7 %
CIS module                      ...   358159.222 sec (=5969.320 min)  96.5 %
                             ****ORCA TERMINATED NORMALLY****
TOTAL RUN TIME: 4 days 7 hours 8 minutes 29 seconds 757 msec
