 Entering Gaussian System, Link 0=g09
 Input=/home/png4rjv/fotokatalizis/benchmark/OPCs/RESTART_2/POZ_5_TPSS_def2TZVP.gjf
 Output=/home/png4rjv/fotokatalizis/benchmark/OPCs/RESTART_2/POZ_5_TPSS_def2TZVP.log
 Initial command:
 /opt/nce/packages/global/g09/l1.exe "/home/png4rjv/fotokatalizis/benchmark/OPCs/RESTART_2/POZ_5_TPSS_def2TZVP/Gau-3751.inp" -scrdir="/home/png4rjv/fotokatalizis/benchmark/OPCs/RESTART_2/POZ_5_TPSS_def2TZVP/"
 Default is to use a total of  12 processors:
                               12 via shared-memory
                                1 via Linda
 Entering Link 1 = /opt/nce/packages/global/g09/l1.exe PID=      3752.
  
 Copyright (c) 1988,1990,1992,1993,1995,1998,2003,2009,2015,
            Gaussian, Inc.  All Rights Reserved.
  
 This is part of the Gaussian(R) 09 program.  It is based on
 the Gaussian(R) 03 system (copyright 2003, Gaussian, Inc.),
 the Gaussian(R) 98 system (copyright 1998, Gaussian, Inc.),
 the Gaussian(R) 94 system (copyright 1995, Gaussian, Inc.),
 the Gaussian 92(TM) system (copyright 1992, Gaussian, Inc.),
 the Gaussian 90(TM) system (copyright 1990, Gaussian, Inc.),
 the Gaussian 88(TM) system (copyright 1988, Gaussian, Inc.),
 the Gaussian 86(TM) system (copyright 1986, Carnegie Mellon
 University), and the Gaussian 82(TM) system (copyright 1983,
 Carnegie Mellon University). Gaussian is a federally registered
 trademark of Gaussian, Inc.
  
 This software contains proprietary and confidential information,
 including trade secrets, belonging to Gaussian, Inc.
  
 This software is provided under written license and may be
 used, copied, transmitted, or stored only in accord with that
 written license.
  
 The following legend is applicable only to US Government
 contracts under FAR:
  
                    RESTRICTED RIGHTS LEGEND
  
 Use, reproduction and disclosure by the US Government is
 subject to restrictions as set forth in subparagraphs (a)
 and (c) of the Commercial Computer Software - Restricted
 Rights clause in FAR 52.227-19.
  
 Gaussian, Inc.
 340 Quinnipiac St., Bldg. 40, Wallingford CT 06492
  
  
 ---------------------------------------------------------------
 Warning -- This program may not be used in any manner that
 competes with the business of Gaussian, Inc. or will provide
 assistance to any competitor of Gaussian, Inc.  The licensee
 of this program is prohibited from giving any competitor of
 Gaussian, Inc. access to this program.  By using this program,
 the user acknowledges that Gaussian, Inc. is engaged in the
 business of creating and licensing software in the field of
 computational chemistry and represents and warrants to the
 licensee that it is not a competitor of Gaussian, Inc. and that
 it will not use this program in any manner prohibited above.
 ---------------------------------------------------------------
  

 Cite this work as:
 Gaussian 09, Revision E.01,
 M. J. Frisch, G. W. Trucks, H. B. Schlegel, G. E. Scuseria, 
 M. A. Robb, J. R. Cheeseman, G. Scalmani, V. Barone, B. Mennucci, 
 G. A. Petersson, H. Nakatsuji, M. Caricato, X. Li, H. P. Hratchian, 
 A. F. Izmaylov, J. Bloino, G. Zheng, J. L. Sonnenberg, M. Hada, 
 M. Ehara, K. Toyota, R. Fukuda, J. Hasegawa, M. Ishida, T. Nakajima, 
 Y. Honda, O. Kitao, H. Nakai, T. Vreven, J. A. Montgomery, Jr., 
 J. E. Peralta, F. Ogliaro, M. Bearpark, J. J. Heyd, E. Brothers, 
 K. N. Kudin, V. N. Staroverov, T. Keith, R. Kobayashi, J. Normand, 
 K. Raghavachari, A. Rendell, J. C. Burant, S. S. Iyengar, J. Tomasi, 
 M. Cossi, N. Rega, J. M. Millam, M. Klene, J. E. Knox, J. B. Cross, 
 V. Bakken, C. Adamo, J. Jaramillo, R. Gomperts, R. E. Stratmann, 
 O. Yazyev, A. J. Austin, R. Cammi, C. Pomelli, J. W. Ochterski, 
 R. L. Martin, K. Morokuma, V. G. Zakrzewski, G. A. Voth, 
 P. Salvador, J. J. Dannenberg, S. Dapprich, A. D. Daniels, 
 O. Farkas, J. B. Foresman, J. V. Ortiz, J. Cioslowski, 
 and D. J. Fox, Gaussian, Inc., Wallingford CT, 2013.
 
 ******************************************
 Gaussian 09:  ES64L-G09RevE.01 30-Nov-2015
                24-Nov-2021 
 ******************************************
 %chk=cp.chk
 Default route:  MaxDisk=500GB
 ----------------------------------------------------------------------
 #p TPSSTPSS/def2TZVP opt freq=noraman nosymm int=ultrafine scrf=(SMD,s
 olvent=n,n-DiMethylAcetamide)
 ----------------------------------------------------------------------
 1/14=-1,18=20,19=15,26=4,38=1/1,3;
 2/9=110,12=2,15=1,17=6,18=5,40=1/2;
 3/5=44,7=101,11=2,16=1,25=1,30=1,70=32201,71=1,72=147,74=2523,75=-5/1,2,3;
 4//1;
 5/5=2,38=5,53=147/2;
 6/7=2,8=2,9=2,10=2,28=1/1;
 7/30=1/1,2,3,16;
 1/14=-1,18=20,19=15,26=4/3(2);
 2/9=110,15=1/2;
 99//99;
 2/9=110,15=1/2;
 3/5=44,7=101,11=2,16=1,25=1,30=1,70=32205,71=1,72=147,74=2523,75=-5/1,2,3;
 4/5=5,16=3,69=1/1;
 5/5=2,38=5,53=147/2;
 7/30=1/1,2,3,16;
 1/14=-1,18=20,19=15,26=4/3(-5);
 2/9=110,15=1/2;
 6/7=2,8=2,9=2,10=2,19=2,28=1/1;
 99/9=1/99;
 Leave Link    1 at Wed Nov 24 00:28:12 2021, MaxMem=           0 cpu:         0.9
 (Enter /opt/nce/packages/global/g09/l101.exe)
 -----
 Title
 -----
 Symbolic Z-matrix:
 Charge =  0 Multiplicity = 1
 C                    -3.61349   1.94303  -0.03788 
 C                    -2.44186   2.68365  -0.01666 
 C                    -1.20226   2.06113   0.08504 
 C                    -1.18007   0.66503   0.15155 
 C                    -2.34011  -0.0694    0.12902 
 C                    -3.5887    0.55568   0.03026 
 C                     1.2268    0.73201   0.52812 
 C                     1.20225   2.06113   0.09474 
 C                     2.44186   2.68365  -0.00336 
 H                     2.4951    3.76245  -0.05599 
 C                     3.61349   1.94303  -0.02208 
 C                     3.5887    0.55568   0.04964 
 C                     2.34011  -0.0694    0.15069 
 H                    -2.4951    3.76245  -0.08392 
 H                    -2.25578  -1.14763   0.20493 
 H                     4.55795   2.46924  -0.08251 
 N                    0.         2.76511   0.11985 
 C                    0.         4.19141   0.03003 
 C                     0.00389   4.80899  -1.21224 
 C                    -0.00389   4.9487    1.19245 
 C                     0.00387   6.19394  -1.29056 
 C                    -0.00388   6.33365   1.11111 
 H                    -0.0068    4.44402   2.15185 
 C                    0.         6.95629  -0.12964 
 H                    -0.00687   6.92277   2.01936 
 H                    0.         8.03857  -0.18951 
 H                     2.25578  -1.14763   0.19466 
 H                    -4.55796   2.46924  -0.13731 
 C                    -4.83304  -0.24122   0.00535 
 C                    -4.87247  -1.49824  -0.60124 
 C                    -6.00975   0.2388    0.57668 
 C                    -6.03753  -2.24111  -0.62842 
 H                    -3.9757   -1.8971   -1.06655 
 C                    -7.17443  -0.5045    0.5499 
 H                    -6.02086   1.21076   1.06866 
 C                    -7.2134   -1.76007  -0.05808 
 H                    -6.03049  -3.2138   -1.1014 
 H                    -8.07809  -0.08817   0.99828 
 C                    -8.46102  -2.55547  -0.08567 
 C                    -8.77955  -3.33583  -1.19751 
 C                    -9.34797  -2.54387   0.99843 
 C                    -9.9468   -4.07982  -1.22554 
 H                    -8.11488  -3.34609  -2.05096 
 C                    -10.50505  -3.28823   0.97122 
 H                    -9.10487  -1.9514    1.8779 
 C                    -10.82016  -4.05979  -0.14097 
 H                    -10.17732  -4.67186  -2.10037 
 H                    -11.17685  -3.27164   1.82023 
 H                    -11.73262  -4.64185  -0.16682 
 C                     4.83303  -0.24122   0.0346 
 C                     4.9324   -1.43831   0.74107 
 C                     5.94981   0.17886  -0.69657 
 C                     6.09746  -2.18118   0.7283 
 H                     4.09557  -1.79722   1.32626 
 C                     7.11449  -0.56443  -0.70975 
 H                     5.90098   1.09088  -1.26846 
 C                     7.21339  -1.76007  -0.00189 
 H                     6.13037  -3.11392   1.28118 
 H                     7.9582   -0.20806  -1.27801 
 C                     8.46101  -2.55548  -0.01426 
 C                     8.87944  -3.25593   1.11756 
 C                     9.24806  -2.62379  -1.15828 
 C                     10.04669  -3.99993   1.10563 
 H                     8.29469  -3.20626   2.03096 
 C                     10.42513  -3.36815  -1.17103 
 H                     8.94503  -2.11125  -2.05773 
 C                     10.82014  -4.05981  -0.03887 
 H                     10.35713  -4.53203   2.00044 
 H                     11.01701  -3.41149  -2.07998 
 H                     11.7326  -4.64187  -0.053 
 O                    0.        -0.0358    0.2997 
 H                     0.00687   6.68329  -2.25868 
 H                     0.00679   4.20453  -2.11176 
 
 NAtoms=     73 NQM=       73 NQMF=       0 NMMI=      0 NMMIF=      0
                NMic=       0 NMicF=      0.
                    Isotopes and Nuclear Properties:
 (Nuclear quadrupole moments (NQMom) in fm**2, nuclear magnetic moments (NMagM)
  in nuclear magnetons)

  Atom         1           2           3           4           5           6           7           8           9          10
 IAtWgt=          12          12          12          12          12          12          12          12          12           1
 AtmWgt=  12.0000000  12.0000000  12.0000000  12.0000000  12.0000000  12.0000000  12.0000000  12.0000000  12.0000000   1.0078250
 NucSpn=           0           0           0           0           0           0           0           0           0           1
 AtZEff=   0.0000000   0.0000000   0.0000000   0.0000000   0.0000000   0.0000000   0.0000000   0.0000000   0.0000000   0.0000000
 NQMom=    0.0000000   0.0000000   0.0000000   0.0000000   0.0000000   0.0000000   0.0000000   0.0000000   0.0000000   0.0000000
 NMagM=    0.0000000   0.0000000   0.0000000   0.0000000   0.0000000   0.0000000   0.0000000   0.0000000   0.0000000   2.7928460
 AtZNuc=   6.0000000   6.0000000   6.0000000   6.0000000   6.0000000   6.0000000   6.0000000   6.0000000   6.0000000   1.0000000

  Atom        11          12          13          14          15          16          17          18          19          20
 IAtWgt=          12          12          12           1           1           1          14          12          12          12
 AtmWgt=  12.0000000  12.0000000  12.0000000   1.0078250   1.0078250   1.0078250  14.0030740  12.0000000  12.0000000  12.0000000
 NucSpn=           0           0           0           1           1           1           2           0           0           0
 AtZEff=   0.0000000   0.0000000   0.0000000   0.0000000   0.0000000   0.0000000   0.0000000   0.0000000   0.0000000   0.0000000
 NQMom=    0.0000000   0.0000000   0.0000000   0.0000000   0.0000000   0.0000000   2.0440000   0.0000000   0.0000000   0.0000000
 NMagM=    0.0000000   0.0000000   0.0000000   2.7928460   2.7928460   2.7928460   0.4037610   0.0000000   0.0000000   0.0000000
 AtZNuc=   6.0000000   6.0000000   6.0000000   1.0000000   1.0000000   1.0000000   7.0000000   6.0000000   6.0000000   6.0000000

  Atom        21          22          23          24          25          26          27          28          29          30
 IAtWgt=          12          12           1          12           1           1           1           1          12          12
 AtmWgt=  12.0000000  12.0000000   1.0078250  12.0000000   1.0078250   1.0078250   1.0078250   1.0078250  12.0000000  12.0000000
 NucSpn=           0           0           1           0           1           1           1           1           0           0
 AtZEff=   0.0000000   0.0000000   0.0000000   0.0000000   0.0000000   0.0000000   0.0000000   0.0000000   0.0000000   0.0000000
 NQMom=    0.0000000   0.0000000   0.0000000   0.0000000   0.0000000   0.0000000   0.0000000   0.0000000   0.0000000   0.0000000
 NMagM=    0.0000000   0.0000000   2.7928460   0.0000000   2.7928460   2.7928460   2.7928460   2.7928460   0.0000000   0.0000000
 AtZNuc=   6.0000000   6.0000000   1.0000000   6.0000000   1.0000000   1.0000000   1.0000000   1.0000000   6.0000000   6.0000000

  Atom        31          32          33          34          35          36          37          38          39          40
 IAtWgt=          12          12           1          12           1          12           1           1          12          12
 AtmWgt=  12.0000000  12.0000000   1.0078250  12.0000000   1.0078250  12.0000000   1.0078250   1.0078250  12.0000000  12.0000000
 NucSpn=           0           0           1           0           1           0           1           1           0           0
 AtZEff=   0.0000000   0.0000000   0.0000000   0.0000000   0.0000000   0.0000000   0.0000000   0.0000000   0.0000000   0.0000000
 NQMom=    0.0000000   0.0000000   0.0000000   0.0000000   0.0000000   0.0000000   0.0000000   0.0000000   0.0000000   0.0000000
 NMagM=    0.0000000   0.0000000   2.7928460   0.0000000   2.7928460   0.0000000   2.7928460   2.7928460   0.0000000   0.0000000
 AtZNuc=   6.0000000   6.0000000   1.0000000   6.0000000   1.0000000   6.0000000   1.0000000   1.0000000   6.0000000   6.0000000

  Atom        41          42          43          44          45          46          47          48          49          50
 IAtWgt=          12          12           1          12           1          12           1           1           1          12
 AtmWgt=  12.0000000  12.0000000   1.0078250  12.0000000   1.0078250  12.0000000   1.0078250   1.0078250   1.0078250  12.0000000
 NucSpn=           0           0           1           0           1           0           1           1           1           0
 AtZEff=   0.0000000   0.0000000   0.0000000   0.0000000   0.0000000   0.0000000   0.0000000   0.0000000   0.0000000   0.0000000
 NQMom=    0.0000000   0.0000000   0.0000000   0.0000000   0.0000000   0.0000000   0.0000000   0.0000000   0.0000000   0.0000000
 NMagM=    0.0000000   0.0000000   2.7928460   0.0000000   2.7928460   0.0000000   2.7928460   2.7928460   2.7928460   0.0000000
 AtZNuc=   6.0000000   6.0000000   1.0000000   6.0000000   1.0000000   6.0000000   1.0000000   1.0000000   1.0000000   6.0000000

  Atom        51          52          53          54          55          56          57          58          59          60
 IAtWgt=          12          12          12           1          12           1          12           1           1          12
 AtmWgt=  12.0000000  12.0000000  12.0000000   1.0078250  12.0000000   1.0078250  12.0000000   1.0078250   1.0078250  12.0000000
 NucSpn=           0           0           0           1           0           1           0           1           1           0
 AtZEff=   0.0000000   0.0000000   0.0000000   0.0000000   0.0000000   0.0000000   0.0000000   0.0000000   0.0000000   0.0000000
 NQMom=    0.0000000   0.0000000   0.0000000   0.0000000   0.0000000   0.0000000   0.0000000   0.0000000   0.0000000   0.0000000
 NMagM=    0.0000000   0.0000000   0.0000000   2.7928460   0.0000000   2.7928460   0.0000000   2.7928460   2.7928460   0.0000000
 AtZNuc=   6.0000000   6.0000000   6.0000000   1.0000000   6.0000000   1.0000000   6.0000000   1.0000000   1.0000000   6.0000000

  Atom        61          62          63          64          65          66          67          68          69          70
 IAtWgt=          12          12          12           1          12           1          12           1           1           1
 AtmWgt=  12.0000000  12.0000000  12.0000000   1.0078250  12.0000000   1.0078250  12.0000000   1.0078250   1.0078250   1.0078250
 NucSpn=           0           0           0           1           0           1           0           1           1           1
 AtZEff=   0.0000000   0.0000000   0.0000000   0.0000000   0.0000000   0.0000000   0.0000000   0.0000000   0.0000000   0.0000000
 NQMom=    0.0000000   0.0000000   0.0000000   0.0000000   0.0000000   0.0000000   0.0000000   0.0000000   0.0000000   0.0000000
 NMagM=    0.0000000   0.0000000   0.0000000   2.7928460   0.0000000   2.7928460   0.0000000   2.7928460   2.7928460   2.7928460
 AtZNuc=   6.0000000   6.0000000   6.0000000   1.0000000   6.0000000   1.0000000   6.0000000   1.0000000   1.0000000   1.0000000

  Atom        71          72          73
 IAtWgt=          16           1           1
 AtmWgt=  15.9949146   1.0078250   1.0078250
 NucSpn=           0           1           1
 AtZEff=   0.0000000   0.0000000   0.0000000
 NQMom=    0.0000000   0.0000000   0.0000000
 NMagM=    0.0000000   2.7928460   2.7928460
 AtZNuc=   8.0000000   1.0000000   1.0000000
 Leave Link  101 at Wed Nov 24 00:28:12 2021, MaxMem=  5242880000 cpu:         4.4
 (Enter /opt/nce/packages/global/g09/l103.exe)

 GradGradGradGradGradGradGradGradGradGradGradGradGradGradGradGradGradGrad
 Berny optimization.
 Initialization pass.
                           ----------------------------
                           !    Initial Parameters    !
                           ! (Angstroms and Degrees)  !
 --------------------------                            --------------------------
 ! Name  Definition              Value          Derivative Info.                !
 --------------------------------------------------------------------------------
 ! R1    R(1,2)                  1.3862         estimate D2E/DX2                !
 ! R2    R(1,6)                  1.3892         estimate D2E/DX2                !
 ! R3    R(1,28)                 1.0857         estimate D2E/DX2                !
 ! R4    R(2,3)                  1.3909         estimate D2E/DX2                !
 ! R5    R(2,14)                 1.0822         estimate D2E/DX2                !
 ! R6    R(3,4)                  1.3979         estimate D2E/DX2                !
 ! R7    R(3,17)                 1.3936         estimate D2E/DX2                !
 ! R8    R(4,5)                  1.3732         estimate D2E/DX2                !
 ! R9    R(4,71)                 1.3805         estimate D2E/DX2                !
 ! R10   R(5,6)                  1.3998         estimate D2E/DX2                !
 ! R11   R(5,15)                 1.0842         estimate D2E/DX2                !
 ! R12   R(6,29)                 1.4779         estimate D2E/DX2                !
 ! R13   R(7,8)                  1.3982         estimate D2E/DX2                !
 ! R14   R(7,13)                 1.4227         estimate D2E/DX2                !
 ! R15   R(7,71)                 1.4652         estimate D2E/DX2                !
 ! R16   R(8,9)                  1.3906         estimate D2E/DX2                !
 ! R17   R(8,17)                 1.3934         estimate D2E/DX2                !
 ! R18   R(9,10)                 1.0814         estimate D2E/DX2                !
 ! R19   R(9,11)                 1.3862         estimate D2E/DX2                !
 ! R20   R(11,12)                1.3894         estimate D2E/DX2                !
 ! R21   R(11,16)                1.0828         estimate D2E/DX2                !
 ! R22   R(12,13)                1.4            estimate D2E/DX2                !
 ! R23   R(12,50)                1.4777         estimate D2E/DX2                !
 ! R24   R(13,27)                1.0824         estimate D2E/DX2                !
 ! R25   R(17,18)                1.4291         estimate D2E/DX2                !
 ! R26   R(18,19)                1.3873         estimate D2E/DX2                !
 ! R27   R(18,20)                1.3874         estimate D2E/DX2                !
 ! R28   R(19,21)                1.3872         estimate D2E/DX2                !
 ! R29   R(19,73)                1.0838         estimate D2E/DX2                !
 ! R30   R(20,22)                1.3873         estimate D2E/DX2                !
 ! R31   R(20,23)                1.084          estimate D2E/DX2                !
 ! R32   R(21,24)                1.3889         estimate D2E/DX2                !
 ! R33   R(21,72)                1.0848         estimate D2E/DX2                !
 ! R34   R(22,24)                1.3882         estimate D2E/DX2                !
 ! R35   R(22,25)                1.0826         estimate D2E/DX2                !
 ! R36   R(24,26)                1.0839         estimate D2E/DX2                !
 ! R37   R(29,30)                1.3963         estimate D2E/DX2                !
 ! R38   R(29,31)                1.3934         estimate D2E/DX2                !
 ! R39   R(30,32)                1.382          estimate D2E/DX2                !
 ! R40   R(30,33)                1.0862         estimate D2E/DX2                !
 ! R41   R(31,34)                1.3819         estimate D2E/DX2                !
 ! R42   R(31,35)                1.0894         estimate D2E/DX2                !
 ! R43   R(32,36)                1.3926         estimate D2E/DX2                !
 ! R44   R(32,37)                1.0816         estimate D2E/DX2                !
 ! R45   R(34,36)                1.3956         estimate D2E/DX2                !
 ! R46   R(34,38)                1.0913         estimate D2E/DX2                !
 ! R47   R(36,39)                1.4799         estimate D2E/DX2                !
 ! R48   R(39,40)                1.3952         estimate D2E/DX2                !
 ! R49   R(39,41)                1.4007         estimate D2E/DX2                !
 ! R50   R(40,42)                1.3845         estimate D2E/DX2                !
 ! R51   R(40,43)                1.0818         estimate D2E/DX2                !
 ! R52   R(41,44)                1.3761         estimate D2E/DX2                !
 ! R53   R(41,45)                1.0879         estimate D2E/DX2                !
 ! R54   R(42,46)                1.3926         estimate D2E/DX2                !
 ! R55   R(42,47)                1.0812         estimate D2E/DX2                !
 ! R56   R(44,46)                1.3898         estimate D2E/DX2                !
 ! R57   R(44,48)                1.0828         estimate D2E/DX2                !
 ! R58   R(46,49)                1.0826         estimate D2E/DX2                !
 ! R59   R(50,51)                1.3936         estimate D2E/DX2                !
 ! R60   R(50,52)                1.3994         estimate D2E/DX2                !
 ! R61   R(51,53)                1.3818         estimate D2E/DX2                !
 ! R62   R(51,54)                1.0824         estimate D2E/DX2                !
 ! R63   R(52,55)                1.3817         estimate D2E/DX2                !
 ! R64   R(52,56)                1.0776         estimate D2E/DX2                !
 ! R65   R(53,57)                1.3985         estimate D2E/DX2                !
 ! R66   R(53,58)                1.0848         estimate D2E/DX2                !
 ! R67   R(55,57)                1.393          estimate D2E/DX2                !
 ! R68   R(55,59)                1.0778         estimate D2E/DX2                !
 ! R69   R(57,60)                1.4797         estimate D2E/DX2                !
 ! R70   R(60,61)                1.3952         estimate D2E/DX2                !
 ! R71   R(60,62)                1.3903         estimate D2E/DX2                !
 ! R72   R(61,63)                1.3842         estimate D2E/DX2                !
 ! R73   R(61,64)                1.0857         estimate D2E/DX2                !
 ! R74   R(62,65)                1.3927         estimate D2E/DX2                !
 ! R75   R(62,66)                1.0787         estimate D2E/DX2                !
 ! R76   R(63,67)                1.3826         estimate D2E/DX2                !
 ! R77   R(63,68)                1.0864         estimate D2E/DX2                !
 ! R78   R(65,67)                1.3843         estimate D2E/DX2                !
 ! R79   R(65,69)                1.0855         estimate D2E/DX2                !
 ! R80   R(67,70)                1.0824         estimate D2E/DX2                !
 ! A1    A(2,1,6)              121.1779         estimate D2E/DX2                !
 ! A2    A(2,1,28)             118.5346         estimate D2E/DX2                !
 ! A3    A(6,1,28)             120.2659         estimate D2E/DX2                !
 ! A4    A(1,2,3)              121.0154         estimate D2E/DX2                !
 ! A5    A(1,2,14)             119.3435         estimate D2E/DX2                !
 ! A6    A(3,2,14)             119.6407         estimate D2E/DX2                !
 ! A7    A(2,3,4)              117.687          estimate D2E/DX2                !
 ! A8    A(2,3,17)             122.9974         estimate D2E/DX2                !
 ! A9    A(4,3,17)             119.3154         estimate D2E/DX2                !
 ! A10   A(3,4,5)              121.3307         estimate D2E/DX2                !
 ! A11   A(3,4,71)             121.7166         estimate D2E/DX2                !
 ! A12   A(5,4,71)             116.8972         estimate D2E/DX2                !
 ! A13   A(4,5,6)              121.0547         estimate D2E/DX2                !
 ! A14   A(4,5,15)             117.7135         estimate D2E/DX2                !
 ! A15   A(6,5,15)             121.2258         estimate D2E/DX2                !
 ! A16   A(1,6,5)              117.7307         estimate D2E/DX2                !
 ! A17   A(1,6,29)             121.5098         estimate D2E/DX2                !
 ! A18   A(5,6,29)             120.7591         estimate D2E/DX2                !
 ! A19   A(8,7,13)             117.8379         estimate D2E/DX2                !
 ! A20   A(8,7,71)             115.7933         estimate D2E/DX2                !
 ! A21   A(13,7,71)            108.5816         estimate D2E/DX2                !
 ! A22   A(7,8,9)              115.5791         estimate D2E/DX2                !
 ! A23   A(7,8,17)             119.3284         estimate D2E/DX2                !
 ! A24   A(9,8,17)             122.9719         estimate D2E/DX2                !
 ! A25   A(8,9,10)             119.5977         estimate D2E/DX2                !
 ! A26   A(8,9,11)             121.0116         estimate D2E/DX2                !
 ! A27   A(10,9,11)            119.3879         estimate D2E/DX2                !
 ! A28   A(9,11,12)            121.178          estimate D2E/DX2                !
 ! A29   A(9,11,16)            118.5756         estimate D2E/DX2                !
 ! A30   A(12,11,16)           120.2426         estimate D2E/DX2                !
 ! A31   A(11,12,13)           117.7404         estimate D2E/DX2                !
 ! A32   A(11,12,50)           121.5287         estimate D2E/DX2                !
 ! A33   A(13,12,50)           120.7279         estimate D2E/DX2                !
 ! A34   A(7,13,12)            117.7451         estimate D2E/DX2                !
 ! A35   A(7,13,27)            119.2994         estimate D2E/DX2                !
 ! A36   A(12,13,27)           121.1435         estimate D2E/DX2                !
 ! A37   A(3,17,8)             119.2532         estimate D2E/DX2                !
 ! A38   A(3,17,18)            120.1701         estimate D2E/DX2                !
 ! A39   A(8,17,18)            120.2042         estimate D2E/DX2                !
 ! A40   A(17,18,19)           120.0371         estimate D2E/DX2                !
 ! A41   A(17,18,20)           119.4796         estimate D2E/DX2                !
 ! A42   A(19,18,20)           120.4833         estimate D2E/DX2                !
 ! A43   A(18,19,21)           119.6704         estimate D2E/DX2                !
 ! A44   A(18,19,73)           119.666          estimate D2E/DX2                !
 ! A45   A(21,19,73)           120.6636         estimate D2E/DX2                !
 ! A46   A(18,20,22)           119.7216         estimate D2E/DX2                !
 ! A47   A(18,20,23)           119.1708         estimate D2E/DX2                !
 ! A48   A(22,20,23)           121.1077         estimate D2E/DX2                !
 ! A49   A(19,21,24)           120.0552         estimate D2E/DX2                !
 ! A50   A(19,21,72)           120.0511         estimate D2E/DX2                !
 ! A51   A(24,21,72)           119.8937         estimate D2E/DX2                !
 ! A52   A(20,22,24)           120.0099         estimate D2E/DX2                !
 ! A53   A(20,22,25)           119.6069         estimate D2E/DX2                !
 ! A54   A(24,22,25)           120.3832         estimate D2E/DX2                !
 ! A55   A(21,24,22)           120.0597         estimate D2E/DX2                !
 ! A56   A(21,24,26)           120.1256         estimate D2E/DX2                !
 ! A57   A(22,24,26)           119.8147         estimate D2E/DX2                !
 ! A58   A(6,29,30)            121.1009         estimate D2E/DX2                !
 ! A59   A(6,29,31)            121.2246         estimate D2E/DX2                !
 ! A60   A(30,29,31)           117.6728         estimate D2E/DX2                !
 ! A61   A(29,30,32)           121.0823         estimate D2E/DX2                !
 ! A62   A(29,30,33)           119.5629         estimate D2E/DX2                !
 ! A63   A(32,30,33)           119.3531         estimate D2E/DX2                !
 ! A64   A(29,31,34)           121.2328         estimate D2E/DX2                !
 ! A65   A(29,31,35)           120.0747         estimate D2E/DX2                !
 ! A66   A(34,31,35)           118.687          estimate D2E/DX2                !
 ! A67   A(30,32,36)           121.2033         estimate D2E/DX2                !
 ! A68   A(30,32,37)           119.1116         estimate D2E/DX2                !
 ! A69   A(36,32,37)           119.6851         estimate D2E/DX2                !
 ! A70   A(31,34,36)           121.0565         estimate D2E/DX2                !
 ! A71   A(31,34,38)           118.9947         estimate D2E/DX2                !
 ! A72   A(36,34,38)           119.9401         estimate D2E/DX2                !
 ! A73   A(32,36,34)           117.7506         estimate D2E/DX2                !
 ! A74   A(32,36,39)           121.2354         estimate D2E/DX2                !
 ! A75   A(34,36,39)           121.0125         estimate D2E/DX2                !
 ! A76   A(36,39,40)           120.5275         estimate D2E/DX2                !
 ! A77   A(36,39,41)           120.9941         estimate D2E/DX2                !
 ! A78   A(40,39,41)           118.4784         estimate D2E/DX2                !
 ! A79   A(39,40,42)           120.6091         estimate D2E/DX2                !
 ! A80   A(39,40,43)           119.586          estimate D2E/DX2                !
 ! A81   A(42,40,43)           119.7976         estimate D2E/DX2                !
 ! A82   A(39,41,44)           120.8397         estimate D2E/DX2                !
 ! A83   A(39,41,45)           119.2532         estimate D2E/DX2                !
 ! A84   A(44,41,45)           119.8974         estimate D2E/DX2                !
 ! A85   A(40,42,46)           120.3466         estimate D2E/DX2                !
 ! A86   A(40,42,47)           119.3667         estimate D2E/DX2                !
 ! A87   A(46,42,47)           120.2856         estimate D2E/DX2                !
 ! A88   A(41,44,46)           120.4485         estimate D2E/DX2                !
 ! A89   A(41,44,48)           119.8614         estimate D2E/DX2                !
 ! A90   A(46,44,48)           119.6899         estimate D2E/DX2                !
 ! A91   A(42,46,44)           119.276          estimate D2E/DX2                !
 ! A92   A(42,46,49)           120.1482         estimate D2E/DX2                !
 ! A93   A(44,46,49)           120.5757         estimate D2E/DX2                !
 ! A94   A(12,50,51)           121.2069         estimate D2E/DX2                !
 ! A95   A(12,50,52)           121.0273         estimate D2E/DX2                !
 ! A96   A(51,50,52)           117.765          estimate D2E/DX2                !
 ! A97   A(50,51,53)           121.1479         estimate D2E/DX2                !
 ! A98   A(50,51,54)           120.2523         estimate D2E/DX2                !
 ! A99   A(53,51,54)           118.5934         estimate D2E/DX2                !
 ! A100  A(50,52,55)           121.0776         estimate D2E/DX2                !
 ! A101  A(50,52,56)           119.682          estimate D2E/DX2                !
 ! A102  A(55,52,56)           119.2371         estimate D2E/DX2                !
 ! A103  A(51,53,57)           121.046          estimate D2E/DX2                !
 ! A104  A(51,53,58)           118.8895         estimate D2E/DX2                !
 ! A105  A(57,53,58)           120.0539         estimate D2E/DX2                !
 ! A106  A(52,55,57)           121.1132         estimate D2E/DX2                !
 ! A107  A(52,55,59)           119.1424         estimate D2E/DX2                !
 ! A108  A(57,55,59)           119.7443         estimate D2E/DX2                !
 ! A109  A(53,57,55)           117.8481         estimate D2E/DX2                !
 ! A110  A(53,57,60)           121.0182         estimate D2E/DX2                !
 ! A111  A(55,57,60)           121.1326         estimate D2E/DX2                !
 ! A112  A(57,60,61)           121.0614         estimate D2E/DX2                !
 ! A113  A(57,60,62)           120.705          estimate D2E/DX2                !
 ! A114  A(61,60,62)           118.2336         estimate D2E/DX2                !
 ! A115  A(60,61,63)           121.0456         estimate D2E/DX2                !
 ! A116  A(60,61,64)           119.8665         estimate D2E/DX2                !
 ! A117  A(63,61,64)           119.0783         estimate D2E/DX2                !
 ! A118  A(60,62,65)           120.8126         estimate D2E/DX2                !
 ! A119  A(60,62,66)           120.2498         estimate D2E/DX2                !
 ! A120  A(65,62,66)           118.9301         estimate D2E/DX2                !
 ! A121  A(61,63,67)           120.1403         estimate D2E/DX2                !
 ! A122  A(61,63,68)           119.8101         estimate D2E/DX2                !
 ! A123  A(67,63,68)           120.0484         estimate D2E/DX2                !
 ! A124  A(62,65,67)           120.048          estimate D2E/DX2                !
 ! A125  A(62,65,69)           119.3282         estimate D2E/DX2                !
 ! A126  A(67,65,69)           120.6166         estimate D2E/DX2                !
 ! A127  A(63,67,65)           119.7182         estimate D2E/DX2                !
 ! A128  A(63,67,70)           120.3759         estimate D2E/DX2                !
 ! A129  A(65,67,70)           119.9057         estimate D2E/DX2                !
 ! A130  A(4,71,7)             117.8037         estimate D2E/DX2                !
 ! D1    D(6,1,2,3)             -0.5468         estimate D2E/DX2                !
 ! D2    D(6,1,2,14)           179.235          estimate D2E/DX2                !
 ! D3    D(28,1,2,3)          -178.8611         estimate D2E/DX2                !
 ! D4    D(28,1,2,14)            0.9207         estimate D2E/DX2                !
 ! D5    D(2,1,6,5)              0.3647         estimate D2E/DX2                !
 ! D6    D(2,1,6,29)          -179.8703         estimate D2E/DX2                !
 ! D7    D(28,1,6,5)           178.65           estimate D2E/DX2                !
 ! D8    D(28,1,6,29)           -1.585          estimate D2E/DX2                !
 ! D9    D(1,2,3,4)              0.6168         estimate D2E/DX2                !
 ! D10   D(1,2,3,17)          -179.5179         estimate D2E/DX2                !
 ! D11   D(14,2,3,4)          -179.1644         estimate D2E/DX2                !
 ! D12   D(14,2,3,17)            0.701          estimate D2E/DX2                !
 ! D13   D(2,3,4,5)             -0.5422         estimate D2E/DX2                !
 ! D14   D(2,3,4,71)          -177.7479         estimate D2E/DX2                !
 ! D15   D(17,3,4,5)           179.5873         estimate D2E/DX2                !
 ! D16   D(17,3,4,71)            2.3816         estimate D2E/DX2                !
 ! D17   D(2,3,17,8)          -173.9437         estimate D2E/DX2                !
 ! D18   D(2,3,17,18)           -0.934          estimate D2E/DX2                !
 ! D19   D(4,3,17,8)             5.9196         estimate D2E/DX2                !
 ! D20   D(4,3,17,18)          178.9293         estimate D2E/DX2                !
 ! D21   D(3,4,5,6)              0.39           estimate D2E/DX2                !
 ! D22   D(3,4,5,15)          -178.7342         estimate D2E/DX2                !
 ! D23   D(71,4,5,6)           177.7248         estimate D2E/DX2                !
 ! D24   D(71,4,5,15)           -1.3994         estimate D2E/DX2                !
 ! D25   D(3,4,71,7)             6.3136         estimate D2E/DX2                !
 ! D26   D(5,4,71,7)          -171.0101         estimate D2E/DX2                !
 ! D27   D(4,5,6,1)             -0.2878         estimate D2E/DX2                !
 ! D28   D(4,5,6,29)           179.9453         estimate D2E/DX2                !
 ! D29   D(15,5,6,1)           178.8056         estimate D2E/DX2                !
 ! D30   D(15,5,6,29)           -0.9613         estimate D2E/DX2                !
 ! D31   D(1,6,29,30)          146.2889         estimate D2E/DX2                !
 ! D32   D(1,6,29,31)          -33.2175         estimate D2E/DX2                !
 ! D33   D(5,6,29,30)          -33.9531         estimate D2E/DX2                !
 ! D34   D(5,6,29,31)          146.5405         estimate D2E/DX2                !
 ! D35   D(13,7,8,9)           -33.4213         estimate D2E/DX2                !
 ! D36   D(13,7,8,17)          162.6334         estimate D2E/DX2                !
 ! D37   D(71,7,8,9)          -164.3745         estimate D2E/DX2                !
 ! D38   D(71,7,8,17)           31.6802         estimate D2E/DX2                !
 ! D39   D(8,7,13,12)           34.0348         estimate D2E/DX2                !
 ! D40   D(8,7,13,27)         -161.109          estimate D2E/DX2                !
 ! D41   D(71,7,13,12)         168.1949         estimate D2E/DX2                !
 ! D42   D(71,7,13,27)         -26.949          estimate D2E/DX2                !
 ! D43   D(8,7,71,4)           -22.8679         estimate D2E/DX2                !
 ! D44   D(13,7,71,4)         -158.073          estimate D2E/DX2                !
 ! D45   D(7,8,9,10)          -162.8158         estimate D2E/DX2                !
 ! D46   D(7,8,9,11)            16.5668         estimate D2E/DX2                !
 ! D47   D(17,8,9,10)            0.4821         estimate D2E/DX2                !
 ! D48   D(17,8,9,11)          179.8646         estimate D2E/DX2                !
 ! D49   D(7,8,17,3)           -23.6697         estimate D2E/DX2                !
 ! D50   D(7,8,17,18)          163.323          estimate D2E/DX2                !
 ! D51   D(9,8,17,3)           173.6282         estimate D2E/DX2                !
 ! D52   D(9,8,17,18)            0.6209         estimate D2E/DX2                !
 ! D53   D(8,9,11,12)            0.3265         estimate D2E/DX2                !
 ! D54   D(8,9,11,16)         -178.9659         estimate D2E/DX2                !
 ! D55   D(10,9,11,12)         179.7103         estimate D2E/DX2                !
 ! D56   D(10,9,11,16)           0.4179         estimate D2E/DX2                !
 ! D57   D(9,11,12,13)          -0.4239         estimate D2E/DX2                !
 ! D58   D(9,11,12,50)        -179.8043         estimate D2E/DX2                !
 ! D59   D(16,11,12,13)        178.8567         estimate D2E/DX2                !
 ! D60   D(16,11,12,50)         -0.5236         estimate D2E/DX2                !
 ! D61   D(11,12,13,7)         -16.3864         estimate D2E/DX2                !
 ! D62   D(11,12,13,27)        179.0511         estimate D2E/DX2                !
 ! D63   D(50,12,13,7)         162.9991         estimate D2E/DX2                !
 ! D64   D(50,12,13,27)         -1.5633         estimate D2E/DX2                !
 ! D65   D(11,12,50,51)        147.0381         estimate D2E/DX2                !
 ! D66   D(11,12,50,52)        -33.2998         estimate D2E/DX2                !
 ! D67   D(13,12,50,51)        -32.3239         estimate D2E/DX2                !
 ! D68   D(13,12,50,52)        147.3382         estimate D2E/DX2                !
 ! D69   D(3,17,18,19)         -86.427          estimate D2E/DX2                !
 ! D70   D(3,17,18,20)          93.574          estimate D2E/DX2                !
 ! D71   D(8,17,18,19)          86.5158         estimate D2E/DX2                !
 ! D72   D(8,17,18,20)         -93.4832         estimate D2E/DX2                !
 ! D73   D(17,18,19,21)       -179.9994         estimate D2E/DX2                !
 ! D74   D(17,18,19,73)          0.0073         estimate D2E/DX2                !
 ! D75   D(20,18,19,21)         -0.0004         estimate D2E/DX2                !
 ! D76   D(20,18,19,73)       -179.9937         estimate D2E/DX2                !
 ! D77   D(17,18,20,22)        179.9983         estimate D2E/DX2                !
 ! D78   D(17,18,20,23)          0.0043         estimate D2E/DX2                !
 ! D79   D(19,18,20,22)         -0.0006         estimate D2E/DX2                !
 ! D80   D(19,18,20,23)       -179.9946         estimate D2E/DX2                !
 ! D81   D(18,19,21,24)          0.001          estimate D2E/DX2                !
 ! D82   D(18,19,21,72)       -179.9981         estimate D2E/DX2                !
 ! D83   D(73,19,21,24)        179.9942         estimate D2E/DX2                !
 ! D84   D(73,19,21,72)         -0.0049         estimate D2E/DX2                !
 ! D85   D(18,20,22,24)          0.0011         estimate D2E/DX2                !
 ! D86   D(18,20,22,25)       -179.9975         estimate D2E/DX2                !
 ! D87   D(23,20,22,24)        179.995          estimate D2E/DX2                !
 ! D88   D(23,20,22,25)         -0.0036         estimate D2E/DX2                !
 ! D89   D(19,21,24,22)         -0.0005         estimate D2E/DX2                !
 ! D90   D(19,21,24,26)        179.9989         estimate D2E/DX2                !
 ! D91   D(72,21,24,22)        179.9986         estimate D2E/DX2                !
 ! D92   D(72,21,24,26)         -0.0019         estimate D2E/DX2                !
 ! D93   D(20,22,24,21)         -0.0005         estimate D2E/DX2                !
 ! D94   D(20,22,24,26)       -180.0            estimate D2E/DX2                !
 ! D95   D(25,22,24,21)        179.9981         estimate D2E/DX2                !
 ! D96   D(25,22,24,26)         -0.0014         estimate D2E/DX2                !
 ! D97   D(6,29,30,32)        -179.7704         estimate D2E/DX2                !
 ! D98   D(6,29,30,33)          -0.2441         estimate D2E/DX2                !
 ! D99   D(31,29,30,32)         -0.247          estimate D2E/DX2                !
 ! D100  D(31,29,30,33)        179.2793         estimate D2E/DX2                !
 ! D101  D(6,29,31,34)         179.8005         estimate D2E/DX2                !
 ! D102  D(6,29,31,35)          -1.0632         estimate D2E/DX2                !
 ! D103  D(30,29,31,34)          0.2778         estimate D2E/DX2                !
 ! D104  D(30,29,31,35)        179.414          estimate D2E/DX2                !
 ! D105  D(29,30,32,36)          0.3077         estimate D2E/DX2                !
 ! D106  D(29,30,32,37)       -179.6156         estimate D2E/DX2                !
 ! D107  D(33,30,32,36)       -179.2196         estimate D2E/DX2                !
 ! D108  D(33,30,32,37)          0.8571         estimate D2E/DX2                !
 ! D109  D(29,31,34,36)         -0.3689         estimate D2E/DX2                !
 ! D110  D(29,31,34,38)       -179.2914         estimate D2E/DX2                !
 ! D111  D(35,31,34,36)       -179.5168         estimate D2E/DX2                !
 ! D112  D(35,31,34,38)          1.5607         estimate D2E/DX2                !
 ! D113  D(30,32,36,34)         -0.3769         estimate D2E/DX2                !
 ! D114  D(30,32,36,39)       -179.9423         estimate D2E/DX2                !
 ! D115  D(37,32,36,34)        179.5459         estimate D2E/DX2                !
 ! D116  D(37,32,36,39)         -0.0194         estimate D2E/DX2                !
 ! D117  D(31,34,36,32)          0.4067         estimate D2E/DX2                !
 ! D118  D(31,34,36,39)        179.973          estimate D2E/DX2                !
 ! D119  D(38,34,36,32)        179.3191         estimate D2E/DX2                !
 ! D120  D(38,34,36,39)         -1.1145         estimate D2E/DX2                !
 ! D121  D(32,36,39,40)        -36.7414         estimate D2E/DX2                !
 ! D122  D(32,36,39,41)        143.2713         estimate D2E/DX2                !
 ! D123  D(34,36,39,40)        143.7074         estimate D2E/DX2                !
 ! D124  D(34,36,39,41)        -36.2799         estimate D2E/DX2                !
 ! D125  D(36,39,40,42)       -179.9504         estimate D2E/DX2                !
 ! D126  D(36,39,40,43)         -0.9266         estimate D2E/DX2                !
 ! D127  D(41,39,40,42)          0.0372         estimate D2E/DX2                !
 ! D128  D(41,39,40,43)        179.0611         estimate D2E/DX2                !
 ! D129  D(36,39,41,44)       -179.7808         estimate D2E/DX2                !
 ! D130  D(36,39,41,45)         -0.9134         estimate D2E/DX2                !
 ! D131  D(40,39,41,44)          0.2316         estimate D2E/DX2                !
 ! D132  D(40,39,41,45)        179.099          estimate D2E/DX2                !
 ! D133  D(39,40,42,46)         -0.0495         estimate D2E/DX2                !
 ! D134  D(39,40,42,47)        179.5561         estimate D2E/DX2                !
 ! D135  D(43,40,42,46)       -179.0713         estimate D2E/DX2                !
 ! D136  D(43,40,42,47)          0.5343         estimate D2E/DX2                !
 ! D137  D(39,41,44,46)         -0.4891         estimate D2E/DX2                !
 ! D138  D(39,41,44,48)        179.6753         estimate D2E/DX2                !
 ! D139  D(45,41,44,46)       -179.3493         estimate D2E/DX2                !
 ! D140  D(45,41,44,48)          0.8151         estimate D2E/DX2                !
 ! D141  D(40,42,46,44)         -0.2017         estimate D2E/DX2                !
 ! D142  D(40,42,46,49)        179.9247         estimate D2E/DX2                !
 ! D143  D(47,42,46,44)       -179.8037         estimate D2E/DX2                !
 ! D144  D(47,42,46,49)          0.3228         estimate D2E/DX2                !
 ! D145  D(41,44,46,42)          0.4699         estimate D2E/DX2                !
 ! D146  D(41,44,46,49)       -179.6571         estimate D2E/DX2                !
 ! D147  D(48,44,46,42)       -179.6942         estimate D2E/DX2                !
 ! D148  D(48,44,46,49)          0.1788         estimate D2E/DX2                !
 ! D149  D(12,50,51,53)       -179.87           estimate D2E/DX2                !
 ! D150  D(12,50,51,54)         -0.8033         estimate D2E/DX2                !
 ! D151  D(52,50,51,53)          0.4573         estimate D2E/DX2                !
 ! D152  D(52,50,51,54)        179.524          estimate D2E/DX2                !
 ! D153  D(12,50,52,55)        179.9018         estimate D2E/DX2                !
 ! D154  D(12,50,52,56)         -0.7675         estimate D2E/DX2                !
 ! D155  D(51,50,52,55)         -0.4248         estimate D2E/DX2                !
 ! D156  D(51,50,52,56)        178.9058         estimate D2E/DX2                !
 ! D157  D(50,51,53,57)         -0.4237         estimate D2E/DX2                !
 ! D158  D(50,51,53,58)       -179.2368         estimate D2E/DX2                !
 ! D159  D(54,51,53,57)       -179.5055         estimate D2E/DX2                !
 ! D160  D(54,51,53,58)          1.6813         estimate D2E/DX2                !
 ! D161  D(50,52,55,57)          0.3584         estimate D2E/DX2                !
 ! D162  D(50,52,55,59)       -179.5698         estimate D2E/DX2                !
 ! D163  D(56,52,55,57)       -178.9751         estimate D2E/DX2                !
 ! D164  D(56,52,55,59)          1.0966         estimate D2E/DX2                !
 ! D165  D(51,53,57,55)          0.332          estimate D2E/DX2                !
 ! D166  D(51,53,57,60)        179.9502         estimate D2E/DX2                !
 ! D167  D(58,53,57,55)        179.1314         estimate D2E/DX2                !
 ! D168  D(58,53,57,60)         -1.2504         estimate D2E/DX2                !
 ! D169  D(52,55,57,53)         -0.3001         estimate D2E/DX2                !
 ! D170  D(52,55,57,60)       -179.9179         estimate D2E/DX2                !
 ! D171  D(59,55,57,53)        179.6277         estimate D2E/DX2                !
 ! D172  D(59,55,57,60)          0.01           estimate D2E/DX2                !
 ! D173  D(53,57,60,61)        -35.0097         estimate D2E/DX2                !
 ! D174  D(53,57,60,62)        144.9777         estimate D2E/DX2                !
 ! D175  D(55,57,60,61)        144.596          estimate D2E/DX2                !
 ! D176  D(55,57,60,62)        -35.4167         estimate D2E/DX2                !
 ! D177  D(57,60,61,63)       -179.9987         estimate D2E/DX2                !
 ! D178  D(57,60,61,64)         -1.1405         estimate D2E/DX2                !
 ! D179  D(62,60,61,63)          0.0136         estimate D2E/DX2                !
 ! D180  D(62,60,61,64)        178.8719         estimate D2E/DX2                !
 ! D181  D(57,60,62,65)        179.7829         estimate D2E/DX2                !
 ! D182  D(57,60,62,66)         -1.2283         estimate D2E/DX2                !
 ! D183  D(61,60,62,65)         -0.2294         estimate D2E/DX2                !
 ! D184  D(61,60,62,66)        178.7594         estimate D2E/DX2                !
 ! D185  D(60,61,63,67)         -0.0319         estimate D2E/DX2                !
 ! D186  D(60,61,63,68)        179.5804         estimate D2E/DX2                !
 ! D187  D(64,61,63,67)       -178.899          estimate D2E/DX2                !
 ! D188  D(64,61,63,68)          0.7133         estimate D2E/DX2                !
 ! D189  D(60,62,65,67)          0.4651         estimate D2E/DX2                !
 ! D190  D(60,62,65,69)        179.496          estimate D2E/DX2                !
 ! D191  D(66,62,65,67)       -178.5369         estimate D2E/DX2                !
 ! D192  D(66,62,65,69)          0.4941         estimate D2E/DX2                !
 ! D193  D(61,63,67,65)          0.2642         estimate D2E/DX2                !
 ! D194  D(61,63,67,70)       -179.8871         estimate D2E/DX2                !
 ! D195  D(68,63,67,65)       -179.3471         estimate D2E/DX2                !
 ! D196  D(68,63,67,70)          0.5016         estimate D2E/DX2                !
 ! D197  D(62,65,67,63)         -0.4779         estimate D2E/DX2                !
 ! D198  D(62,65,67,70)        179.6726         estimate D2E/DX2                !
 ! D199  D(69,65,67,63)       -179.4963         estimate D2E/DX2                !
 ! D200  D(69,65,67,70)          0.6543         estimate D2E/DX2                !
 --------------------------------------------------------------------------------
 Trust Radius=3.00D-01 FncErr=1.00D-07 GrdErr=1.00D-06
 Number of steps in this run=    420 maximum allowed number of steps=    438.
 GradGradGradGradGradGradGradGradGradGradGradGradGradGradGradGradGradGrad

 Leave Link  103 at Wed Nov 24 00:28:12 2021, MaxMem=  5242880000 cpu:         0.3
 (Enter /opt/nce/packages/global/g09/l202.exe)
 Symmetry turned off by external request.
 Stoichiometry    C42H29NO
 Framework group  C1[X(C42H29NO)]
 Deg. of freedom   213
 Full point group                 C1      NOp   1
                          Input orientation:                          
 ---------------------------------------------------------------------
 Center     Atomic      Atomic             Coordinates (Angstroms)
 Number     Number       Type             X           Y           Z
 ---------------------------------------------------------------------
      1          6           0       -3.613493    1.943034   -0.037884
      2          6           0       -2.441862    2.683647   -0.016658
      3          6           0       -1.202258    2.061132    0.085043
      4          6           0       -1.180065    0.665032    0.151551
      5          6           0       -2.340109   -0.069399    0.129020
      6          6           0       -3.588703    0.555684    0.030257
      7          6           0        1.226800    0.732015    0.528121
      8          6           0        1.202254    2.061131    0.094744
      9          6           0        2.441859    2.683645   -0.003360
     10          1           0        2.495101    3.762446   -0.055992
     11          6           0        3.613489    1.943032   -0.022084
     12          6           0        3.588700    0.555682    0.049642
     13          6           0        2.340105   -0.069400    0.150691
     14          1           0       -2.495104    3.762449   -0.083921
     15          1           0       -2.255783   -1.147626    0.204934
     16          1           0        4.557954    2.469238   -0.082509
     17          7           0       -0.000001    2.765109    0.119845
     18          6           0       -0.000002    4.191413    0.030025
     19          6           0        0.003885    4.808993   -1.212236
     20          6           0       -0.003890    4.948702    1.192453
     21          6           0        0.003868    6.193942   -1.290555
     22          6           0       -0.003875    6.333650    1.111108
     23          1           0       -0.006798    4.444018    2.151847
     24          6           0       -0.000004    6.956287   -0.129640
     25          1           0       -0.006872    6.922767    2.019363
     26          1           0       -0.000004    8.038573   -0.189509
     27          1           0        2.255778   -1.147625    0.194664
     28          1           0       -4.557961    2.469241   -0.137312
     29          6           0       -4.833039   -0.241218    0.005353
     30          6           0       -4.872470   -1.498236   -0.601238
     31          6           0       -6.009749    0.238795    0.576677
     32          6           0       -6.037532   -2.241112   -0.628421
     33          1           0       -3.975698   -1.897097   -1.066553
     34          6           0       -7.174434   -0.504495    0.549903
     35          1           0       -6.020859    1.210758    1.068658
     36          6           0       -7.213396   -1.760066   -0.058075
     37          1           0       -6.030491   -3.213798   -1.101400
     38          1           0       -8.078088   -0.088171    0.998281
     39          6           0       -8.461020   -2.555470   -0.085665
     40          6           0       -8.779547   -3.335830   -1.197508
     41          6           0       -9.347968   -2.543870    0.998429
     42          6           0       -9.946797   -4.079823   -1.225541
     43          1           0       -8.114882   -3.346088   -2.050964
     44          6           0      -10.505048   -3.288229    0.971219
     45          1           0       -9.104870   -1.951404    1.877897
     46          6           0      -10.820159   -4.059793   -0.140970
     47          1           0      -10.177319   -4.671856   -2.100374
     48          1           0      -11.176849   -3.271641    1.820226
     49          1           0      -11.732618   -4.641850   -0.166815
     50          6           0        4.833034   -0.241221    0.034595
     51          6           0        4.932399   -1.438306    0.741068
     52          6           0        5.949811    0.178858   -0.696567
     53          6           0        6.097461   -2.181182    0.728295
     54          1           0        4.095573   -1.797222    1.326255
     55          6           0        7.114495   -0.564433   -0.709752
     56          1           0        5.900975    1.090875   -1.268455
     57          6           0        7.213390   -1.760070   -0.001890
     58          1           0        6.130368   -3.113919    1.281179
     59          1           0        7.958200   -0.208059   -1.278005
     60          6           0        8.461011   -2.555476   -0.014256
     61          6           0        8.879438   -3.255929    1.117558
     62          6           0        9.248055   -2.623787   -1.158281
     63          6           0       10.046685   -3.999925    1.105632
     64          1           0        8.294694   -3.206258    2.030961
     65          6           0       10.425131   -3.368150   -1.171030
     66          1           0        8.945033   -2.111245   -2.057725
     67          6           0       10.820143   -4.059807   -0.038870
     68          1           0       10.357131   -4.532031    2.000442
     69          1           0       11.017009   -3.411494   -2.079984
     70          1           0       11.732600   -4.641868   -0.052995
     71          8           0       -0.000001   -0.035798    0.299697
     72          1           0        0.006865    6.683286   -2.258679
     73          1           0        0.006794    4.204530   -2.111761
 ---------------------------------------------------------------------
 Rotational constants (GHZ):      0.0937854      0.0234709      0.0192012
 Leave Link  202 at Wed Nov 24 00:28:12 2021, MaxMem=  5242880000 cpu:         0.1
 (Enter /opt/nce/packages/global/g09/l301.exe)
 Standard basis: def2TZVP (5D, 7F)
 Ernie: Thresh=  0.10000D-02 Tol=  0.10000D-05 Strict=F.
  1538 basis functions,  2476 primitive gaussians,  1758 cartesian basis functions
   148 alpha electrons      148 beta electrons
       nuclear repulsion energy      4215.8575949475 Hartrees.
 IExCor= 2523 DFT=T Ex=TPSS Corr=TPSS ExCW=0 ScaHFX=  0.000000
 ScaDFX=  1.000000  1.000000  1.000000  1.000000 ScalE2=  1.000000  1.000000
 IRadAn=      5 IRanWt=     -1 IRanGd=            0 ICorTp=0 IEmpDi=  4
 NAtoms=   73 NActive=   73 NUniq=   73 SFac= 1.00D+00 NAtFMM=   60 NAOKFM=T Big=T
 Integral buffers will be    131072 words long.
 Raffenetti 2 integral format.
 Two-electron integral symmetry is turned off.
 ------------------------------------------------------------------------------
 Polarizable Continuum Model (PCM)
 =================================
 Model                : PCM (using non-symmetric T matrix).
 Atomic radii         : SMD-Coulomb.
 Polarization charges : Total charges.
 Charge compensation  : None.
 Solution method      : On-the-fly selection.
 Cavity type          : VdW (van der Waals Surface) (Alpha=1.000).
 Cavity algorithm     : GePol (No added spheres)
                        Default sphere list used, NSphG=   73.
                        Lebedev-Laikov grids with approx.  5.0 points / Ang**2.
                        Smoothing algorithm: York/Karplus (Gamma=1.0000).
                        Polarization charges: spherical gaussians, with
                                              point-specific exponents (IZeta= 3).
                        Self-potential: point-specific (ISelfS= 7).
                        Self-field    : sphere-specific E.n sum rule (ISelfD= 2).
 1st derivatives      : Analytical E(r).r(x)/FMM algorithm (CHGder, D1EAlg=3).
                        Cavity 1st derivative terms included.
 Solvent              : n,n-DiMethylAcetamide, Eps=  37.781000 Eps(inf)=   2.067844
 ------------------------------------------------------------------------------
 GePol: Number of generator spheres                  =      73
 GePol: Total number of spheres                      =      73
 GePol: Number of exposed spheres                    =      73 (100.00%)
 GePol: Number of points                             =    5485
 GePol: Average weight of points                     =       0.11
 GePol: Minimum weight of points                     =   0.74D-10
 GePol: Maximum weight of points                     =    0.17992
 GePol: Number of points with low weight             =     306
 GePol: Fraction of low-weight points (<1% of avg)   =       5.58%
 GePol: Cavity surface area                          =    597.791 Ang**2
 GePol: Cavity volume                                =    592.051 Ang**3
 ------------------------------------------------------------------------------
 Atomic radii for non-electrostatic terms: SMD-CDS.
 ------------------------------------------------------------------------------
 PCM non-electrostatic energy =        -0.0113251479 Hartrees.
 Nuclear repulsion after PCM non-electrostatic terms =     4215.8462697996 Hartrees.
 Leave Link  301 at Wed Nov 24 00:28:12 2021, MaxMem=  5242880000 cpu:         1.9
 (Enter /opt/nce/packages/global/g09/l302.exe)
 NPDir=0 NMtPBC=     1 NCelOv=     1 NCel=       1 NClECP=     1 NCelD=      1
         NCelK=      1 NCelE2=     1 NClLst=     1 CellRange=     0.0.
 One-electron integrals computed using PRISM.
   1 Symmetry operations used in ECPInt.
 ECPInt:  NShTT=  180300 NPrTT=  557040 LenC2=  104964 LenP2D=  214793.
 LDataN:  DoStor=T MaxTD1= 6 Len=  172
 NBasis=  1538 RedAO= T EigKep=  5.03D-06  NBF=  1538
 NBsUse=  1538 1.00D-06 EigRej= -1.00D+00 NBFU=  1538
 Precomputing XC quadrature grid using
 IXCGrd= 4 IRadAn=           5 IRanWt=          -1 IRanGd=           0 AccXCQ= 0.00D+00.
 Generated NRdTot=       0 NPtTot=           0 NUsed=           0 NTot=          32
 NSgBfM=  1416  1419  1422  1422  1428 MxSgAt=    73 MxSgA2=    73.
 Leave Link  302 at Wed Nov 24 00:28:18 2021, MaxMem=  5242880000 cpu:        65.8
 (Enter /opt/nce/packages/global/g09/l303.exe)
 DipDrv:  MaxL=1.
 Leave Link  303 at Wed Nov 24 00:28:18 2021, MaxMem=  5242880000 cpu:         5.1
 (Enter /opt/nce/packages/global/g09/l401.exe)
 ExpMin= 9.52D-02 ExpMax= 2.70D+04 ExpMxC= 9.22D+02 IAcc=3 IRadAn=         5 AccDes= 0.00D+00
 Harris functional with IExCor= 1009 and IRadAn=       5 diagonalized for initial guess.
 HarFok:  IExCor= 1009 AccDes= 0.00D+00 IRadAn=         5 IDoV= 1 UseB2=F ITyADJ=14
 ICtDFT=  3500011 ScaDFX=  1.000000  1.000000  1.000000  1.000000
 FoFCou: FMM=F IPFlag=           0 FMFlag=      100000 FMFlg1=        2001
         NFxFlg=           0 DoJE=T BraDBF=F KetDBF=T FulRan=T
         wScrn=  0.000000 ICntrl=     500 IOpCl=  0 I1Cent=   200000004 NGrid=           0
         NMat0=    1 NMatS0=      1 NMatT0=    0 NMatD0=    1 NMtDS0=    0 NMtDT0=    0
 Symmetry not used in FoFCou.
 Harris En= -1747.05802532246    
 JPrj=0 DoOrth=F DoCkMO=F.
 Leave Link  401 at Wed Nov 24 00:28:34 2021, MaxMem=  5242880000 cpu:       187.8
 (Enter /opt/nce/packages/global/g09/l502.exe)
 Closed shell SCF:
 Using DIIS extrapolation, IDIIS=  1040.
 Two-electron integral symmetry not used.
 IVT=     9322032 IEndB=     9322032 NGot=  5242880000 MDV=  5236666931
 LenX=  5236666931 LenY=  5233574609
 Requested convergence on RMS density matrix=1.00D-08 within 128 cycles.
 Requested convergence on MAX density matrix=1.00D-06.
 Requested convergence on             energy=1.00D-06.
 No special actions if energy rises.
 Fock matrices will be formed incrementally for  20 cycles.

 Cycle   1  Pass 1  IDiag  1:
 FoFJK:  IHMeth= 1 ICntrl=     500 DoSepK=F KAlg= 0 I1Cent=   0 FoldK=F
 IRaf= 520000000 NMat=   1 IRICut=       1 DoRegI=T DoRafI=F ISym2E= 0.
 FoFCou: FMM=T IPFlag=           0 FMFlag=      100000 FMFlg1=        2001
         NFxFlg=           0 DoJE=T BraDBF=F KetDBF=F FulRan=T
         wScrn=  0.000000 ICntrl=     500 IOpCl=  0 I1Cent=           0 NGrid=           0
         NMat0=    1 NMatS0=      1 NMatT0=    0 NMatD0=    1 NMtDS0=    0 NMtDT0=    0
 Symmetry not used in FoFCou.
 FMM levels:  10  Number of levels for PrismC:   9
 Inv3:  Mode=1 IEnd=    90255675.
 Iteration    1 A*A^-1 deviation from unit magnitude is 7.55D-15 for   5480.
 Iteration    1 A*A^-1 deviation from orthogonality  is 3.15D-15 for   2784   1044.
 Iteration    1 A^-1*A deviation from unit magnitude is 7.11D-15 for   5480.
 Iteration    1 A^-1*A deviation from orthogonality  is 1.59D-10 for   1432   1431.
 Iteration    2 A*A^-1 deviation from unit magnitude is 3.33D-15 for   2568.
 Iteration    2 A*A^-1 deviation from orthogonality  is 3.94D-15 for   3441    119.
 Iteration    2 A^-1*A deviation from unit magnitude is 1.11D-15 for    384.
 Iteration    2 A^-1*A deviation from orthogonality  is 5.63D-16 for   5461    503.
 E= -1748.02826380752    
 DIIS: error= 1.68D-02 at cycle   1 NSaved=   1.
 NSaved= 1 IEnMin= 1 EnMin= -1748.02826380752     IErMin= 1 ErrMin= 1.68D-02
 ErrMax= 1.68D-02  0.00D+00 EMaxC= 1.00D-01 BMatC= 8.71D-01 BMatP= 8.71D-01
 IDIUse=3 WtCom= 8.32D-01 WtEn= 1.68D-01
 Coeff-Com:  0.100D+01
 Coeff-En:   0.100D+01
 Coeff:      0.100D+01
 Gap=     0.139 Goal=   None    Shift=    0.000
 GapD=    0.139 DampG=1.000 DampE=0.500 DampFc=0.5000 IDamp=-1.
 Damping current iteration by 5.00D-01
 RMSDP=2.66D-03 MaxDP=4.13D-01              OVMax= 3.10D-01

 Cycle   2  Pass 1  IDiag  1:
 RMSU=  1.33D-03    CP:  9.88D-01
 E= -1748.31591106969     Delta-E=       -0.287647262169 Rises=F Damp=T
 DIIS: error= 4.59D-03 at cycle   2 NSaved=   2.
 NSaved= 2 IEnMin= 2 EnMin= -1748.31591106969     IErMin= 2 ErrMin= 4.59D-03
 ErrMax= 4.59D-03  0.00D+00 EMaxC= 1.00D-01 BMatC= 1.16D-01 BMatP= 8.71D-01
 IDIUse=3 WtCom= 9.54D-01 WtEn= 4.59D-02
 Coeff-Com:  0.117D+00 0.883D+00
 Coeff-En:   0.266D+00 0.734D+00
 Coeff:      0.124D+00 0.876D+00
 Gap=     0.128 Goal=   None    Shift=    0.000
 RMSDP=1.69D-03 MaxDP=4.68D-01 DE=-2.88D-01 OVMax= 5.30D-01

 Cycle   3  Pass 1  IDiag  1:
 RMSU=  1.67D-03    CP:  1.01D+00  1.20D+00
 E= -1748.59057132214     Delta-E=       -0.274660252452 Rises=F Damp=F
 DIIS: error= 9.87D-03 at cycle   3 NSaved=   3.
 NSaved= 3 IEnMin= 3 EnMin= -1748.59057132214     IErMin= 2 ErrMin= 4.59D-03
 ErrMax= 9.87D-03  0.00D+00 EMaxC= 1.00D-01 BMatC= 2.41D-01 BMatP= 1.16D-01
 IDIUse=3 WtCom= 9.14D-02 WtEn= 9.09D-01
 Coeff-Com: -0.228D-01 0.615D+00 0.407D+00
 Coeff-En:   0.000D+00 0.197D+00 0.803D+00
 Coeff:     -0.208D-02 0.235D+00 0.767D+00
 Gap=     0.132 Goal=   None    Shift=    0.000
 RMSDP=2.28D-03 MaxDP=6.74D-01 DE=-2.75D-01 OVMax= 3.32D-01

 Cycle   4  Pass 1  IDiag  1:
 RMSU=  7.56D-04    CP:  9.48D-01  5.18D-01 -1.60D-01
 E= -1748.00743036810     Delta-E=        0.583140954045 Rises=F Damp=F
 DIIS: error= 1.85D-02 at cycle   4 NSaved=   4.
 NSaved= 4 IEnMin= 3 EnMin= -1748.59057132214     IErMin= 2 ErrMin= 4.59D-03
 ErrMax= 1.85D-02  0.00D+00 EMaxC= 1.00D-01 BMatC= 7.81D-01 BMatP= 1.16D-01
 IDIUse=2 WtCom= 0.00D+00 WtEn= 1.00D+00
 Coeff-En:   0.000D+00 0.000D+00 0.688D+00 0.312D+00
 Coeff:      0.000D+00 0.000D+00 0.688D+00 0.312D+00
 Gap=     0.109 Goal=   None    Shift=    0.000
 RMSDP=7.34D-04 MaxDP=1.50D-01 DE= 5.83D-01 OVMax= 2.27D-01

 Cycle   5  Pass 1  IDiag  1:
 RMSU=  2.67D-04    CP:  9.70D-01  6.71D-01  1.67D-01  5.41D-01
 E= -1748.82927193692     Delta-E=       -0.821841568820 Rises=F Damp=F
 DIIS: error= 3.65D-03 at cycle   5 NSaved=   5.
 NSaved= 5 IEnMin= 5 EnMin= -1748.82927193692     IErMin= 5 ErrMin= 3.65D-03
 ErrMax= 3.65D-03  0.00D+00 EMaxC= 1.00D-01 BMatC= 3.77D-02 BMatP= 1.16D-01
 IDIUse=3 WtCom= 9.64D-01 WtEn= 3.65D-02
 Coeff-Com:  0.967D-02-0.826D-02 0.257D+00-0.170D-01 0.759D+00
 Coeff-En:   0.000D+00 0.000D+00 0.193D+00 0.000D+00 0.807D+00
 Coeff:      0.932D-02-0.796D-02 0.255D+00-0.164D-01 0.761D+00
 Gap=     0.085 Goal=   None    Shift=    0.000
 RMSDP=4.60D-04 MaxDP=1.37D-01 DE=-8.22D-01 OVMax= 9.65D-02

 Cycle   6  Pass 1  IDiag  1:
 RMSU=  8.89D-05    CP:  9.83D-01  8.19D-01  3.96D-01  3.80D-01  9.47D-01
 E= -1748.86635433415     Delta-E=       -0.037082397233 Rises=F Damp=F
 DIIS: error= 1.37D-03 at cycle   6 NSaved=   6.
 NSaved= 6 IEnMin= 6 EnMin= -1748.86635433415     IErMin= 6 ErrMin= 1.37D-03
 ErrMax= 1.37D-03  0.00D+00 EMaxC= 1.00D-01 BMatC= 3.85D-03 BMatP= 3.77D-02
 IDIUse=3 WtCom= 9.86D-01 WtEn= 1.37D-02
 Coeff-Com:  0.385D-02-0.107D-01 0.113D+00-0.523D-01 0.525D+00 0.421D+00
 Coeff-En:   0.000D+00 0.000D+00 0.000D+00 0.000D+00 0.000D+00 0.100D+01
 Coeff:      0.380D-02-0.105D-01 0.111D+00-0.516D-01 0.518D+00 0.429D+00
 Gap=     0.082 Goal=   None    Shift=    0.000
 RMSDP=9.32D-05 MaxDP=2.82D-02 DE=-3.71D-02 OVMax= 1.80D-02

 Cycle   7  Pass 1  IDiag  1:
 RMSU=  2.73D-05    CP:  9.81D-01  7.86D-01  3.59D-01  3.91D-01  1.00D+00
                    CP:  5.46D-01
 E= -1748.87036471395     Delta-E=       -0.004010379806 Rises=F Damp=F
 DIIS: error= 2.63D-04 at cycle   7 NSaved=   7.
 NSaved= 7 IEnMin= 7 EnMin= -1748.87036471395     IErMin= 7 ErrMin= 2.63D-04
 ErrMax= 2.63D-04  0.00D+00 EMaxC= 1.00D-01 BMatC= 1.79D-04 BMatP= 3.85D-03
 IDIUse=3 WtCom= 9.97D-01 WtEn= 2.63D-03
 Coeff-Com:  0.159D-02-0.292D-02 0.522D-01-0.288D-01 0.249D+00 0.252D+00
 Coeff-Com:  0.477D+00
 Coeff-En:   0.000D+00 0.000D+00 0.000D+00 0.000D+00 0.000D+00 0.000D+00
 Coeff-En:   0.100D+01
 Coeff:      0.158D-02-0.291D-02 0.521D-01-0.287D-01 0.249D+00 0.251D+00
 Coeff:      0.478D+00
 Gap=     0.082 Goal=   None    Shift=    0.000
 RMSDP=2.64D-05 MaxDP=7.65D-03 DE=-4.01D-03 OVMax= 5.34D-03

 Cycle   8  Pass 1  IDiag  1:
 RMSU=  9.97D-06    CP:  9.82D-01  7.94D-01  3.70D-01  3.86D-01  9.95D-01
                    CP:  6.06D-01  7.05D-01
 E= -1748.87051879079     Delta-E=       -0.000154076833 Rises=F Damp=F
 DIIS: error= 8.06D-05 at cycle   8 NSaved=   8.
 NSaved= 8 IEnMin= 8 EnMin= -1748.87051879079     IErMin= 8 ErrMin= 8.06D-05
 ErrMax= 8.06D-05  0.00D+00 EMaxC= 1.00D-01 BMatC= 2.67D-05 BMatP= 1.79D-04
 IDIUse=1 WtCom= 1.00D+00 WtEn= 0.00D+00
 Coeff-Com:  0.464D-03-0.214D-03 0.137D-01-0.848D-02 0.596D-01 0.818D-01
 Coeff-Com:  0.304D+00 0.549D+00
 Coeff:      0.464D-03-0.214D-03 0.137D-01-0.848D-02 0.596D-01 0.818D-01
 Coeff:      0.304D+00 0.549D+00
 Gap=     0.082 Goal=   None    Shift=    0.000
 RMSDP=1.10D-05 MaxDP=3.44D-03 DE=-1.54D-04 OVMax= 2.15D-03

 Cycle   9  Pass 1  IDiag  1:
 RMSU=  3.63D-06    CP:  9.81D-01  7.91D-01  3.66D-01  3.87D-01  1.00D+00
                    CP:  5.93D-01  8.34D-01  7.37D-01
 E= -1748.87053979938     Delta-E=       -0.000021008589 Rises=F Damp=F
 DIIS: error= 3.19D-05 at cycle   9 NSaved=   9.
 NSaved= 9 IEnMin= 9 EnMin= -1748.87053979938     IErMin= 9 ErrMin= 3.19D-05
 ErrMax= 3.19D-05  0.00D+00 EMaxC= 1.00D-01 BMatC= 4.33D-06 BMatP= 2.67D-05
 IDIUse=1 WtCom= 1.00D+00 WtEn= 0.00D+00
 Coeff-Com:  0.135D-03 0.147D-03 0.312D-02-0.191D-02 0.824D-02 0.223D-01
 Coeff-Com:  0.140D+00 0.359D+00 0.469D+00
 Coeff:      0.135D-03 0.147D-03 0.312D-02-0.191D-02 0.824D-02 0.223D-01
 Coeff:      0.140D+00 0.359D+00 0.469D+00
 Gap=     0.082 Goal=   None    Shift=    0.000
 RMSDP=7.30D-06 MaxDP=2.35D-03 DE=-2.10D-05 OVMax= 9.12D-04

 Cycle  10  Pass 1  IDiag  1:
 RMSU=  1.34D-06    CP:  9.82D-01  7.93D-01  3.69D-01  3.85D-01  9.99D-01
                    CP:  6.05D-01  8.09D-01  8.04D-01  6.05D-01
 E= -1748.87054362980     Delta-E=       -0.000003830426 Rises=F Damp=F
 DIIS: error= 1.19D-05 at cycle  10 NSaved=  10.
 NSaved=10 IEnMin=10 EnMin= -1748.87054362980     IErMin=10 ErrMin= 1.19D-05
 ErrMax= 1.19D-05  0.00D+00 EMaxC= 1.00D-01 BMatC= 4.28D-07 BMatP= 4.33D-06
 IDIUse=1 WtCom= 1.00D+00 WtEn= 0.00D+00
 Coeff-Com:  0.515D-04-0.403D-04 0.512D-03-0.165D-03-0.151D-02 0.431D-02
 Coeff-Com:  0.498D-01 0.151D+00 0.292D+00 0.503D+00
 Coeff:      0.515D-04-0.403D-04 0.512D-03-0.165D-03-0.151D-02 0.431D-02
 Coeff:      0.498D-01 0.151D+00 0.292D+00 0.503D+00
 Gap=     0.082 Goal=   None    Shift=    0.000
 RMSDP=1.15D-06 MaxDP=3.62D-04 DE=-3.83D-06 OVMax= 2.74D-04

 Cycle  11  Pass 1  IDiag  1:
 RMSU=  3.97D-07    CP:  9.82D-01  7.93D-01  3.68D-01  3.85D-01  1.00D+00
                    CP:  6.04D-01  8.20D-01  7.94D-01  6.82D-01  7.67D-01
 E= -1748.87054400835     Delta-E=       -0.000000378545 Rises=F Damp=F
 DIIS: error= 3.61D-06 at cycle  11 NSaved=  11.
 NSaved=11 IEnMin=11 EnMin= -1748.87054400835     IErMin=11 ErrMin= 3.61D-06
 ErrMax= 3.61D-06  0.00D+00 EMaxC= 1.00D-01 BMatC= 5.23D-08 BMatP= 4.28D-07
 IDIUse=1 WtCom= 1.00D+00 WtEn= 0.00D+00
 Coeff-Com:  0.247D-04-0.431D-04 0.105D-03 0.419D-04-0.168D-02 0.106D-02
 Coeff-Com:  0.215D-01 0.709D-01 0.153D+00 0.335D+00 0.419D+00
 Coeff:      0.247D-04-0.431D-04 0.105D-03 0.419D-04-0.168D-02 0.106D-02
 Coeff:      0.215D-01 0.709D-01 0.153D+00 0.335D+00 0.419D+00
 Gap=     0.082 Goal=   None    Shift=    0.000
 RMSDP=1.95D-07 MaxDP=2.58D-05 DE=-3.79D-07 OVMax= 7.65D-05

 Cycle  12  Pass 1  IDiag  1:
 RMSU=  1.32D-07    CP:  9.82D-01  7.93D-01  3.69D-01  3.85D-01  1.00D+00
                    CP:  6.04D-01  8.19D-01  8.01D-01  6.81D-01  7.82D-01
                    CP:  7.60D-01
 E= -1748.87054406313     Delta-E=       -0.000000054778 Rises=F Damp=F
 DIIS: error= 1.29D-06 at cycle  12 NSaved=  12.
 NSaved=12 IEnMin=12 EnMin= -1748.87054406313     IErMin=12 ErrMin= 1.29D-06
 ErrMax= 1.29D-06  0.00D+00 EMaxC= 1.00D-01 BMatC= 2.38D-09 BMatP= 5.23D-08
 IDIUse=1 WtCom= 1.00D+00 WtEn= 0.00D+00
 Coeff-Com:  0.908D-05-0.163D-04 0.182D-04 0.337D-04-0.843D-03 0.249D-03
 Coeff-Com:  0.789D-02 0.272D-01 0.616D-01 0.150D+00 0.235D+00 0.519D+00
 Coeff:      0.908D-05-0.163D-04 0.182D-04 0.337D-04-0.843D-03 0.249D-03
 Coeff:      0.789D-02 0.272D-01 0.616D-01 0.150D+00 0.235D+00 0.519D+00
 Gap=     0.082 Goal=   None    Shift=    0.000
 RMSDP=5.54D-08 MaxDP=7.59D-06 DE=-5.48D-08 OVMax= 1.77D-05

 Cycle  13  Pass 1  IDiag  1:
 RMSU=  3.49D-08    CP:  9.82D-01  7.93D-01  3.69D-01  3.85D-01  1.00D+00
                    CP:  6.04D-01  8.20D-01  8.02D-01  6.84D-01  7.88D-01
                    CP:  7.94D-01  8.90D-01
 E= -1748.87054406526     Delta-E=       -0.000000002132 Rises=F Damp=F
 DIIS: error= 7.26D-07 at cycle  13 NSaved=  13.
 NSaved=13 IEnMin=13 EnMin= -1748.87054406526     IErMin=13 ErrMin= 7.26D-07
 ErrMax= 7.26D-07  0.00D+00 EMaxC= 1.00D-01 BMatC= 5.24D-10 BMatP= 2.38D-09
 IDIUse=1 WtCom= 1.00D+00 WtEn= 0.00D+00
 Coeff-Com:  0.158D-05-0.379D-05-0.378D-05 0.133D-04-0.236D-03-0.148D-04
 Coeff-Com:  0.118D-02 0.462D-02 0.116D-01 0.369D-01 0.770D-01 0.351D+00
 Coeff-Com:  0.518D+00
 Coeff:      0.158D-05-0.379D-05-0.378D-05 0.133D-04-0.236D-03-0.148D-04
 Coeff:      0.118D-02 0.462D-02 0.116D-01 0.369D-01 0.770D-01 0.351D+00
 Coeff:      0.518D+00
 Gap=     0.082 Goal=   None    Shift=    0.000
 RMSDP=5.18D-08 MaxDP=1.48D-05 DE=-2.13D-09 OVMax= 6.57D-06

 Cycle  14  Pass 1  IDiag  1:
 RMSU=  1.31D-08    CP:  9.82D-01  7.93D-01  3.69D-01  3.85D-01  1.00D+00
                    CP:  6.04D-01  8.20D-01  8.02D-01  6.84D-01  7.96D-01
                    CP:  8.05D-01  9.16D-01  8.01D-01
 E= -1748.87054406585     Delta-E=       -0.000000000590 Rises=F Damp=F
 DIIS: error= 1.06D-07 at cycle  14 NSaved=  14.
 NSaved=14 IEnMin=14 EnMin= -1748.87054406585     IErMin=14 ErrMin= 1.06D-07
 ErrMax= 1.06D-07  0.00D+00 EMaxC= 1.00D-01 BMatC= 2.52D-11 BMatP= 5.24D-10
 IDIUse=1 WtCom= 1.00D+00 WtEn= 0.00D+00
 Coeff-Com:  0.188D-06-0.101D-05-0.529D-05 0.546D-05-0.708D-04-0.282D-04
 Coeff-Com:  0.574D-04 0.507D-03 0.178D-02 0.882D-02 0.229D-01 0.148D+00
 Coeff-Com:  0.270D+00 0.548D+00
 Coeff:      0.188D-06-0.101D-05-0.529D-05 0.546D-05-0.708D-04-0.282D-04
 Coeff:      0.574D-04 0.507D-03 0.178D-02 0.882D-02 0.229D-01 0.148D+00
 Coeff:      0.270D+00 0.548D+00
 Gap=     0.082 Goal=   None    Shift=    0.000
 RMSDP=6.44D-09 MaxDP=1.24D-06 DE=-5.90D-10 OVMax= 1.30D-06

 Cycle  15  Pass 1  IDiag  1:
 RMSU=  3.95D-09    CP:  9.82D-01  7.93D-01  3.69D-01  3.85D-01  1.00D+00
                    CP:  6.04D-01  8.20D-01  8.02D-01  6.84D-01  7.97D-01
                    CP:  8.09D-01  9.24D-01  8.16D-01  8.76D-01
 E= -1748.87054406590     Delta-E=       -0.000000000053 Rises=F Damp=F
 DIIS: error= 4.49D-08 at cycle  15 NSaved=  15.
 NSaved=15 IEnMin=15 EnMin= -1748.87054406590     IErMin=15 ErrMin= 4.49D-08
 ErrMax= 4.49D-08  0.00D+00 EMaxC= 1.00D-01 BMatC= 6.09D-12 BMatP= 2.52D-11
 IDIUse=1 WtCom= 1.00D+00 WtEn= 0.00D+00
 Coeff-Com: -0.124D-06 0.137D-07-0.194D-05 0.736D-06 0.441D-06-0.102D-04
 Coeff-Com: -0.158D-03-0.468D-03-0.868D-03-0.723D-03 0.122D-02 0.374D-01
 Coeff-Com:  0.861D-01 0.352D+00 0.526D+00
 Coeff:     -0.124D-06 0.137D-07-0.194D-05 0.736D-06 0.441D-06-0.102D-04
 Coeff:     -0.158D-03-0.468D-03-0.868D-03-0.723D-03 0.122D-02 0.374D-01
 Coeff:      0.861D-01 0.352D+00 0.526D+00
 Gap=     0.082 Goal=   None    Shift=    0.000
 RMSDP=2.55D-09 MaxDP=2.71D-07 DE=-5.28D-11 OVMax= 6.78D-07

 Error on total polarization charges =  0.09075
 SCF Done:  E(RTPSS-TPSS) =  -1748.87054407     A.U. after   15 cycles
            NFock= 15  Conv=0.25D-08     -V/T= 2.0040
 KE= 1.741890911971D+03 PE=-1.249507759865D+04 EE= 4.788469872811D+03
 SMD-CDS (non-electrostatic) energy       (kcal/mol) =      -7.11
 (included in total energy above)
 Leave Link  502 at Wed Nov 24 00:50:03 2021, MaxMem=  5242880000 cpu:     15336.1
 (Enter /opt/nce/packages/global/g09/l601.exe)
 Copying SCF densities to generalized density rwf, IOpCl= 0 IROHF=0.

 **********************************************************************

            Population analysis using the SCF density.

 **********************************************************************

 Alpha  occ. eigenvalues --  -18.91934 -14.14619 -10.04897 -10.04452 -10.03929
 Alpha  occ. eigenvalues --  -10.03236 -10.02832  -9.99500  -9.99492  -9.99488
 Alpha  occ. eigenvalues --   -9.99462  -9.99414  -9.99408  -9.99379  -9.99303
 Alpha  occ. eigenvalues --   -9.99194  -9.99191  -9.99189  -9.99052  -9.99031
 Alpha  occ. eigenvalues --   -9.98965  -9.98918  -9.98857  -9.98530  -9.98432
 Alpha  occ. eigenvalues --   -9.98417  -9.98394  -9.98378  -9.98366  -9.98359
 Alpha  occ. eigenvalues --   -9.98353  -9.98345  -9.98331  -9.98324  -9.98316
 Alpha  occ. eigenvalues --   -9.98315  -9.98309  -9.98302  -9.98301  -9.98295
 Alpha  occ. eigenvalues --   -9.98282  -9.98279  -9.98164  -9.98112  -0.99616
 Alpha  occ. eigenvalues --   -0.91629  -0.81946  -0.81396  -0.80848  -0.80402
 Alpha  occ. eigenvalues --   -0.79676  -0.79024  -0.77956  -0.73786  -0.72795
 Alpha  occ. eigenvalues --   -0.71001  -0.70673  -0.70252  -0.69834  -0.69539
 Alpha  occ. eigenvalues --   -0.69445  -0.68835  -0.68692  -0.68430  -0.67048
 Alpha  occ. eigenvalues --   -0.66125  -0.64205  -0.60124  -0.59909  -0.57667
 Alpha  occ. eigenvalues --   -0.57283  -0.56649  -0.56584  -0.56378  -0.55294
 Alpha  occ. eigenvalues --   -0.54708  -0.53814  -0.53643  -0.53247  -0.52930
 Alpha  occ. eigenvalues --   -0.51702  -0.50719  -0.49527  -0.48469  -0.48348
 Alpha  occ. eigenvalues --   -0.46087  -0.45922  -0.44761  -0.44045  -0.43401
 Alpha  occ. eigenvalues --   -0.42949  -0.42588  -0.42528  -0.42054  -0.41482
 Alpha  occ. eigenvalues --   -0.40420  -0.40251  -0.39939  -0.39757  -0.39612
 Alpha  occ. eigenvalues --   -0.39328  -0.39246  -0.39143  -0.39036  -0.38731
 Alpha  occ. eigenvalues --   -0.38373  -0.38315  -0.38010  -0.37942  -0.37182
 Alpha  occ. eigenvalues --   -0.37114  -0.35877  -0.35462  -0.34968  -0.34757
 Alpha  occ. eigenvalues --   -0.34351  -0.34274  -0.34132  -0.33475  -0.33138
 Alpha  occ. eigenvalues --   -0.32788  -0.32460  -0.32117  -0.32009  -0.31329
 Alpha  occ. eigenvalues --   -0.31037  -0.30869  -0.30499  -0.29718  -0.29531
 Alpha  occ. eigenvalues --   -0.29280  -0.29072  -0.28933  -0.28535  -0.26569
 Alpha  occ. eigenvalues --   -0.25172  -0.24211  -0.23769  -0.23752  -0.23303
 Alpha  occ. eigenvalues --   -0.23285  -0.23200  -0.23154  -0.23091  -0.21585
 Alpha  occ. eigenvalues --   -0.20043  -0.19852  -0.15666
 Alpha virt. eigenvalues --   -0.07441  -0.06395  -0.05930  -0.04464  -0.04130
 Alpha virt. eigenvalues --   -0.03815  -0.03719  -0.03428  -0.03168  -0.03147
 Alpha virt. eigenvalues --   -0.02691  -0.01675   0.00318   0.01935   0.04192
 Alpha virt. eigenvalues --    0.04505   0.05109   0.05141   0.05484   0.05704
 Alpha virt. eigenvalues --    0.06202   0.06667   0.06839   0.07278   0.07795
 Alpha virt. eigenvalues --    0.07835   0.08234   0.08391   0.08573   0.08926
 Alpha virt. eigenvalues --    0.09319   0.09552   0.09640   0.09994   0.10364
[...]
 Alpha virt. eigenvalues --    2.14167   2.14371   2.14734   2.15000   2.15809
 Alpha virt. eigenvalues --    2.16079   2.16304   2.16566   2.17291   2.18836
 Alpha virt. eigenvalues --    2.19171   2.19363   2.19676   2.20168   2.21100
 Alpha virt. eigenvalues --    2.21512   2.21539   2.22023   2.22292   2.22742
 Alpha virt. eigenvalues --    2.23390   2.23522   2.24090   2.24319   2.24449
 Alpha virt. eigenvalues --    2.25148   2.26784   2.27062   2.27434   2.27574
 Alpha virt. eigenvalues --    2.28316   2.28607   2.29426   2.29762   2.29963
 Alpha virt. eigenvalues --    2.30057   2.30310   2.32264   2.32331   2.34918
 Alpha virt. eigenvalues --    2.35236   2.35669   2.35864   2.36495   2.36931
 Alpha virt. eigenvalues --    2.36960   2.40273   2.40645   2.41976   2.42059
 Alpha virt. eigenvalues --    2.42094   2.44341   2.44447   2.44494   2.45064
 Alpha virt. eigenvalues --    2.46233   2.46981   2.47123   2.47608   2.47637
 Alpha virt. eigenvalues --    2.48280   2.48502   2.48967   2.49205   2.49259
 Alpha virt. eigenvalues --    2.50278   2.50764   2.51180   2.51243   2.52092
 Alpha virt. eigenvalues --    2.52592   2.53480   2.53588   2.54480   2.54949
 Alpha virt. eigenvalues --    2.55488   2.56290   2.56543   2.56736   2.56844
 Alpha virt. eigenvalues --    2.56899   2.57090   2.57457   2.57846   2.58813
 Alpha virt. eigenvalues --    2.58862   2.59500   2.59656   2.59842   2.60106
 Alpha virt. eigenvalues --    2.60459   2.60551   2.60788   2.61733   2.61865
 Alpha virt. eigenvalues --    2.62019   2.62667   2.63031   2.63182   2.63282
 Alpha virt. eigenvalues --    2.64136   2.64512   2.64571   2.64777   2.64956
 Alpha virt. eigenvalues --    2.65069   2.65188   2.65208   2.65365   2.65524
 Alpha virt. eigenvalues --    2.65837   2.65988   2.66240   2.66286   2.66404
 Alpha virt. eigenvalues --    2.66506   2.67098   2.67712   2.67755   2.68454
 Alpha virt. eigenvalues --    2.68476   2.68733   2.68845   2.69080   2.69649
 Alpha virt. eigenvalues --    2.70018   2.70225   2.70590   2.70634   2.70719
 Alpha virt. eigenvalues --    2.70907   2.71691   2.71718   2.72056   2.72182
 Alpha virt. eigenvalues --    2.72681   2.73306   2.73390   2.73405   2.73483
 Alpha virt. eigenvalues --    2.73749   2.73969   2.74480   2.74961   2.75496
 Alpha virt. eigenvalues --    2.75661   2.75905   2.76170   2.76551   2.76612
 Alpha virt. eigenvalues --    2.77096   2.77313   2.77523   2.77894   2.78394
 Alpha virt. eigenvalues --    2.78512   2.79608   2.79674   2.79741   2.79962
 Alpha virt. eigenvalues --    2.80594   2.80749   2.80949   2.81071   2.81484
 Alpha virt. eigenvalues --    2.81512   2.82326   2.82501   2.82608   2.83018
 Alpha virt. eigenvalues --    2.83181   2.83321   2.83467   2.84022   2.84056
 Alpha virt. eigenvalues --    2.84236   2.84276   2.84885   2.85087   2.85369
 Alpha virt. eigenvalues --    2.85509   2.85831   2.86033   2.86289   2.86418
 Alpha virt. eigenvalues --    2.87126   2.87564   2.87679   2.87749   2.88471
 Alpha virt. eigenvalues --    2.88920   2.88944   2.89708   2.89908   2.90578
 Alpha virt. eigenvalues --    2.91289   2.91401   2.91936   2.92617   2.92785
 Alpha virt. eigenvalues --    2.93548   2.93955   2.94581   2.95029   2.95049
 Alpha virt. eigenvalues --    2.96026   2.96075   2.97132   2.97425   2.98147
 Alpha virt. eigenvalues --    2.98495   2.98671   2.99078   2.99433   2.99785
 Alpha virt. eigenvalues --    2.99970   3.00637   3.00840   3.01401   3.01477
 Alpha virt. eigenvalues --    3.02118   3.02140   3.02806   3.03176   3.04056
 Alpha virt. eigenvalues --    3.04089   3.04384   3.05041   3.05077   3.05919
 Alpha virt. eigenvalues --    3.06497   3.06856   3.07000   3.07880   3.07945
 Alpha virt. eigenvalues --    3.08192   3.08653   3.08885   3.09370   3.09613
 Alpha virt. eigenvalues --    3.09852   3.10093   3.10266   3.10554   3.10925
 Alpha virt. eigenvalues --    3.11619   3.11977   3.12399   3.12723   3.12831
 Alpha virt. eigenvalues --    3.12882   3.12975   3.13047   3.13401   3.13556
 Alpha virt. eigenvalues --    3.13802   3.13887   3.14341   3.14467   3.14894
 Alpha virt. eigenvalues --    3.15071   3.15696   3.15765   3.16105   3.16484
 Alpha virt. eigenvalues --    3.16696   3.17127   3.17820   3.17939   3.18037
 Alpha virt. eigenvalues --    3.18268   3.18337   3.18525   3.18557   3.19128
 Alpha virt. eigenvalues --    3.19163   3.19473   3.19577   3.19676   3.19724
 Alpha virt. eigenvalues --    3.20812   3.21677   3.22315   3.22739   3.22961
 Alpha virt. eigenvalues --    3.23419   3.23882   3.24468   3.24497   3.24967
 Alpha virt. eigenvalues --    3.25089   3.25595   3.25743   3.25968   3.26115
 Alpha virt. eigenvalues --    3.26345   3.26506   3.26547   3.27207   3.27514
 Alpha virt. eigenvalues --    3.27919   3.28553   3.28799   3.29349   3.29568
 Alpha virt. eigenvalues --    3.30079   3.30265   3.30575   3.30762   3.31238
 Alpha virt. eigenvalues --    3.31254   3.31909   3.32033   3.32619   3.32909
 Alpha virt. eigenvalues --    3.33121   3.33275   3.33463   3.33968   3.34131
 Alpha virt. eigenvalues --    3.34613   3.34832   3.35278   3.35442   3.35601
 Alpha virt. eigenvalues --    3.35978   3.36138   3.36532   3.36745   3.37071
 Alpha virt. eigenvalues --    3.37314   3.37572   3.37787   3.37961   3.38250
 Alpha virt. eigenvalues --    3.38293   3.38996   3.39074   3.39282   3.40080
 Alpha virt. eigenvalues --    3.40156   3.40461   3.40470   3.40986   3.41245
 Alpha virt. eigenvalues --    3.41700   3.41775   3.42084   3.42482   3.42680
 Alpha virt. eigenvalues --    3.43327   3.43721   3.44310   3.44566   3.44992
 Alpha virt. eigenvalues --    3.45235   3.45794   3.45819   3.46148   3.46491
 Alpha virt. eigenvalues --    3.46609   3.47071   3.47230   3.47281   3.47450
 Alpha virt. eigenvalues --    3.47645   3.47878   3.48040   3.48232   3.48547
 Alpha virt. eigenvalues --    3.49170   3.49200   3.49922   3.50005   3.50394
 Alpha virt. eigenvalues --    3.50473   3.50834   3.51072   3.51411   3.51639
 Alpha virt. eigenvalues --    3.51823   3.52343   3.52627   3.53122   3.53474
 Alpha virt. eigenvalues --    3.53678   3.54106   3.54394   3.54412   3.54761
 Alpha virt. eigenvalues --    3.55146   3.55395   3.56372   3.56807   3.57159
 Alpha virt. eigenvalues --    3.57664   3.57992   3.58502   3.58755   3.59136
 Alpha virt. eigenvalues --    3.60053   3.60427   3.60850   3.61660   3.62128
 Alpha virt. eigenvalues --    3.62362   3.62881   3.63304   3.63807   3.65087
 Alpha virt. eigenvalues --    3.65153   3.65786   3.65929   3.66774   3.66818
 Alpha virt. eigenvalues --    3.67138   3.68837   3.69737   3.70499   3.70893
 Alpha virt. eigenvalues --    3.72251   3.72267   3.72620   3.73564   3.75266
 Alpha virt. eigenvalues --    3.76720   3.76773   3.76887   3.78449   3.78577
 Alpha virt. eigenvalues --    3.78730   3.79338   3.79467   3.79983   3.80098
 Alpha virt. eigenvalues --    3.80443   3.80748   3.82185   3.82377   3.83153
 Alpha virt. eigenvalues --    3.84206   3.84622   3.84920   3.85719   3.86256
 Alpha virt. eigenvalues --    3.88510   3.88775   3.89345   3.91417   3.91552
 Alpha virt. eigenvalues --    3.91849   3.92657   3.93230   3.93569   3.93714
 Alpha virt. eigenvalues --    3.94622   3.95438   3.96934   3.98197   3.98285
 Alpha virt. eigenvalues --    3.98669   3.98995   3.99574   4.00482   4.01209
 Alpha virt. eigenvalues --    4.01684   4.01908   4.02707   4.02782   4.03238
 Alpha virt. eigenvalues --    4.04271   4.04286   4.04894   4.05153   4.05203
 Alpha virt. eigenvalues --    4.05747   4.06570   4.06907   4.07569   4.07983
 Alpha virt. eigenvalues --    4.08482   4.08741   4.08831   4.09413   4.11109
 Alpha virt. eigenvalues --    4.11195   4.11818   4.12674   4.12896   4.13232
 Alpha virt. eigenvalues --    4.13726   4.14209   4.15450   4.15645   4.15708
 Alpha virt. eigenvalues --    4.16961   4.17003   4.17582   4.17832   4.18560
 Alpha virt. eigenvalues --    4.18709   4.19124   4.19218   4.19363   4.19481
 Alpha virt. eigenvalues --    4.19800   4.20074   4.20165   4.20491   4.20811
 Alpha virt. eigenvalues --    4.21689   4.21879   4.22081   4.22143   4.22205
 Alpha virt. eigenvalues --    4.22935   4.23220   4.23737   4.23789   4.24169
 Alpha virt. eigenvalues --    4.24272   4.24565   4.24705   4.25188   4.25812
 Alpha virt. eigenvalues --    4.25821   4.26365   4.27013   4.27850   4.27917
 Alpha virt. eigenvalues --    4.28372   4.28453   4.28800   4.29161   4.29267
 Alpha virt. eigenvalues --    4.29716   4.30049   4.31332   4.31518   4.32684
 Alpha virt. eigenvalues --    4.32711   4.33077   4.33770   4.34059   4.35721
 Alpha virt. eigenvalues --    4.36748   4.37195   4.38274   4.38789   4.39333
 Alpha virt. eigenvalues --    4.39386   4.41937   4.42357   4.42406   4.44046
 Alpha virt. eigenvalues --    4.44381   4.46092   4.47645   4.47736   4.50359
 Alpha virt. eigenvalues --    4.52265   4.52469   4.53135   4.56973   4.57664
 Alpha virt. eigenvalues --    4.58942   4.59381   4.60270   4.61571   4.62142
 Alpha virt. eigenvalues --    4.62446   4.62965   4.64012   4.64571   4.64897
 Alpha virt. eigenvalues --    4.65538   4.65787   4.66507   4.67278   4.67498
 Alpha virt. eigenvalues --    4.67945   4.68649   4.68863   4.69056   4.70260
 Alpha virt. eigenvalues --    4.71792   4.72409   4.72644   4.72751   4.73749
 Alpha virt. eigenvalues --    4.74661   4.75778   4.76918   4.77037   4.78191
 Alpha virt. eigenvalues --    4.79177   4.79507   4.80645   4.81153   4.86031
 Alpha virt. eigenvalues --    4.87232   4.87925   4.88045   4.89465   4.89886
 Alpha virt. eigenvalues --    4.91571   4.92469   4.92842   4.93683   4.93729
 Alpha virt. eigenvalues --    4.95094   4.95516   4.96096   4.96998   4.97165
 Alpha virt. eigenvalues --    4.97698   4.98349   4.98877   5.00195   5.00399
 Alpha virt. eigenvalues --    5.00831   5.02007   5.02973   5.03858   5.06849
 Alpha virt. eigenvalues --    5.06987   5.08465   5.08867   5.15823   5.15868
 Alpha virt. eigenvalues --    5.18345   5.18738   5.21356   5.22399   5.22694
 Alpha virt. eigenvalues --    5.23053   5.24317   5.25452   5.25712   5.27101
 Alpha virt. eigenvalues --    5.28085   5.29124   5.29826   5.31585   5.33611
 Alpha virt. eigenvalues --    5.34260   5.35133   5.35969   5.36552   5.36717
 Alpha virt. eigenvalues --    5.39324   5.40127   5.46116   5.48926   5.49082
 Alpha virt. eigenvalues --    5.49393   5.50935   5.52573   5.53370   5.53946
 Alpha virt. eigenvalues --    5.54260   5.54273   5.56161   5.56385   5.59378
 Alpha virt. eigenvalues --    5.59880   5.63329   5.63370   5.66919   5.69670
 Alpha virt. eigenvalues --    5.69713   5.72964   5.74135   5.77650   5.81409
 Alpha virt. eigenvalues --    5.89136   5.89482   5.90003   5.93066   6.01630
 Alpha virt. eigenvalues --    6.10753   6.11234   6.18056   6.24138   6.52730
 Alpha virt. eigenvalues --    6.59350   6.80883   6.84638   6.85756   7.42690
 Alpha virt. eigenvalues --    7.49022  21.94177  21.99406  22.21905  22.27171
 Alpha virt. eigenvalues --   22.31521  22.39822  22.43021  22.51030  22.51063
 Alpha virt. eigenvalues --   22.52525  22.54008  22.54015  22.56634  22.63932
 Alpha virt. eigenvalues --   22.64975  22.67049  22.67280  22.67399  22.67635
 Alpha virt. eigenvalues --   22.68040  22.69728  22.69836  22.71109  22.71352
 Alpha virt. eigenvalues --   22.75524  22.76362  22.77522  22.78718  22.81151
 Alpha virt. eigenvalues --   22.82386  22.85260  22.88064  22.99096  22.99330
 Alpha virt. eigenvalues --   23.03255  23.15337  23.16342  23.16554  23.31573
 Alpha virt. eigenvalues --   23.36950  23.43192  23.51560  33.25525  44.44742
          Condensed to atoms (all electrons):
 Mulliken charges:
               1
     1  C   -0.241216
     2  C   -0.214711
     3  C    0.056214
     4  C    0.225450
     5  C   -0.367173
     6  C    0.200966
     7  C    0.225288
     8  C    0.056428
     9  C   -0.214552
    10  H    0.155737
    11  C   -0.241383
    12  C    0.201298
    13  C   -0.367721
    14  H    0.155715
    15  H    0.117615
    16  H    0.135181
    17  N    0.132009
    18  C   -0.005746
    19  C   -0.173021
    20  C   -0.173359
    21  C   -0.108986
    22  C   -0.109098
    23  H    0.135652
    24  C   -0.110407
    25  H    0.142639
    26  H    0.144548
    27  H    0.117715
    28  H    0.135094
    29  C    0.126880
    30  C   -0.207088
    31  C   -0.210721
    32  C   -0.212003
    33  H    0.134864
    34  C   -0.211524
    35  H    0.134054
    36  C    0.183426
    37  H    0.135319
    38  H    0.135410
    39  C    0.100867
    40  C   -0.206747
    41  C   -0.207325
    42  C   -0.149177
    43  H    0.138929
    44  C   -0.148964
    45  H    0.138675
    46  C   -0.132031
    47  H    0.138422
    48  H    0.138406
    49  H    0.140822
    50  C    0.126710
    51  C   -0.207138
    52  C   -0.210779
    53  C   -0.212159
    54  H    0.134942
    55  C   -0.211776
    56  H    0.134139
    57  C    0.183576
    58  H    0.135436
    59  H    0.135568
    60  C    0.101394
    61  C   -0.207228
    62  C   -0.207761
    63  C   -0.149060
    64  H    0.139037
    65  C   -0.148956
    66  H    0.138806
    67  C   -0.131914
    68  H    0.138417
    69  H    0.138397
    70  H    0.140824
    71  O   -0.209373
    72  H    0.142665
    73  H    0.135563
 Sum of Mulliken charges =  -0.00000
 Mulliken charges with hydrogens summed into heavy atoms:
               1
     1  C   -0.106121
     2  C   -0.058996
     3  C    0.056214
     4  C    0.225450
     5  C   -0.249558
     6  C    0.200966
     7  C    0.225288
     8  C    0.056428
     9  C   -0.058815
    11  C   -0.106202
    12  C    0.201298
    13  C   -0.250006
    17  N    0.132009
    18  C   -0.005746
    19  C   -0.037458
    20  C   -0.037708
    21  C    0.033679
    22  C    0.033542
    24  C    0.034141
    29  C    0.126880
    30  C   -0.072224
    31  C   -0.076666
    32  C   -0.076685
    34  C   -0.076114
    36  C    0.183426
    39  C    0.100867
    40  C   -0.067818
    41  C   -0.068650
    42  C   -0.010755
    44  C   -0.010558
    46  C    0.008791
    50  C    0.126710
    51  C   -0.072196
    52  C   -0.076640
    53  C   -0.076723
    55  C   -0.076208
    57  C    0.183576
    60  C    0.101394
    61  C   -0.068191
    62  C   -0.068956
    63  C   -0.010643
    65  C   -0.010559
    67  C    0.008910
    71  O   -0.209373
 Electronic spatial extent (au):  <R**2>=          52170.1806
 Charge=              0.0000 electrons
 Dipole moment (field-independent basis, Debye):
    X=             -0.0053    Y=              4.4116    Z=              0.0215  Tot=              4.4117
 Quadrupole moment (field-independent basis, Debye-Ang):
   XX=           -239.8813   YY=           -206.7617   ZZ=           -246.3657
   XY=              0.1515   XZ=             -7.8928   YZ=              0.0565
 Traceless Quadrupole moment (field-independent basis, Debye-Ang):
   XX=             -8.8784   YY=             24.2412   ZZ=            -15.3628
   XY=              0.1515   XZ=             -7.8928   YZ=              0.0565
 Octapole moment (field-independent basis, Debye-Ang**2):
  XXX=              2.1437  YYY=            225.4947  ZZZ=              0.0650  XYY=              0.8638
  XXY=           -147.3440  XXZ=             -0.0627  XZZ=             -2.3338  YZZ=             12.8821
  YYZ=              0.7570  XYZ=            -82.8780
 Hexadecapole moment (field-independent basis, Debye-Ang**3):
 XXXX=         -53585.1739 YYYY=         -12380.2137 ZZZZ=           -990.8166 XXXY=             23.9441
 XXXZ=          -1640.5923 YYYX=             -9.2298 YYYZ=             -1.6728 ZZZX=            -20.4383
 ZZZY=              0.6469 XXYY=         -11023.7018 XXZZ=          -9616.2460 YYZZ=          -2298.2141
 XXYZ=             -3.2886 YYXZ=            457.6231 ZZXY=              6.2390
 N-N= 4.188387202420D+03 E-N=-1.243890113309D+04  KE= 1.740691008284D+03
 Leave Link  601 at Wed Nov 24 20:25:14 2021, MaxMem=  5242880000 cpu:         9.0
 (Enter /opt/nce/packages/global/g09/l9999.exe)
 1\1\GINC-CN016\SP\RTPSSTPSS TD-FC\Gen\C42H29N1O1\PNG4RJV\24-Nov-2021\0
 \\#p TPSSTPSS chkbasis geom=allcheck Guess=Read int=ultrafine scrf=(SM
 D,solvent=n,n-DiMethylAcetamide) td=(NStates=30)\\Title\\0,1\C,0,-3.63
 90736798,1.9567329065,-0.0261974195\C,0,-2.4595999341,2.701156905,-0.0
 305929203\C,0,-1.2078301014,2.0729925132,-0.0209711629\C,0,-1.18836739
 18,0.665277684,-0.0115578909\C,0,-2.3573101416,-0.0753476702,-0.009373
 9114\C,0,-3.6197591193,0.5540859214,-0.0158401075\C,0,1.1908323538,0.6
 657501056,0.0046224316\C,0,1.2099102344,2.0733680038,-0.0141112391\C,0
 ,2.4614703768,2.7019145968,-0.0243461415\H,0,2.5113459623,3.7859713168
 ,-0.0263523803\C,0,3.6411556779,1.9578001779,-0.0215369844\C,0,3.62219
 156,0.5552478154,-0.0043524947\C,0,2.3600151626,-0.0745435637,0.009600
 5418\H,0,-2.5097540387,3.7850264178,-0.0500504265\H,0,-2.2708929589,-1
 .1575712655,0.0218155002\H,0,4.5871378964,2.4908244746,-0.0076915054\N
 ,0,0.0009128588,2.7812409633,-0.0208890446\C,0,0.0007316324,4.22272907
 37,-0.0316151396\C,0,0.0044155645,4.905751866,-1.2501417827\C,0,-0.003
 0789474,4.9228892977,1.1771171362\C,0,0.0042953488,6.3017915936,-1.256
 3809507\C,0,-0.0032117581,6.3188738087,1.1636612071\H,0,-0.0057708079,
 4.3751010365,2.1154181277\C,0,0.0004819205,7.0081817077,-0.0512827744\
 H,0,-0.0061430011,6.8665615486,2.102238589\H,0,0.0003920652,8.09496170
 99,-0.0589610368\H,0,2.2739169629,-1.1572152098,0.0006109201\H,0,-4.58
 49951993,2.4892021392,-0.0564223372\C,0,-4.8666438793,-0.2412252579,-0
 .0173593265\C,0,-4.915141794,-1.5337823407,-0.5738897593\C,0,-6.057866
 3339,0.264005641,0.5383810653\C,0,-6.0899555484,-2.2787116062,-0.57559
 60549\H,0,-4.02474986,-1.9615012697,-1.0271910102\C,0,-7.2318385102,-0
 .48181409,0.5374311385\H,0,-6.06490062,1.2514699159,0.9921443969\C,0,-
 7.2789963498,-1.7730864809,-0.0195222115\H,0,-6.0777192517,-3.27690512
 37,-1.0055030263\H,0,-8.1305330311,-0.046700457,0.9669746696\C,0,-8.52
 96347151,-2.5687216743,-0.0196075326\C,0,-8.8035426648,-3.4890047759,-
 1.048992589\C,0,-9.4797467016,-2.4276599919,1.0093779079\C,0,-9.980003
 9028,-4.2375235409,-1.049099463\H,0,-8.0991862408,-3.6044937529,-1.868
 5807154\C,0,-10.6559270049,-3.1767625861,1.0086859839\H,0,-9.286350200
 8,-1.7409129576,1.8292700478\C,0,-10.9131085993,-4.0858885839,-0.02046
 55087\H,0,-10.1715816395,-4.9358497731,-1.860164992\H,0,-11.3701082802
 ,-3.0551570232,1.8194594948\H,0,-11.8299431472,-4.6696522243,-0.020718
 8311\C,0,4.8694134774,-0.2395533422,0.0033555294\C,0,4.923554242,-1.51
 96500651,0.5874184242\C,0,6.0549868618,0.2537743152,-0.5746820644\C,0,
 6.0986297345,-2.2642058728,0.5941081261\H,0,4.0374734679,-1.9375083692
 ,1.0580507839\C,0,7.2290658527,-0.491885626,-0.5691790155\H,0,6.057081
 7225,1.2311236603,-1.0499421696\C,0,7.2818586322,-1.7706748358,0.01531
 90809\H,0,6.0911563333,-3.2527990579,1.0457921983\H,0,8.1235038082,-0.
 0664678776,-1.0169831272\C,0,8.5325000791,-2.5662852508,0.0198056514\C
 ,0,8.8204750263,-3.4587506364,1.0695972827\C,0,9.4682045184,-2.4530357
 659,-1.0256447404\C,0,9.9969660731,-4.2072497961,1.0735618535\H,0,8.12
 72956641,-3.5518871034,1.9015193677\C,0,10.6442556324,-3.2023196441,-1
 .0212002388\H,0,9.2631868244,-1.7885144177,-1.8608986963\C,0,10.915669
 4275,-4.0835456065,0.0283524709\H,0,10.2000040685,-4.8835529182,1.9003
 534395\H,0,11.3471406288,-3.1028227614,-1.844764118\H,0,11.8324470544,
 -4.6673937222,0.0315634139\O,0,0.0012995853,-0.0490161344,0.0084953859
 \H,0,0.007142067,6.8361834311,-2.2025903607\H,0,0.0072187561,4.3448460
 456,-2.1806602046\\Version=ES64L-G09RevE.01\State=1-A\HF=-1748.9074417
 \RMSD=9.626e-09\PG=C01 [X(C42H29N1O1)]\\@


 BREAD HAS TO MOLD IN ORDER TO GET PENICILLIN.
          -- JERRY BOATZ
 Job cpu time:       2 days 16 hours 17 minutes 46.9 seconds.
 File lengths (MBytes):  RWF=   9378 Int=      0 D2E=      0 Chk=   2090 Scr=      1
 Normal termination of Gaussian 09 at Wed Nov 24 20:25:18 2021.
