 Entering Gaussian System, Link 0=g09
 Input=/home/png4rjv/fotokatalizis/benchmark/OPCs/RESTART_2/POZ_5_CAM-B3LYP-D3_def2TZVP.gjf
 Output=/home/png4rjv/fotokatalizis/benchmark/OPCs/RESTART_2/POZ_5_CAM-B3LYP-D3_def2TZVP.log
 Initial command:
 /opt/nce/packages/global/g09/l1.exe "/home/png4rjv/fotokatalizis/benchmark/OPCs/RESTART_2/POZ_5_CAM-B3LYP-D3_def2TZVP/Gau-10828.inp" -scrdir="/home/png4rjv/fotokatalizis/benchmark/OPCs/RESTART_2/POZ_5_CAM-B3LYP-D3_def2TZVP/"
 Default is to use a total of  12 processors:
                               12 via shared-memory
                                1 via Linda
 Entering Link 1 = /opt/nce/packages/global/g09/l1.exe PID=     10829.
  
 Copyright (c) 1988,1990,1992,1993,1995,1998,2003,2009,2015,
            Gaussian, Inc.  All Rights Reserved.
  
 This is part of the Gaussian(R) 09 program.  It is based on
 the Gaussian(R) 03 system (copyright 2003, Gaussian, Inc.),
 the Gaussian(R) 98 system (copyright 1998, Gaussian, Inc.),
 the Gaussian(R) 94 system (copyright 1995, Gaussian, Inc.),
 the Gaussian 92(TM) system (copyright 1992, Gaussian, Inc.),
 the Gaussian 90(TM) system (copyright 1990, Gaussian, Inc.),
 the Gaussian 88(TM) system (copyright 1988, Gaussian, Inc.),
 the Gaussian 86(TM) system (copyright 1986, Carnegie Mellon
 University), and the Gaussian 82(TM) system (copyright 1983,
 Carnegie Mellon University). Gaussian is a federally registered
 trademark of Gaussian, Inc.
  
 This software contains proprietary and confidential information,
 including trade secrets, belonging to Gaussian, Inc.
  
 This software is provided under written license and may be
 used, copied, transmitted, or stored only in accord with that
 written license.
  
 The following legend is applicable only to US Government
 contracts under FAR:
  
                    RESTRICTED RIGHTS LEGEND
  
 Use, reproduction and disclosure by the US Government is
 subject to restrictions as set forth in subparagraphs (a)
 and (c) of the Commercial Computer Software - Restricted
 Rights clause in FAR 52.227-19.
  
 Gaussian, Inc.
 340 Quinnipiac St., Bldg. 40, Wallingford CT 06492
  
  
 ---------------------------------------------------------------
 Warning -- This program may not be used in any manner that
 competes with the business of Gaussian, Inc. or will provide
 assistance to any competitor of Gaussian, Inc.  The licensee
 of this program is prohibited from giving any competitor of
 Gaussian, Inc. access to this program.  By using this program,
 the user acknowledges that Gaussian, Inc. is engaged in the
 business of creating and licensing software in the field of
 computational chemistry and represents and warrants to the
 licensee that it is not a competitor of Gaussian, Inc. and that
 it will not use this program in any manner prohibited above.
 ---------------------------------------------------------------
  

 Cite this work as:
 Gaussian 09, Revision E.01,
 M. J. Frisch, G. W. Trucks, H. B. Schlegel, G. E. Scuseria, 
 M. A. Robb, J. R. Cheeseman, G. Scalmani, V. Barone, B. Mennucci, 
 G. A. Petersson, H. Nakatsuji, M. Caricato, X. Li, H. P. Hratchian, 
 A. F. Izmaylov, J. Bloino, G. Zheng, J. L. Sonnenberg, M. Hada, 
 M. Ehara, K. Toyota, R. Fukuda, J. Hasegawa, M. Ishida, T. Nakajima, 
 Y. Honda, O. Kitao, H. Nakai, T. Vreven, J. A. Montgomery, Jr., 
 J. E. Peralta, F. Ogliaro, M. Bearpark, J. J. Heyd, E. Brothers, 
 K. N. Kudin, V. N. Staroverov, T. Keith, R. Kobayashi, J. Normand, 
 K. Raghavachari, A. Rendell, J. C. Burant, S. S. Iyengar, J. Tomasi, 
 M. Cossi, N. Rega, J. M. Millam, M. Klene, J. E. Knox, J. B. Cross, 
 V. Bakken, C. Adamo, J. Jaramillo, R. Gomperts, R. E. Stratmann, 
 O. Yazyev, A. J. Austin, R. Cammi, C. Pomelli, J. W. Ochterski, 
 R. L. Martin, K. Morokuma, V. G. Zakrzewski, G. A. Voth, 
 P. Salvador, J. J. Dannenberg, S. Dapprich, A. D. Daniels, 
 O. Farkas, J. B. Foresman, J. V. Ortiz, J. Cioslowski, 
 and D. J. Fox, Gaussian, Inc., Wallingford CT, 2013.
 
 ******************************************
 Gaussian 09:  ES64L-G09RevE.01 30-Nov-2015
                23-Nov-2021 
 ******************************************
 %chk=cp.chk
 Default route:  MaxDisk=500GB
 ----------------------------------------------------------------------
 #p cam-b3lyp/def2TZVP opt=tight freq=noraman nosymm int=ultrafine scrf
 =(SMD,solvent=n,n-DiMethylAcetamide) EmpiricalDispersion=GD3BJ
 ----------------------------------------------------------------------
 1/7=10,14=-1,18=20,19=15,26=4,38=1/1,3;
 2/9=110,12=2,15=1,17=6,18=5,40=1/2;
 3/5=44,7=101,11=2,16=1,25=1,30=1,70=32201,71=1,72=147,74=-40,75=-5,124=41/1,2,3;
 4//1;
 5/5=2,38=5,53=147/2;
 6/7=2,8=2,9=2,10=2,28=1/1;
 7/30=1/1,2,3,16;
 1/7=10,14=-1,18=20,19=15,26=4/3(2);
 2/9=110,15=1/2;
 99//99;
 2/9=110,15=1/2;
 3/5=44,7=101,11=2,16=1,25=1,30=1,70=32205,71=1,72=147,74=-40,75=-5,124=41/1,2,3;
 4/5=5,16=3,69=1/1;
 5/5=2,38=5,53=147/2;
 7/30=1/1,2,3,16;
 1/7=10,14=-1,18=20,19=15,26=4/3(-5);
 2/9=110,15=1/2;
 6/7=2,8=2,9=2,10=2,19=2,28=1/1;
 99/9=1/99;
 Leave Link    1 at Tue Nov 23 21:22:56 2021, MaxMem=           0 cpu:         1.0
 (Enter /opt/nce/packages/global/g09/l101.exe)
 -----
 Title
 -----
 Symbolic Z-matrix:
 Charge =  0 Multiplicity = 1
 C                    -3.61349   1.94303  -0.03788 
 C                    -2.44186   2.68365  -0.01666 
 C                    -1.20226   2.06113   0.08504 
 C                    -1.18007   0.66503   0.15155 
 C                    -2.34011  -0.0694    0.12902 
 C                    -3.5887    0.55568   0.03026 
 C                     1.2268    0.73201   0.52812 
 C                     1.20225   2.06113   0.09474 
 C                     2.44186   2.68365  -0.00336 
 H                     2.4951    3.76245  -0.05599 
 C                     3.61349   1.94303  -0.02208 
 C                     3.5887    0.55568   0.04964 
 C                     2.34011  -0.0694    0.15069 
 H                    -2.4951    3.76245  -0.08392 
 H                    -2.25578  -1.14763   0.20493 
 H                     4.55795   2.46924  -0.08251 
 N                    0.         2.76511   0.11985 
 C                    0.         4.19141   0.03003 
 C                     0.00389   4.80899  -1.21224 
 C                    -0.00389   4.9487    1.19245 
 C                     0.00387   6.19394  -1.29056 
 C                    -0.00388   6.33365   1.11111 
 H                    -0.0068    4.44402   2.15185 
 C                    0.         6.95629  -0.12964 
 H                    -0.00687   6.92277   2.01936 
 H                    0.         8.03857  -0.18951 
 H                     2.25578  -1.14763   0.19466 
 H                    -4.55796   2.46924  -0.13731 
 C                    -4.83304  -0.24122   0.00535 
 C                    -4.87247  -1.49824  -0.60124 
 C                    -6.00975   0.2388    0.57668 
 C                    -6.03753  -2.24111  -0.62842 
 H                    -3.9757   -1.8971   -1.06655 
 C                    -7.17443  -0.5045    0.5499 
 H                    -6.02086   1.21076   1.06866 
 C                    -7.2134   -1.76007  -0.05808 
 H                    -6.03049  -3.2138   -1.1014 
 H                    -8.07809  -0.08817   0.99828 
 C                    -8.46102  -2.55547  -0.08567 
 C                    -8.77955  -3.33583  -1.19751 
 C                    -9.34797  -2.54387   0.99843 
 C                    -9.9468   -4.07982  -1.22554 
 H                    -8.11488  -3.34609  -2.05096 
 C                    -10.50505  -3.28823   0.97122 
 H                    -9.10487  -1.9514    1.8779 
 C                    -10.82016  -4.05979  -0.14097 
 H                    -10.17732  -4.67186  -2.10037 
 H                    -11.17685  -3.27164   1.82023 
 H                    -11.73262  -4.64185  -0.16682 
 C                     4.83303  -0.24122   0.0346 
 C                     4.9324   -1.43831   0.74107 
 C                     5.94981   0.17886  -0.69657 
 C                     6.09746  -2.18118   0.7283 
 H                     4.09557  -1.79722   1.32626 
 C                     7.11449  -0.56443  -0.70975 
 H                     5.90098   1.09088  -1.26846 
 C                     7.21339  -1.76007  -0.00189 
 H                     6.13037  -3.11392   1.28118 
 H                     7.9582   -0.20806  -1.27801 
 C                     8.46101  -2.55548  -0.01426 
 C                     8.87944  -3.25593   1.11756 
 C                     9.24806  -2.62379  -1.15828 
 C                     10.04669  -3.99993   1.10563 
 H                     8.29469  -3.20626   2.03096 
 C                     10.42513  -3.36815  -1.17103 
 H                     8.94503  -2.11125  -2.05773 
 C                     10.82014  -4.05981  -0.03887 
 H                     10.35713  -4.53203   2.00044 
 H                     11.01701  -3.41149  -2.07998 
 H                     11.7326  -4.64187  -0.053 
 O                    0.        -0.0358    0.2997 
 H                     0.00687   6.68329  -2.25868 
 H                     0.00679   4.20453  -2.11176 
 
 NAtoms=     73 NQM=       73 NQMF=       0 NMMI=      0 NMMIF=      0
                NMic=       0 NMicF=      0.
                    Isotopes and Nuclear Properties:
 (Nuclear quadrupole moments (NQMom) in fm**2, nuclear magnetic moments (NMagM)
  in nuclear magnetons)

  Atom         1           2           3           4           5           6           7           8           9          10
 IAtWgt=          12          12          12          12          12          12          12          12          12           1
 AtmWgt=  12.0000000  12.0000000  12.0000000  12.0000000  12.0000000  12.0000000  12.0000000  12.0000000  12.0000000   1.0078250
 NucSpn=           0           0           0           0           0           0           0           0           0           1
 AtZEff=   0.0000000   0.0000000   0.0000000   0.0000000   0.0000000   0.0000000   0.0000000   0.0000000   0.0000000   0.0000000
 NQMom=    0.0000000   0.0000000   0.0000000   0.0000000   0.0000000   0.0000000   0.0000000   0.0000000   0.0000000   0.0000000
 NMagM=    0.0000000   0.0000000   0.0000000   0.0000000   0.0000000   0.0000000   0.0000000   0.0000000   0.0000000   2.7928460
 AtZNuc=   6.0000000   6.0000000   6.0000000   6.0000000   6.0000000   6.0000000   6.0000000   6.0000000   6.0000000   1.0000000

  Atom        11          12          13          14          15          16          17          18          19          20
 IAtWgt=          12          12          12           1           1           1          14          12          12          12
 AtmWgt=  12.0000000  12.0000000  12.0000000   1.0078250   1.0078250   1.0078250  14.0030740  12.0000000  12.0000000  12.0000000
 NucSpn=           0           0           0           1           1           1           2           0           0           0
 AtZEff=   0.0000000   0.0000000   0.0000000   0.0000000   0.0000000   0.0000000   0.0000000   0.0000000   0.0000000   0.0000000
 NQMom=    0.0000000   0.0000000   0.0000000   0.0000000   0.0000000   0.0000000   2.0440000   0.0000000   0.0000000   0.0000000
 NMagM=    0.0000000   0.0000000   0.0000000   2.7928460   2.7928460   2.7928460   0.4037610   0.0000000   0.0000000   0.0000000
 AtZNuc=   6.0000000   6.0000000   6.0000000   1.0000000   1.0000000   1.0000000   7.0000000   6.0000000   6.0000000   6.0000000

  Atom        21          22          23          24          25          26          27          28          29          30
 IAtWgt=          12          12           1          12           1           1           1           1          12          12
 AtmWgt=  12.0000000  12.0000000   1.0078250  12.0000000   1.0078250   1.0078250   1.0078250   1.0078250  12.0000000  12.0000000
 NucSpn=           0           0           1           0           1           1           1           1           0           0
 AtZEff=   0.0000000   0.0000000   0.0000000   0.0000000   0.0000000   0.0000000   0.0000000   0.0000000   0.0000000   0.0000000
 NQMom=    0.0000000   0.0000000   0.0000000   0.0000000   0.0000000   0.0000000   0.0000000   0.0000000   0.0000000   0.0000000
 NMagM=    0.0000000   0.0000000   2.7928460   0.0000000   2.7928460   2.7928460   2.7928460   2.7928460   0.0000000   0.0000000
 AtZNuc=   6.0000000   6.0000000   1.0000000   6.0000000   1.0000000   1.0000000   1.0000000   1.0000000   6.0000000   6.0000000

  Atom        31          32          33          34          35          36          37          38          39          40
 IAtWgt=          12          12           1          12           1          12           1           1          12          12
 AtmWgt=  12.0000000  12.0000000   1.0078250  12.0000000   1.0078250  12.0000000   1.0078250   1.0078250  12.0000000  12.0000000
 NucSpn=           0           0           1           0           1           0           1           1           0           0
 AtZEff=   0.0000000   0.0000000   0.0000000   0.0000000   0.0000000   0.0000000   0.0000000   0.0000000   0.0000000   0.0000000
 NQMom=    0.0000000   0.0000000   0.0000000   0.0000000   0.0000000   0.0000000   0.0000000   0.0000000   0.0000000   0.0000000
 NMagM=    0.0000000   0.0000000   2.7928460   0.0000000   2.7928460   0.0000000   2.7928460   2.7928460   0.0000000   0.0000000
 AtZNuc=   6.0000000   6.0000000   1.0000000   6.0000000   1.0000000   6.0000000   1.0000000   1.0000000   6.0000000   6.0000000

  Atom        41          42          43          44          45          46          47          48          49          50
 IAtWgt=          12          12           1          12           1          12           1           1           1          12
 AtmWgt=  12.0000000  12.0000000   1.0078250  12.0000000   1.0078250  12.0000000   1.0078250   1.0078250   1.0078250  12.0000000
 NucSpn=           0           0           1           0           1           0           1           1           1           0
 AtZEff=   0.0000000   0.0000000   0.0000000   0.0000000   0.0000000   0.0000000   0.0000000   0.0000000   0.0000000   0.0000000
 NQMom=    0.0000000   0.0000000   0.0000000   0.0000000   0.0000000   0.0000000   0.0000000   0.0000000   0.0000000   0.0000000
 NMagM=    0.0000000   0.0000000   2.7928460   0.0000000   2.7928460   0.0000000   2.7928460   2.7928460   2.7928460   0.0000000
 AtZNuc=   6.0000000   6.0000000   1.0000000   6.0000000   1.0000000   6.0000000   1.0000000   1.0000000   1.0000000   6.0000000

  Atom        51          52          53          54          55          56          57          58          59          60
 IAtWgt=          12          12          12           1          12           1          12           1           1          12
 AtmWgt=  12.0000000  12.0000000  12.0000000   1.0078250  12.0000000   1.0078250  12.0000000   1.0078250   1.0078250  12.0000000
 NucSpn=           0           0           0           1           0           1           0           1           1           0
 AtZEff=   0.0000000   0.0000000   0.0000000   0.0000000   0.0000000   0.0000000   0.0000000   0.0000000   0.0000000   0.0000000
 NQMom=    0.0000000   0.0000000   0.0000000   0.0000000   0.0000000   0.0000000   0.0000000   0.0000000   0.0000000   0.0000000
 NMagM=    0.0000000   0.0000000   0.0000000   2.7928460   0.0000000   2.7928460   0.0000000   2.7928460   2.7928460   0.0000000
 AtZNuc=   6.0000000   6.0000000   6.0000000   1.0000000   6.0000000   1.0000000   6.0000000   1.0000000   1.0000000   6.0000000

  Atom        61          62          63          64          65          66          67          68          69          70
 IAtWgt=          12          12          12           1          12           1          12           1           1           1
 AtmWgt=  12.0000000  12.0000000  12.0000000   1.0078250  12.0000000   1.0078250  12.0000000   1.0078250   1.0078250   1.0078250
 NucSpn=           0           0           0           1           0           1           0           1           1           1
 AtZEff=   0.0000000   0.0000000   0.0000000   0.0000000   0.0000000   0.0000000   0.0000000   0.0000000   0.0000000   0.0000000
 NQMom=    0.0000000   0.0000000   0.0000000   0.0000000   0.0000000   0.0000000   0.0000000   0.0000000   0.0000000   0.0000000
 NMagM=    0.0000000   0.0000000   0.0000000   2.7928460   0.0000000   2.7928460   0.0000000   2.7928460   2.7928460   2.7928460
 AtZNuc=   6.0000000   6.0000000   6.0000000   1.0000000   6.0000000   1.0000000   6.0000000   1.0000000   1.0000000   1.0000000

  Atom        71          72          73
 IAtWgt=          16           1           1
 AtmWgt=  15.9949146   1.0078250   1.0078250
 NucSpn=           0           1           1
 AtZEff=   0.0000000   0.0000000   0.0000000
 NQMom=    0.0000000   0.0000000   0.0000000
 NMagM=    0.0000000   2.7928460   2.7928460
 AtZNuc=   8.0000000   1.0000000   1.0000000
 Leave Link  101 at Tue Nov 23 21:22:56 2021, MaxMem=  5242880000 cpu:         4.5
 (Enter /opt/nce/packages/global/g09/l103.exe)

 GradGradGradGradGradGradGradGradGradGradGradGradGradGradGradGradGradGrad
 Berny optimization.
 Initialization pass.
                           ----------------------------
                           !    Initial Parameters    !
                           ! (Angstroms and Degrees)  !
 --------------------------                            --------------------------
 ! Name  Definition              Value          Derivative Info.                !
 --------------------------------------------------------------------------------
 ! R1    R(1,2)                  1.3862         estimate D2E/DX2                !
 ! R2    R(1,6)                  1.3892         estimate D2E/DX2                !
 ! R3    R(1,28)                 1.0857         estimate D2E/DX2                !
 ! R4    R(2,3)                  1.3909         estimate D2E/DX2                !
 ! R5    R(2,14)                 1.0822         estimate D2E/DX2                !
 ! R6    R(3,4)                  1.3979         estimate D2E/DX2                !
 ! R7    R(3,17)                 1.3936         estimate D2E/DX2                !
 ! R8    R(4,5)                  1.3732         estimate D2E/DX2                !
 ! R9    R(4,71)                 1.3805         estimate D2E/DX2                !
 ! R10   R(5,6)                  1.3998         estimate D2E/DX2                !
 ! R11   R(5,15)                 1.0842         estimate D2E/DX2                !
 ! R12   R(6,29)                 1.4779         estimate D2E/DX2                !
 ! R13   R(7,8)                  1.3982         estimate D2E/DX2                !
 ! R14   R(7,13)                 1.4227         estimate D2E/DX2                !
 ! R15   R(7,71)                 1.4652         estimate D2E/DX2                !
 ! R16   R(8,9)                  1.3906         estimate D2E/DX2                !
 ! R17   R(8,17)                 1.3934         estimate D2E/DX2                !
 ! R18   R(9,10)                 1.0814         estimate D2E/DX2                !
 ! R19   R(9,11)                 1.3862         estimate D2E/DX2                !
 ! R20   R(11,12)                1.3894         estimate D2E/DX2                !
 ! R21   R(11,16)                1.0828         estimate D2E/DX2                !
 ! R22   R(12,13)                1.4            estimate D2E/DX2                !
 ! R23   R(12,50)                1.4777         estimate D2E/DX2                !
 ! R24   R(13,27)                1.0824         estimate D2E/DX2                !
 ! R25   R(17,18)                1.4291         estimate D2E/DX2                !
 ! R26   R(18,19)                1.3873         estimate D2E/DX2                !
 ! R27   R(18,20)                1.3874         estimate D2E/DX2                !
 ! R28   R(19,21)                1.3872         estimate D2E/DX2                !
 ! R29   R(19,73)                1.0838         estimate D2E/DX2                !
 ! R30   R(20,22)                1.3873         estimate D2E/DX2                !
 ! R31   R(20,23)                1.084          estimate D2E/DX2                !
 ! R32   R(21,24)                1.3889         estimate D2E/DX2                !
 ! R33   R(21,72)                1.0848         estimate D2E/DX2                !
 ! R34   R(22,24)                1.3882         estimate D2E/DX2                !
 ! R35   R(22,25)                1.0826         estimate D2E/DX2                !
 ! R36   R(24,26)                1.0839         estimate D2E/DX2                !
 ! R37   R(29,30)                1.3963         estimate D2E/DX2                !
 ! R38   R(29,31)                1.3934         estimate D2E/DX2                !
 ! R39   R(30,32)                1.382          estimate D2E/DX2                !
 ! R40   R(30,33)                1.0862         estimate D2E/DX2                !
 ! R41   R(31,34)                1.3819         estimate D2E/DX2                !
 ! R42   R(31,35)                1.0894         estimate D2E/DX2                !
 ! R43   R(32,36)                1.3926         estimate D2E/DX2                !
 ! R44   R(32,37)                1.0816         estimate D2E/DX2                !
 ! R45   R(34,36)                1.3956         estimate D2E/DX2                !
 ! R46   R(34,38)                1.0913         estimate D2E/DX2                !
 ! R47   R(36,39)                1.4799         estimate D2E/DX2                !
 ! R48   R(39,40)                1.3952         estimate D2E/DX2                !
 ! R49   R(39,41)                1.4007         estimate D2E/DX2                !
 ! R50   R(40,42)                1.3845         estimate D2E/DX2                !
 ! R51   R(40,43)                1.0818         estimate D2E/DX2                !
 ! R52   R(41,44)                1.3761         estimate D2E/DX2                !
 ! R53   R(41,45)                1.0879         estimate D2E/DX2                !
 ! R54   R(42,46)                1.3926         estimate D2E/DX2                !
 ! R55   R(42,47)                1.0812         estimate D2E/DX2                !
 ! R56   R(44,46)                1.3898         estimate D2E/DX2                !
 ! R57   R(44,48)                1.0828         estimate D2E/DX2                !
 ! R58   R(46,49)                1.0826         estimate D2E/DX2                !
 ! R59   R(50,51)                1.3936         estimate D2E/DX2                !
 ! R60   R(50,52)                1.3994         estimate D2E/DX2                !
 ! R61   R(51,53)                1.3818         estimate D2E/DX2                !
 ! R62   R(51,54)                1.0824         estimate D2E/DX2                !
 ! R63   R(52,55)                1.3817         estimate D2E/DX2                !
 ! R64   R(52,56)                1.0776         estimate D2E/DX2                !
 ! R65   R(53,57)                1.3985         estimate D2E/DX2                !
 ! R66   R(53,58)                1.0848         estimate D2E/DX2                !
 ! R67   R(55,57)                1.393          estimate D2E/DX2                !
 ! R68   R(55,59)                1.0778         estimate D2E/DX2                !
 ! R69   R(57,60)                1.4797         estimate D2E/DX2                !
 ! R70   R(60,61)                1.3952         estimate D2E/DX2                !
 ! R71   R(60,62)                1.3903         estimate D2E/DX2                !
 ! R72   R(61,63)                1.3842         estimate D2E/DX2                !
 ! R73   R(61,64)                1.0857         estimate D2E/DX2                !
 ! R74   R(62,65)                1.3927         estimate D2E/DX2                !
 ! R75   R(62,66)                1.0787         estimate D2E/DX2                !
 ! R76   R(63,67)                1.3826         estimate D2E/DX2                !
 ! R77   R(63,68)                1.0864         estimate D2E/DX2                !
 ! R78   R(65,67)                1.3843         estimate D2E/DX2                !
 ! R79   R(65,69)                1.0855         estimate D2E/DX2                !
 ! R80   R(67,70)                1.0824         estimate D2E/DX2                !
 ! A1    A(2,1,6)              121.1779         estimate D2E/DX2                !
 ! A2    A(2,1,28)             118.5346         estimate D2E/DX2                !
 ! A3    A(6,1,28)             120.2659         estimate D2E/DX2                !
 ! A4    A(1,2,3)              121.0154         estimate D2E/DX2                !
 ! A5    A(1,2,14)             119.3435         estimate D2E/DX2                !
 ! A6    A(3,2,14)             119.6407         estimate D2E/DX2                !
 ! A7    A(2,3,4)              117.687          estimate D2E/DX2                !
 ! A8    A(2,3,17)             122.9974         estimate D2E/DX2                !
 ! A9    A(4,3,17)             119.3154         estimate D2E/DX2                !
 ! A10   A(3,4,5)              121.3307         estimate D2E/DX2                !
 ! A11   A(3,4,71)             121.7166         estimate D2E/DX2                !
 ! A12   A(5,4,71)             116.8972         estimate D2E/DX2                !
 ! A13   A(4,5,6)              121.0547         estimate D2E/DX2                !
 ! A14   A(4,5,15)             117.7135         estimate D2E/DX2                !
 ! A15   A(6,5,15)             121.2258         estimate D2E/DX2                !
 ! A16   A(1,6,5)              117.7307         estimate D2E/DX2                !
 ! A17   A(1,6,29)             121.5098         estimate D2E/DX2                !
 ! A18   A(5,6,29)             120.7591         estimate D2E/DX2                !
 ! A19   A(8,7,13)             117.8379         estimate D2E/DX2                !
 ! A20   A(8,7,71)             115.7933         estimate D2E/DX2                !
 ! A21   A(13,7,71)            108.5816         estimate D2E/DX2                !
 ! A22   A(7,8,9)              115.5791         estimate D2E/DX2                !
 ! A23   A(7,8,17)             119.3284         estimate D2E/DX2                !
 ! A24   A(9,8,17)             122.9719         estimate D2E/DX2                !
 ! A25   A(8,9,10)             119.5977         estimate D2E/DX2                !
 ! A26   A(8,9,11)             121.0116         estimate D2E/DX2                !
 ! A27   A(10,9,11)            119.3879         estimate D2E/DX2                !
 ! A28   A(9,11,12)            121.178          estimate D2E/DX2                !
 ! A29   A(9,11,16)            118.5756         estimate D2E/DX2                !
 ! A30   A(12,11,16)           120.2426         estimate D2E/DX2                !
 ! A31   A(11,12,13)           117.7404         estimate D2E/DX2                !
 ! A32   A(11,12,50)           121.5287         estimate D2E/DX2                !
 ! A33   A(13,12,50)           120.7279         estimate D2E/DX2                !
 ! A34   A(7,13,12)            117.7451         estimate D2E/DX2                !
 ! A35   A(7,13,27)            119.2994         estimate D2E/DX2                !
 ! A36   A(12,13,27)           121.1435         estimate D2E/DX2                !
 ! A37   A(3,17,8)             119.2532         estimate D2E/DX2                !
 ! A38   A(3,17,18)            120.1701         estimate D2E/DX2                !
 ! A39   A(8,17,18)            120.2042         estimate D2E/DX2                !
 ! A40   A(17,18,19)           120.0371         estimate D2E/DX2                !
 ! A41   A(17,18,20)           119.4796         estimate D2E/DX2                !
 ! A42   A(19,18,20)           120.4833         estimate D2E/DX2                !
 ! A43   A(18,19,21)           119.6704         estimate D2E/DX2                !
 ! A44   A(18,19,73)           119.666          estimate D2E/DX2                !
 ! A45   A(21,19,73)           120.6636         estimate D2E/DX2                !
 ! A46   A(18,20,22)           119.7216         estimate D2E/DX2                !
 ! A47   A(18,20,23)           119.1708         estimate D2E/DX2                !
 ! A48   A(22,20,23)           121.1077         estimate D2E/DX2                !
 ! A49   A(19,21,24)           120.0552         estimate D2E/DX2                !
 ! A50   A(19,21,72)           120.0511         estimate D2E/DX2                !
 ! A51   A(24,21,72)           119.8937         estimate D2E/DX2                !
 ! A52   A(20,22,24)           120.0099         estimate D2E/DX2                !
 ! A53   A(20,22,25)           119.6069         estimate D2E/DX2                !
 ! A54   A(24,22,25)           120.3832         estimate D2E/DX2                !
 ! A55   A(21,24,22)           120.0597         estimate D2E/DX2                !
 ! A56   A(21,24,26)           120.1256         estimate D2E/DX2                !
 ! A57   A(22,24,26)           119.8147         estimate D2E/DX2                !
 ! A58   A(6,29,30)            121.1009         estimate D2E/DX2                !
 ! A59   A(6,29,31)            121.2246         estimate D2E/DX2                !
 ! A60   A(30,29,31)           117.6728         estimate D2E/DX2                !
 ! A61   A(29,30,32)           121.0823         estimate D2E/DX2                !
 ! A62   A(29,30,33)           119.5629         estimate D2E/DX2                !
 ! A63   A(32,30,33)           119.3531         estimate D2E/DX2                !
 ! A64   A(29,31,34)           121.2328         estimate D2E/DX2                !
 ! A65   A(29,31,35)           120.0747         estimate D2E/DX2                !
 ! A66   A(34,31,35)           118.687          estimate D2E/DX2                !
 ! A67   A(30,32,36)           121.2033         estimate D2E/DX2                !
 ! A68   A(30,32,37)           119.1116         estimate D2E/DX2                !
 ! A69   A(36,32,37)           119.6851         estimate D2E/DX2                !
 ! A70   A(31,34,36)           121.0565         estimate D2E/DX2                !
 ! A71   A(31,34,38)           118.9947         estimate D2E/DX2                !
 ! A72   A(36,34,38)           119.9401         estimate D2E/DX2                !
 ! A73   A(32,36,34)           117.7506         estimate D2E/DX2                !
 ! A74   A(32,36,39)           121.2354         estimate D2E/DX2                !
 ! A75   A(34,36,39)           121.0125         estimate D2E/DX2                !
 ! A76   A(36,39,40)           120.5275         estimate D2E/DX2                !
 ! A77   A(36,39,41)           120.9941         estimate D2E/DX2                !
 ! A78   A(40,39,41)           118.4784         estimate D2E/DX2                !
 ! A79   A(39,40,42)           120.6091         estimate D2E/DX2                !
 ! A80   A(39,40,43)           119.586          estimate D2E/DX2                !
 ! A81   A(42,40,43)           119.7976         estimate D2E/DX2                !
 ! A82   A(39,41,44)           120.8397         estimate D2E/DX2                !
 ! A83   A(39,41,45)           119.2532         estimate D2E/DX2                !
 ! A84   A(44,41,45)           119.8974         estimate D2E/DX2                !
 ! A85   A(40,42,46)           120.3466         estimate D2E/DX2                !
 ! A86   A(40,42,47)           119.3667         estimate D2E/DX2                !
 ! A87   A(46,42,47)           120.2856         estimate D2E/DX2                !
 ! A88   A(41,44,46)           120.4485         estimate D2E/DX2                !
 ! A89   A(41,44,48)           119.8614         estimate D2E/DX2                !
 ! A90   A(46,44,48)           119.6899         estimate D2E/DX2                !
 ! A91   A(42,46,44)           119.276          estimate D2E/DX2                !
 ! A92   A(42,46,49)           120.1482         estimate D2E/DX2                !
 ! A93   A(44,46,49)           120.5757         estimate D2E/DX2                !
 ! A94   A(12,50,51)           121.2069         estimate D2E/DX2                !
 ! A95   A(12,50,52)           121.0273         estimate D2E/DX2                !
 ! A96   A(51,50,52)           117.765          estimate D2E/DX2                !
 ! A97   A(50,51,53)           121.1479         estimate D2E/DX2                !
 ! A98   A(50,51,54)           120.2523         estimate D2E/DX2                !
 ! A99   A(53,51,54)           118.5934         estimate D2E/DX2                !
 ! A100  A(50,52,55)           121.0776         estimate D2E/DX2                !
 ! A101  A(50,52,56)           119.682          estimate D2E/DX2                !
 ! A102  A(55,52,56)           119.2371         estimate D2E/DX2                !
 ! A103  A(51,53,57)           121.046          estimate D2E/DX2                !
 ! A104  A(51,53,58)           118.8895         estimate D2E/DX2                !
 ! A105  A(57,53,58)           120.0539         estimate D2E/DX2                !
 ! A106  A(52,55,57)           121.1132         estimate D2E/DX2                !
 ! A107  A(52,55,59)           119.1424         estimate D2E/DX2                !
 ! A108  A(57,55,59)           119.7443         estimate D2E/DX2                !
 ! A109  A(53,57,55)           117.8481         estimate D2E/DX2                !
 ! A110  A(53,57,60)           121.0182         estimate D2E/DX2                !
 ! A111  A(55,57,60)           121.1326         estimate D2E/DX2                !
 ! A112  A(57,60,61)           121.0614         estimate D2E/DX2                !
 ! A113  A(57,60,62)           120.705          estimate D2E/DX2                !
 ! A114  A(61,60,62)           118.2336         estimate D2E/DX2                !
 ! A115  A(60,61,63)           121.0456         estimate D2E/DX2                !
 ! A116  A(60,61,64)           119.8665         estimate D2E/DX2                !
 ! A117  A(63,61,64)           119.0783         estimate D2E/DX2                !
 ! A118  A(60,62,65)           120.8126         estimate D2E/DX2                !
 ! A119  A(60,62,66)           120.2498         estimate D2E/DX2                !
 ! A120  A(65,62,66)           118.9301         estimate D2E/DX2                !
 ! A121  A(61,63,67)           120.1403         estimate D2E/DX2                !
 ! A122  A(61,63,68)           119.8101         estimate D2E/DX2                !
 ! A123  A(67,63,68)           120.0484         estimate D2E/DX2                !
 ! A124  A(62,65,67)           120.048          estimate D2E/DX2                !
 ! A125  A(62,65,69)           119.3282         estimate D2E/DX2                !
 ! A126  A(67,65,69)           120.6166         estimate D2E/DX2                !
 ! A127  A(63,67,65)           119.7182         estimate D2E/DX2                !
 ! A128  A(63,67,70)           120.3759         estimate D2E/DX2                !
 ! A129  A(65,67,70)           119.9057         estimate D2E/DX2                !
 ! A130  A(4,71,7)             117.8037         estimate D2E/DX2                !
 ! D1    D(6,1,2,3)             -0.5468         estimate D2E/DX2                !
 ! D2    D(6,1,2,14)           179.235          estimate D2E/DX2                !
 ! D3    D(28,1,2,3)          -178.8611         estimate D2E/DX2                !
 ! D4    D(28,1,2,14)            0.9207         estimate D2E/DX2                !
 ! D5    D(2,1,6,5)              0.3647         estimate D2E/DX2                !
 ! D6    D(2,1,6,29)          -179.8703         estimate D2E/DX2                !
 ! D7    D(28,1,6,5)           178.65           estimate D2E/DX2                !
 ! D8    D(28,1,6,29)           -1.585          estimate D2E/DX2                !
 ! D9    D(1,2,3,4)              0.6168         estimate D2E/DX2                !
 ! D10   D(1,2,3,17)          -179.5179         estimate D2E/DX2                !
 ! D11   D(14,2,3,4)          -179.1644         estimate D2E/DX2                !
 ! D12   D(14,2,3,17)            0.701          estimate D2E/DX2                !
 ! D13   D(2,3,4,5)             -0.5422         estimate D2E/DX2                !
 ! D14   D(2,3,4,71)          -177.7479         estimate D2E/DX2                !
 ! D15   D(17,3,4,5)           179.5873         estimate D2E/DX2                !
 ! D16   D(17,3,4,71)            2.3816         estimate D2E/DX2                !
 ! D17   D(2,3,17,8)          -173.9437         estimate D2E/DX2                !
 ! D18   D(2,3,17,18)           -0.934          estimate D2E/DX2                !
 ! D19   D(4,3,17,8)             5.9196         estimate D2E/DX2                !
 ! D20   D(4,3,17,18)          178.9293         estimate D2E/DX2                !
 ! D21   D(3,4,5,6)              0.39           estimate D2E/DX2                !
 ! D22   D(3,4,5,15)          -178.7342         estimate D2E/DX2                !
 ! D23   D(71,4,5,6)           177.7248         estimate D2E/DX2                !
 ! D24   D(71,4,5,15)           -1.3994         estimate D2E/DX2                !
 ! D25   D(3,4,71,7)             6.3136         estimate D2E/DX2                !
 ! D26   D(5,4,71,7)          -171.0101         estimate D2E/DX2                !
 ! D27   D(4,5,6,1)             -0.2878         estimate D2E/DX2                !
 ! D28   D(4,5,6,29)           179.9453         estimate D2E/DX2                !
 ! D29   D(15,5,6,1)           178.8056         estimate D2E/DX2                !
 ! D30   D(15,5,6,29)           -0.9613         estimate D2E/DX2                !
 ! D31   D(1,6,29,30)          146.2889         estimate D2E/DX2                !
 ! D32   D(1,6,29,31)          -33.2175         estimate D2E/DX2                !
 ! D33   D(5,6,29,30)          -33.9531         estimate D2E/DX2                !
 ! D34   D(5,6,29,31)          146.5405         estimate D2E/DX2                !
 ! D35   D(13,7,8,9)           -33.4213         estimate D2E/DX2                !
 ! D36   D(13,7,8,17)          162.6334         estimate D2E/DX2                !
 ! D37   D(71,7,8,9)          -164.3745         estimate D2E/DX2                !
 ! D38   D(71,7,8,17)           31.6802         estimate D2E/DX2                !
 ! D39   D(8,7,13,12)           34.0348         estimate D2E/DX2                !
 ! D40   D(8,7,13,27)         -161.109          estimate D2E/DX2                !
 ! D41   D(71,7,13,12)         168.1949         estimate D2E/DX2                !
 ! D42   D(71,7,13,27)         -26.949          estimate D2E/DX2                !
 ! D43   D(8,7,71,4)           -22.8679         estimate D2E/DX2                !
 ! D44   D(13,7,71,4)         -158.073          estimate D2E/DX2                !
 ! D45   D(7,8,9,10)          -162.8158         estimate D2E/DX2                !
 ! D46   D(7,8,9,11)            16.5668         estimate D2E/DX2                !
 ! D47   D(17,8,9,10)            0.4821         estimate D2E/DX2                !
 ! D48   D(17,8,9,11)          179.8646         estimate D2E/DX2                !
 ! D49   D(7,8,17,3)           -23.6697         estimate D2E/DX2                !
 ! D50   D(7,8,17,18)          163.323          estimate D2E/DX2                !
 ! D51   D(9,8,17,3)           173.6282         estimate D2E/DX2                !
 ! D52   D(9,8,17,18)            0.6209         estimate D2E/DX2                !
 ! D53   D(8,9,11,12)            0.3265         estimate D2E/DX2                !
 ! D54   D(8,9,11,16)         -178.9659         estimate D2E/DX2                !
 ! D55   D(10,9,11,12)         179.7103         estimate D2E/DX2                !
 ! D56   D(10,9,11,16)           0.4179         estimate D2E/DX2                !
 ! D57   D(9,11,12,13)          -0.4239         estimate D2E/DX2                !
 ! D58   D(9,11,12,50)        -179.8043         estimate D2E/DX2                !
 ! D59   D(16,11,12,13)        178.8567         estimate D2E/DX2                !
 ! D60   D(16,11,12,50)         -0.5236         estimate D2E/DX2                !
 ! D61   D(11,12,13,7)         -16.3864         estimate D2E/DX2                !
 ! D62   D(11,12,13,27)        179.0511         estimate D2E/DX2                !
 ! D63   D(50,12,13,7)         162.9991         estimate D2E/DX2                !
 ! D64   D(50,12,13,27)         -1.5633         estimate D2E/DX2                !
 ! D65   D(11,12,50,51)        147.0381         estimate D2E/DX2                !
 ! D66   D(11,12,50,52)        -33.2998         estimate D2E/DX2                !
 ! D67   D(13,12,50,51)        -32.3239         estimate D2E/DX2                !
 ! D68   D(13,12,50,52)        147.3382         estimate D2E/DX2                !
 ! D69   D(3,17,18,19)         -86.427          estimate D2E/DX2                !
 ! D70   D(3,17,18,20)          93.574          estimate D2E/DX2                !
 ! D71   D(8,17,18,19)          86.5158         estimate D2E/DX2                !
 ! D72   D(8,17,18,20)         -93.4832         estimate D2E/DX2                !
 ! D73   D(17,18,19,21)       -179.9994         estimate D2E/DX2                !
 ! D74   D(17,18,19,73)          0.0073         estimate D2E/DX2                !
 ! D75   D(20,18,19,21)         -0.0004         estimate D2E/DX2                !
 ! D76   D(20,18,19,73)       -179.9937         estimate D2E/DX2                !
 ! D77   D(17,18,20,22)        179.9983         estimate D2E/DX2                !
 ! D78   D(17,18,20,23)          0.0043         estimate D2E/DX2                !
 ! D79   D(19,18,20,22)         -0.0006         estimate D2E/DX2                !
 ! D80   D(19,18,20,23)       -179.9946         estimate D2E/DX2                !
 ! D81   D(18,19,21,24)          0.001          estimate D2E/DX2                !
 ! D82   D(18,19,21,72)       -179.9981         estimate D2E/DX2                !
 ! D83   D(73,19,21,24)        179.9942         estimate D2E/DX2                !
 ! D84   D(73,19,21,72)         -0.0049         estimate D2E/DX2                !
 ! D85   D(18,20,22,24)          0.0011         estimate D2E/DX2                !
 ! D86   D(18,20,22,25)       -179.9975         estimate D2E/DX2                !
 ! D87   D(23,20,22,24)        179.995          estimate D2E/DX2                !
 ! D88   D(23,20,22,25)         -0.0036         estimate D2E/DX2                !
 ! D89   D(19,21,24,22)         -0.0005         estimate D2E/DX2                !
 ! D90   D(19,21,24,26)        179.9989         estimate D2E/DX2                !
 ! D91   D(72,21,24,22)        179.9986         estimate D2E/DX2                !
 ! D92   D(72,21,24,26)         -0.0019         estimate D2E/DX2                !
 ! D93   D(20,22,24,21)         -0.0005         estimate D2E/DX2                !
 ! D94   D(20,22,24,26)       -180.0            estimate D2E/DX2                !
 ! D95   D(25,22,24,21)        179.9981         estimate D2E/DX2                !
 ! D96   D(25,22,24,26)         -0.0014         estimate D2E/DX2                !
 ! D97   D(6,29,30,32)        -179.7704         estimate D2E/DX2                !
 ! D98   D(6,29,30,33)          -0.2441         estimate D2E/DX2                !
 ! D99   D(31,29,30,32)         -0.247          estimate D2E/DX2                !
 ! D100  D(31,29,30,33)        179.2793         estimate D2E/DX2                !
 ! D101  D(6,29,31,34)         179.8005         estimate D2E/DX2                !
 ! D102  D(6,29,31,35)          -1.0632         estimate D2E/DX2                !
 ! D103  D(30,29,31,34)          0.2778         estimate D2E/DX2                !
 ! D104  D(30,29,31,35)        179.414          estimate D2E/DX2                !
 ! D105  D(29,30,32,36)          0.3077         estimate D2E/DX2                !
 ! D106  D(29,30,32,37)       -179.6156         estimate D2E/DX2                !
 ! D107  D(33,30,32,36)       -179.2196         estimate D2E/DX2                !
 ! D108  D(33,30,32,37)          0.8571         estimate D2E/DX2                !
 ! D109  D(29,31,34,36)         -0.3689         estimate D2E/DX2                !
 ! D110  D(29,31,34,38)       -179.2914         estimate D2E/DX2                !
 ! D111  D(35,31,34,36)       -179.5168         estimate D2E/DX2                !
 ! D112  D(35,31,34,38)          1.5607         estimate D2E/DX2                !
 ! D113  D(30,32,36,34)         -0.3769         estimate D2E/DX2                !
 ! D114  D(30,32,36,39)       -179.9423         estimate D2E/DX2                !
 ! D115  D(37,32,36,34)        179.5459         estimate D2E/DX2                !
 ! D116  D(37,32,36,39)         -0.0194         estimate D2E/DX2                !
 ! D117  D(31,34,36,32)          0.4067         estimate D2E/DX2                !
 ! D118  D(31,34,36,39)        179.973          estimate D2E/DX2                !
 ! D119  D(38,34,36,32)        179.3191         estimate D2E/DX2                !
 ! D120  D(38,34,36,39)         -1.1145         estimate D2E/DX2                !
 ! D121  D(32,36,39,40)        -36.7414         estimate D2E/DX2                !
 ! D122  D(32,36,39,41)        143.2713         estimate D2E/DX2                !
 ! D123  D(34,36,39,40)        143.7074         estimate D2E/DX2                !
 ! D124  D(34,36,39,41)        -36.2799         estimate D2E/DX2                !
 ! D125  D(36,39,40,42)       -179.9504         estimate D2E/DX2                !
 ! D126  D(36,39,40,43)         -0.9266         estimate D2E/DX2                !
 ! D127  D(41,39,40,42)          0.0372         estimate D2E/DX2                !
 ! D128  D(41,39,40,43)        179.0611         estimate D2E/DX2                !
 ! D129  D(36,39,41,44)       -179.7808         estimate D2E/DX2                !
 ! D130  D(36,39,41,45)         -0.9134         estimate D2E/DX2                !
 ! D131  D(40,39,41,44)          0.2316         estimate D2E/DX2                !
 ! D132  D(40,39,41,45)        179.099          estimate D2E/DX2                !
 ! D133  D(39,40,42,46)         -0.0495         estimate D2E/DX2                !
 ! D134  D(39,40,42,47)        179.5561         estimate D2E/DX2                !
 ! D135  D(43,40,42,46)       -179.0713         estimate D2E/DX2                !
 ! D136  D(43,40,42,47)          0.5343         estimate D2E/DX2                !
 ! D137  D(39,41,44,46)         -0.4891         estimate D2E/DX2                !
 ! D138  D(39,41,44,48)        179.6753         estimate D2E/DX2                !
 ! D139  D(45,41,44,46)       -179.3493         estimate D2E/DX2                !
 ! D140  D(45,41,44,48)          0.8151         estimate D2E/DX2                !
 ! D141  D(40,42,46,44)         -0.2017         estimate D2E/DX2                !
 ! D142  D(40,42,46,49)        179.9247         estimate D2E/DX2                !
 ! D143  D(47,42,46,44)       -179.8037         estimate D2E/DX2                !
 ! D144  D(47,42,46,49)          0.3228         estimate D2E/DX2                !
 ! D145  D(41,44,46,42)          0.4699         estimate D2E/DX2                !
 ! D146  D(41,44,46,49)       -179.6571         estimate D2E/DX2                !
 ! D147  D(48,44,46,42)       -179.6942         estimate D2E/DX2                !
 ! D148  D(48,44,46,49)          0.1788         estimate D2E/DX2                !
 ! D149  D(12,50,51,53)       -179.87           estimate D2E/DX2                !
 ! D150  D(12,50,51,54)         -0.8033         estimate D2E/DX2                !
 ! D151  D(52,50,51,53)          0.4573         estimate D2E/DX2                !
 ! D152  D(52,50,51,54)        179.524          estimate D2E/DX2                !
 ! D153  D(12,50,52,55)        179.9018         estimate D2E/DX2                !
 ! D154  D(12,50,52,56)         -0.7675         estimate D2E/DX2                !
 ! D155  D(51,50,52,55)         -0.4248         estimate D2E/DX2                !
 ! D156  D(51,50,52,56)        178.9058         estimate D2E/DX2                !
 ! D157  D(50,51,53,57)         -0.4237         estimate D2E/DX2                !
 ! D158  D(50,51,53,58)       -179.2368         estimate D2E/DX2                !
 ! D159  D(54,51,53,57)       -179.5055         estimate D2E/DX2                !
 ! D160  D(54,51,53,58)          1.6813         estimate D2E/DX2                !
 ! D161  D(50,52,55,57)          0.3584         estimate D2E/DX2                !
 ! D162  D(50,52,55,59)       -179.5698         estimate D2E/DX2                !
 ! D163  D(56,52,55,57)       -178.9751         estimate D2E/DX2                !
 ! D164  D(56,52,55,59)          1.0966         estimate D2E/DX2                !
 ! D165  D(51,53,57,55)          0.332          estimate D2E/DX2                !
 ! D166  D(51,53,57,60)        179.9502         estimate D2E/DX2                !
 ! D167  D(58,53,57,55)        179.1314         estimate D2E/DX2                !
 ! D168  D(58,53,57,60)         -1.2504         estimate D2E/DX2                !
 ! D169  D(52,55,57,53)         -0.3001         estimate D2E/DX2                !
 ! D170  D(52,55,57,60)       -179.9179         estimate D2E/DX2                !
 ! D171  D(59,55,57,53)        179.6277         estimate D2E/DX2                !
 ! D172  D(59,55,57,60)          0.01           estimate D2E/DX2                !
 ! D173  D(53,57,60,61)        -35.0097         estimate D2E/DX2                !
 ! D174  D(53,57,60,62)        144.9777         estimate D2E/DX2                !
 ! D175  D(55,57,60,61)        144.596          estimate D2E/DX2                !
 ! D176  D(55,57,60,62)        -35.4167         estimate D2E/DX2                !
 ! D177  D(57,60,61,63)       -179.9987         estimate D2E/DX2                !
 ! D178  D(57,60,61,64)         -1.1405         estimate D2E/DX2                !
 ! D179  D(62,60,61,63)          0.0136         estimate D2E/DX2                !
 ! D180  D(62,60,61,64)        178.8719         estimate D2E/DX2                !
 ! D181  D(57,60,62,65)        179.7829         estimate D2E/DX2                !
 ! D182  D(57,60,62,66)         -1.2283         estimate D2E/DX2                !
 ! D183  D(61,60,62,65)         -0.2294         estimate D2E/DX2                !
 ! D184  D(61,60,62,66)        178.7594         estimate D2E/DX2                !
 ! D185  D(60,61,63,67)         -0.0319         estimate D2E/DX2                !
 ! D186  D(60,61,63,68)        179.5804         estimate D2E/DX2                !
 ! D187  D(64,61,63,67)       -178.899          estimate D2E/DX2                !
 ! D188  D(64,61,63,68)          0.7133         estimate D2E/DX2                !
 ! D189  D(60,62,65,67)          0.4651         estimate D2E/DX2                !
 ! D190  D(60,62,65,69)        179.496          estimate D2E/DX2                !
 ! D191  D(66,62,65,67)       -178.5369         estimate D2E/DX2                !
 ! D192  D(66,62,65,69)          0.4941         estimate D2E/DX2                !
 ! D193  D(61,63,67,65)          0.2642         estimate D2E/DX2                !
 ! D194  D(61,63,67,70)       -179.8871         estimate D2E/DX2                !
 ! D195  D(68,63,67,65)       -179.3471         estimate D2E/DX2                !
 ! D196  D(68,63,67,70)          0.5016         estimate D2E/DX2                !
 ! D197  D(62,65,67,63)         -0.4779         estimate D2E/DX2                !
 ! D198  D(62,65,67,70)        179.6726         estimate D2E/DX2                !
 ! D199  D(69,65,67,63)       -179.4963         estimate D2E/DX2                !
 ! D200  D(69,65,67,70)          0.6543         estimate D2E/DX2                !
 --------------------------------------------------------------------------------
 Trust Radius=3.00D-01 FncErr=1.00D-07 GrdErr=1.00D-06
 Number of steps in this run=    420 maximum allowed number of steps=    438.
 GradGradGradGradGradGradGradGradGradGradGradGradGradGradGradGradGradGrad

 Leave Link  103 at Tue Nov 23 21:22:56 2021, MaxMem=  5242880000 cpu:         0.3
 (Enter /opt/nce/packages/global/g09/l202.exe)
 Symmetry turned off by external request.
 Stoichiometry    C42H29NO
 Framework group  C1[X(C42H29NO)]
 Deg. of freedom   213
 Full point group                 C1      NOp   1
                          Input orientation:                          
 ---------------------------------------------------------------------
 Center     Atomic      Atomic             Coordinates (Angstroms)
 Number     Number       Type             X           Y           Z
 ---------------------------------------------------------------------
      1          6           0       -3.613493    1.943034   -0.037884
      2          6           0       -2.441862    2.683647   -0.016658
      3          6           0       -1.202258    2.061132    0.085043
      4          6           0       -1.180065    0.665032    0.151551
      5          6           0       -2.340109   -0.069399    0.129020
      6          6           0       -3.588703    0.555684    0.030257
      7          6           0        1.226800    0.732015    0.528121
      8          6           0        1.202254    2.061131    0.094744
      9          6           0        2.441859    2.683645   -0.003360
     10          1           0        2.495101    3.762446   -0.055992
     11          6           0        3.613489    1.943032   -0.022084
     12          6           0        3.588700    0.555682    0.049642
     13          6           0        2.340105   -0.069400    0.150691
     14          1           0       -2.495104    3.762449   -0.083921
     15          1           0       -2.255783   -1.147626    0.204934
     16          1           0        4.557954    2.469238   -0.082509
     17          7           0       -0.000001    2.765109    0.119845
     18          6           0       -0.000002    4.191413    0.030025
     19          6           0        0.003885    4.808993   -1.212236
     20          6           0       -0.003890    4.948702    1.192453
     21          6           0        0.003868    6.193942   -1.290555
     22          6           0       -0.003875    6.333650    1.111108
     23          1           0       -0.006798    4.444018    2.151847
     24          6           0       -0.000004    6.956287   -0.129640
     25          1           0       -0.006872    6.922767    2.019363
     26          1           0       -0.000004    8.038573   -0.189509
     27          1           0        2.255778   -1.147625    0.194664
     28          1           0       -4.557961    2.469241   -0.137312
     29          6           0       -4.833039   -0.241218    0.005353
     30          6           0       -4.872470   -1.498236   -0.601238
     31          6           0       -6.009749    0.238795    0.576677
     32          6           0       -6.037532   -2.241112   -0.628421
     33          1           0       -3.975698   -1.897097   -1.066553
     34          6           0       -7.174434   -0.504495    0.549903
     35          1           0       -6.020859    1.210758    1.068658
     36          6           0       -7.213396   -1.760066   -0.058075
     37          1           0       -6.030491   -3.213798   -1.101400
     38          1           0       -8.078088   -0.088171    0.998281
     39          6           0       -8.461020   -2.555470   -0.085665
     40          6           0       -8.779547   -3.335830   -1.197508
     41          6           0       -9.347968   -2.543870    0.998429
     42          6           0       -9.946797   -4.079823   -1.225541
     43          1           0       -8.114882   -3.346088   -2.050964
     44          6           0      -10.505048   -3.288229    0.971219
     45          1           0       -9.104870   -1.951404    1.877897
     46          6           0      -10.820159   -4.059793   -0.140970
     47          1           0      -10.177319   -4.671856   -2.100374
     48          1           0      -11.176849   -3.271641    1.820226
     49          1           0      -11.732618   -4.641850   -0.166815
     50          6           0        4.833034   -0.241221    0.034595
     51          6           0        4.932399   -1.438306    0.741068
     52          6           0        5.949811    0.178858   -0.696567
     53          6           0        6.097461   -2.181182    0.728295
     54          1           0        4.095573   -1.797222    1.326255
     55          6           0        7.114495   -0.564433   -0.709752
     56          1           0        5.900975    1.090875   -1.268455
     57          6           0        7.213390   -1.760070   -0.001890
     58          1           0        6.130368   -3.113919    1.281179
     59          1           0        7.958200   -0.208059   -1.278005
     60          6           0        8.461011   -2.555476   -0.014256
     61          6           0        8.879438   -3.255929    1.117558
     62          6           0        9.248055   -2.623787   -1.158281
     63          6           0       10.046685   -3.999925    1.105632
     64          1           0        8.294694   -3.206258    2.030961
     65          6           0       10.425131   -3.368150   -1.171030
     66          1           0        8.945033   -2.111245   -2.057725
     67          6           0       10.820143   -4.059807   -0.038870
     68          1           0       10.357131   -4.532031    2.000442
     69          1           0       11.017009   -3.411494   -2.079984
     70          1           0       11.732600   -4.641868   -0.052995
     71          8           0       -0.000001   -0.035798    0.299697
     72          1           0        0.006865    6.683286   -2.258679
     73          1           0        0.006794    4.204530   -2.111761
 ---------------------------------------------------------------------
 Rotational constants (GHZ):      0.0937854      0.0234709      0.0192012
 Leave Link  202 at Tue Nov 23 21:22:56 2021, MaxMem=  5242880000 cpu:         0.1
 (Enter /opt/nce/packages/global/g09/l301.exe)
 Standard basis: def2TZVP (5D, 7F)
 Ernie: Thresh=  0.10000D-02 Tol=  0.10000D-05 Strict=F.
  1538 basis functions,  2476 primitive gaussians,  1758 cartesian basis functions
   148 alpha electrons      148 beta electrons
       nuclear repulsion energy      4215.8575949475 Hartrees.
 IExCor=20419 DFT=T Ex+Corr=CAM-B3LYP ExCW=0 ScaHFX=  1.000000
 ScaDFX=  1.000000  1.000000  1.000000  0.810000 ScalE2=  1.000000  1.000000
 IRadAn=      5 IRanWt=     -1 IRanGd=            0 ICorTp=0 IEmpDi=141
  HFx wShort=  0.000000 wLong=  0.330000 cFull=  0.190000 cShort=  0.000000 cLong=  0.460000
  DFx wShort=  0.000000 wLong=  0.330000 cFull=  0.190000 cShort=  0.000000 cLong=  0.460000
 NAtoms=   73 NActive=   73 NUniq=   73 SFac= 1.00D+00 NAtFMM=   60 NAOKFM=T Big=T
 Integral buffers will be    131072 words long.
 Raffenetti 2 integral format.
 Two-electron integral symmetry is turned off.
 R6Disp:  Grimme-D3(BJ) Dispersion energy=       -0.0907363217 Hartrees.
 Nuclear repulsion after empirical dispersion term =     4215.7668586258 Hartrees.
 ------------------------------------------------------------------------------
 Polarizable Continuum Model (PCM)
 =================================
 Model                : PCM (using non-symmetric T matrix).
 Atomic radii         : SMD-Coulomb.
 Polarization charges : Total charges.
 Charge compensation  : None.
 Solution method      : On-the-fly selection.
 Cavity type          : VdW (van der Waals Surface) (Alpha=1.000).
 Cavity algorithm     : GePol (No added spheres)
                        Default sphere list used, NSphG=   73.
                        Lebedev-Laikov grids with approx.  5.0 points / Ang**2.
                        Smoothing algorithm: York/Karplus (Gamma=1.0000).
                        Polarization charges: spherical gaussians, with
                                              point-specific exponents (IZeta= 3).
                        Self-potential: point-specific (ISelfS= 7).
                        Self-field    : sphere-specific E.n sum rule (ISelfD= 2).
 1st derivatives      : Analytical E(r).r(x)/FMM algorithm (CHGder, D1EAlg=3).
                        Cavity 1st derivative terms included.
 Solvent              : n,n-DiMethylAcetamide, Eps=  37.781000 Eps(inf)=   2.067844
 ------------------------------------------------------------------------------
 GePol: Number of generator spheres                  =      73
 GePol: Total number of spheres                      =      73
 GePol: Number of exposed spheres                    =      73 (100.00%)
 GePol: Number of points                             =    5485
 GePol: Average weight of points                     =       0.11
 GePol: Minimum weight of points                     =   0.74D-10
 GePol: Maximum weight of points                     =    0.17992
 GePol: Number of points with low weight             =     306
 GePol: Fraction of low-weight points (<1% of avg)   =       5.58%
 GePol: Cavity surface area                          =    597.791 Ang**2
 GePol: Cavity volume                                =    592.051 Ang**3
 ------------------------------------------------------------------------------
 Atomic radii for non-electrostatic terms: SMD-CDS.
 ------------------------------------------------------------------------------
 PCM non-electrostatic energy =        -0.0113251479 Hartrees.
 Nuclear repulsion after PCM non-electrostatic terms =     4215.7555334778 Hartrees.
 Leave Link  301 at Tue Nov 23 21:22:56 2021, MaxMem=  5242880000 cpu:         1.9
 (Enter /opt/nce/packages/global/g09/l302.exe)
 NPDir=0 NMtPBC=     1 NCelOv=     1 NCel=       1 NClECP=     1 NCelD=      1
         NCelK=      1 NCelE2=     1 NClLst=     1 CellRange=     0.0.
 One-electron integrals computed using PRISM.
   1 Symmetry operations used in ECPInt.
 ECPInt:  NShTT=  180300 NPrTT=  557040 LenC2=  104964 LenP2D=  214793.
 LDataN:  DoStor=T MaxTD1= 6 Len=  172
 NBasis=  1538 RedAO= T EigKep=  5.03D-06  NBF=  1538
 NBsUse=  1538 1.00D-06 EigRej= -1.00D+00 NBFU=  1538
 Precomputing XC quadrature grid using
 IXCGrd= 4 IRadAn=           5 IRanWt=          -1 IRanGd=           0 AccXCQ= 0.00D+00.
 Generated NRdTot=       0 NPtTot=           0 NUsed=           0 NTot=          32
 NSgBfM=  1416  1419  1422  1422  1428 MxSgAt=    73 MxSgA2=    73.
 Leave Link  302 at Tue Nov 23 21:23:02 2021, MaxMem=  5242880000 cpu:        64.9
 (Enter /opt/nce/packages/global/g09/l303.exe)
 DipDrv:  MaxL=1.
 Leave Link  303 at Tue Nov 23 21:23:02 2021, MaxMem=  5242880000 cpu:         5.1
 (Enter /opt/nce/packages/global/g09/l401.exe)
 ExpMin= 9.52D-02 ExpMax= 2.70D+04 ExpMxC= 9.22D+02 IAcc=3 IRadAn=         5 AccDes= 0.00D+00
 Harris functional with IExCor=20419 and IRadAn=       5 diagonalized for initial guess.
 HarFok:  IExCor=20419 AccDes= 0.00D+00 IRadAn=         5 IDoV= 1 UseB2=F ITyADJ=14
 ICtDFT=  3500011 ScaDFX=  1.000000  1.000000  1.000000  1.000000
 FoFCou: FMM=F IPFlag=           0 FMFlag=      100000 FMFlg1=        2001
         NFxFlg=           0 DoJE=T BraDBF=F KetDBF=T FulRan=T
         wScrn=  0.000000 ICntrl=     500 IOpCl=  0 I1Cent=   200000004 NGrid=           0
         NMat0=    1 NMatS0=      1 NMatT0=    0 NMatD0=    1 NMtDS0=    0 NMtDT0=    0
 Symmetry not used in FoFCou.
 Harris En= -1677.65728488818    
 JPrj=0 DoOrth=F DoCkMO=F.
 Leave Link  401 at Tue Nov 23 21:23:18 2021, MaxMem=  5242880000 cpu:       187.6
 (Enter /opt/nce/packages/global/g09/l502.exe)
 Closed shell SCF:
 Using DIIS extrapolation, IDIIS=  1040.
 Two-electron integral symmetry not used.
 IVT=     9322032 IEndB=     9322032 NGot=  5242880000 MDV=  5236666931
 LenX=  5236666931 LenY=  5233574609
 Requested convergence on RMS density matrix=1.00D-08 within 128 cycles.
 Requested convergence on MAX density matrix=1.00D-06.
 Requested convergence on             energy=1.00D-06.
 No special actions if energy rises.
 Fock matrices will be formed incrementally for  20 cycles.

 Cycle   1  Pass 1  IDiag  1:
 FoFJK:  IHMeth= 1 ICntrl=       0 DoSepK=T KAlg= 0 I1Cent=   0 FoldK=F
 IRaf=         1 NMat=   1 IRICut=       1 DoRegI=T DoRafI=F ISym2E= 0.
 FoFCou: FMM=T IPFlag=           0 FMFlag=      100000 FMFlg1=        2001
         NFxFlg=           0 DoJE=T BraDBF=F KetDBF=F FulRan=T
         wScrn=  0.000000 ICntrl=     500 IOpCl=  0 I1Cent=           0 NGrid=           0
         NMat0=    1 NMatS0=      1 NMatT0=    0 NMatD0=    1 NMtDS0=    0 NMtDT0=    0
 Symmetry not used in FoFCou.
 FMM levels:  10  Number of levels for PrismC:   9
 Inv3:  Mode=1 IEnd=    90255675.
 Iteration    1 A*A^-1 deviation from unit magnitude is 7.55D-15 for   5480.
 Iteration    1 A*A^-1 deviation from orthogonality  is 3.15D-15 for   2784   1044.
 Iteration    1 A^-1*A deviation from unit magnitude is 7.11D-15 for   5480.
 Iteration    1 A^-1*A deviation from orthogonality  is 1.59D-10 for   1432   1431.
 Iteration    2 A*A^-1 deviation from unit magnitude is 3.33D-15 for   2568.
 Iteration    2 A*A^-1 deviation from orthogonality  is 3.94D-15 for   3441    119.
 Iteration    2 A^-1*A deviation from unit magnitude is 1.11D-15 for    384.
 Iteration    2 A^-1*A deviation from orthogonality  is 5.63D-16 for   5461    503.
 E= -1747.14349498453    
 DIIS: error= 3.15D-02 at cycle   1 NSaved=   1.
 NSaved= 1 IEnMin= 1 EnMin= -1747.14349498453     IErMin= 1 ErrMin= 3.15D-02
 ErrMax= 3.15D-02  0.00D+00 EMaxC= 1.00D-01 BMatC= 3.07D+00 BMatP= 3.07D+00
 IDIUse=3 WtCom= 6.85D-01 WtEn= 3.15D-01
 Coeff-Com:  0.100D+01
 Coeff-En:   0.100D+01
 Coeff:      0.100D+01
 Gap=     0.285 Goal=   None    Shift=    0.000
 GapD=    0.285 DampG=1.000 DampE=0.500 DampFc=0.5000 IDamp=-1.
 Damping current iteration by 5.00D-01
 RMSDP=2.98D-03 MaxDP=9.42D-01              OVMax= 2.13D-01

 Cycle   2  Pass 1  IDiag  1:
 RMSU=  1.10D-03    CP:  8.14D-01
 E= -1747.38044493514     Delta-E=       -0.236949950612 Rises=F Damp=T
 DIIS: error= 1.45D-02 at cycle   2 NSaved=   2.
 NSaved= 2 IEnMin= 2 EnMin= -1747.38044493514     IErMin= 2 ErrMin= 1.45D-02
 ErrMax= 1.45D-02  0.00D+00 EMaxC= 1.00D-01 BMatC= 6.53D-01 BMatP= 3.07D+00
 IDIUse=3 WtCom= 8.55D-01 WtEn= 1.45D-01
 Coeff-Com: -0.550D+00 0.155D+01
 Coeff-En:   0.000D+00 0.100D+01
 Coeff:     -0.470D+00 0.147D+01
 Gap=     0.301 Goal=   None    Shift=    0.000
 RMSDP=1.88D-03 MaxDP=6.08D-01 DE=-2.37D-01 OVMax= 3.49D-01

 Cycle   3  Pass 1  IDiag  1:
 RMSU=  1.06D-03    CP:  9.91D-01 -1.13D-01
 E= -1747.35707412088     Delta-E=        0.023370814260 Rises=F Damp=F
 DIIS: error= 1.27D-02 at cycle   3 NSaved=   3.
 NSaved= 3 IEnMin= 2 EnMin= -1747.38044493514     IErMin= 3 ErrMin= 1.27D-02
 ErrMax= 1.27D-02  0.00D+00 EMaxC= 1.00D-01 BMatC= 3.64D-01 BMatP= 6.53D-01
 IDIUse=3 WtCom= 8.73D-01 WtEn= 1.27D-01
 Coeff-Com: -0.416D+00 0.899D+00 0.517D+00
 Coeff-En:   0.000D+00 0.543D+00 0.457D+00
 Coeff:     -0.363D+00 0.854D+00 0.510D+00
 Gap=     0.225 Goal=   None    Shift=    0.000
 RMSDP=2.48D-03 MaxDP=8.71D-01 DE= 2.34D-02 OVMax= 1.97D-01

 Cycle   4  Pass 1  IDiag  1:
 RMSU=  3.07D-04    CP:  7.07D-01  1.51D+00  3.28D-01
 E= -1747.67263855037     Delta-E=       -0.315564429485 Rises=F Damp=F
 DIIS: error= 1.37D-03 at cycle   4 NSaved=   4.
 NSaved= 4 IEnMin= 4 EnMin= -1747.67263855037     IErMin= 4 ErrMin= 1.37D-03
 ErrMax= 1.37D-03  0.00D+00 EMaxC= 1.00D-01 BMatC= 7.34D-03 BMatP= 3.64D-01
 IDIUse=3 WtCom= 9.86D-01 WtEn= 1.37D-02
 Coeff-Com: -0.140D+00 0.303D+00 0.239D+00 0.597D+00
 Coeff-En:   0.000D+00 0.000D+00 0.000D+00 0.100D+01
 Coeff:     -0.138D+00 0.299D+00 0.236D+00 0.602D+00
 Gap=     0.210 Goal=   None    Shift=    0.000
 RMSDP=1.40D-04 MaxDP=3.97D-02 DE=-3.16D-01 OVMax= 1.22D-02

 Cycle   5  Pass 1  IDiag  1:
 RMSU=  5.13D-05    CP:  7.21D-01  1.43D+00  3.79D-01  1.02D+00
 E= -1747.67856459763     Delta-E=       -0.005926047268 Rises=F Damp=F
 DIIS: error= 3.38D-04 at cycle   5 NSaved=   5.
 NSaved= 5 IEnMin= 5 EnMin= -1747.67856459763     IErMin= 5 ErrMin= 3.38D-04
 ErrMax= 3.38D-04  0.00D+00 EMaxC= 1.00D-01 BMatC= 2.50D-04 BMatP= 7.34D-03
 IDIUse=3 WtCom= 9.97D-01 WtEn= 3.38D-03
 Coeff-Com:  0.249D-01-0.531D-01-0.510D-02 0.142D+00 0.891D+00
 Coeff-En:   0.000D+00 0.000D+00 0.000D+00 0.000D+00 0.100D+01
 Coeff:      0.249D-01-0.530D-01-0.508D-02 0.142D+00 0.891D+00
 Gap=     0.213 Goal=   None    Shift=    0.000
 RMSDP=3.83D-05 MaxDP=8.40D-03 DE=-5.93D-03 OVMax= 9.01D-03

 Cycle   6  Pass 1  IDiag  1:
 RMSU=  2.43D-05    CP:  7.18D-01  1.45D+00  3.85D-01  1.07D+00  1.20D+00
 E= -1747.67891815848     Delta-E=       -0.000353560846 Rises=F Damp=F
 DIIS: error= 1.13D-04 at cycle   6 NSaved=   6.
 NSaved= 6 IEnMin= 6 EnMin= -1747.67891815848     IErMin= 6 ErrMin= 1.13D-04
 ErrMax= 1.13D-04  0.00D+00 EMaxC= 1.00D-01 BMatC= 5.65D-05 BMatP= 2.50D-04
 IDIUse=3 WtCom= 9.99D-01 WtEn= 1.13D-03
 Coeff-Com:  0.222D-01-0.480D-01-0.209D-01 0.127D-01 0.397D+00 0.636D+00
 Coeff-En:   0.000D+00 0.000D+00 0.000D+00 0.000D+00 0.000D+00 0.100D+01
 Coeff:      0.222D-01-0.480D-01-0.208D-01 0.127D-01 0.397D+00 0.637D+00
 Gap=     0.213 Goal=   None    Shift=    0.000
 RMSDP=1.41D-05 MaxDP=2.58D-03 DE=-3.54D-04 OVMax= 4.96D-03

 Cycle   7  Pass 1  IDiag  1:
 RMSU=  9.02D-06    CP:  7.19D-01  1.44D+00  3.90D-01  1.08D+00  1.30D+00
                    CP:  1.13D+00
 E= -1747.67899390870     Delta-E=       -0.000075750223 Rises=F Damp=F
 DIIS: error= 6.34D-05 at cycle   7 NSaved=   7.
 NSaved= 7 IEnMin= 7 EnMin= -1747.67899390870     IErMin= 7 ErrMin= 6.34D-05
 ErrMax= 6.34D-05  0.00D+00 EMaxC= 1.00D-01 BMatC= 5.36D-06 BMatP= 5.65D-05
 IDIUse=1 WtCom= 1.00D+00 WtEn= 0.00D+00
 Coeff-Com:  0.113D-02-0.249D-02-0.253D-02-0.116D-01-0.406D-01 0.173D+00
 Coeff-Com:  0.883D+00
 Coeff:      0.113D-02-0.249D-02-0.253D-02-0.116D-01-0.406D-01 0.173D+00
 Coeff:      0.883D+00
 Gap=     0.213 Goal=   None    Shift=    0.000
 RMSDP=7.28D-06 MaxDP=7.86D-04 DE=-7.58D-05 OVMax= 3.13D-03

 Cycle   8  Pass 1  IDiag  1:
 RMSU=  4.50D-06    CP:  7.19D-01  1.44D+00  3.90D-01  1.08D+00  1.33D+00
                    CP:  1.30D+00  1.30D+00
 E= -1747.67900841621     Delta-E=       -0.000014507511 Rises=F Damp=F
 DIIS: error= 3.97D-05 at cycle   8 NSaved=   8.
 NSaved= 8 IEnMin= 8 EnMin= -1747.67900841621     IErMin= 8 ErrMin= 3.97D-05
 ErrMax= 3.97D-05  0.00D+00 EMaxC= 1.00D-01 BMatC= 1.78D-06 BMatP= 5.36D-06
 IDIUse=1 WtCom= 1.00D+00 WtEn= 0.00D+00
 Coeff-Com: -0.247D-02 0.536D-02 0.164D-02-0.923D-02-0.893D-01-0.112D-01
 Coeff-Com:  0.445D+00 0.660D+00
 Coeff:     -0.247D-02 0.536D-02 0.164D-02-0.923D-02-0.893D-01-0.112D-01
 Coeff:      0.445D+00 0.660D+00
 Gap=     0.213 Goal=   None    Shift=    0.000
 RMSDP=5.97D-06 MaxDP=1.64D-03 DE=-1.45D-05 OVMax= 1.48D-03

 Cycle   9  Pass 1  IDiag  1:
 RMSU=  1.65D-06    CP:  7.19D-01  1.44D+00  3.92D-01  1.08D+00  1.35D+00
                    CP:  1.36D+00  1.55D+00  1.34D+00
 E= -1747.67901216495     Delta-E=       -0.000003748738 Rises=F Damp=F
 DIIS: error= 1.62D-05 at cycle   9 NSaved=   9.
 NSaved= 9 IEnMin= 9 EnMin= -1747.67901216495     IErMin= 9 ErrMin= 1.62D-05
 ErrMax= 1.62D-05  0.00D+00 EMaxC= 1.00D-01 BMatC= 2.04D-07 BMatP= 1.78D-06
 IDIUse=1 WtCom= 1.00D+00 WtEn= 0.00D+00
 Coeff-Com: -0.896D-03 0.195D-02 0.115D-02-0.116D-02-0.196D-01-0.392D-01
 Coeff-Com: -0.617D-01 0.150D+00 0.970D+00
 Coeff:     -0.896D-03 0.195D-02 0.115D-02-0.116D-02-0.196D-01-0.392D-01
 Coeff:     -0.617D-01 0.150D+00 0.970D+00
 Gap=     0.213 Goal=   None    Shift=    0.000
 RMSDP=3.31D-06 MaxDP=7.86D-04 DE=-3.75D-06 OVMax= 9.04D-04

 Cycle  10  Pass 1  IDiag  1:
 RMSU=  5.59D-07    CP:  7.19D-01  1.44D+00  3.92D-01  1.08D+00  1.36D+00
                    CP:  1.40D+00  1.69D+00  1.66D+00  1.42D+00
 E= -1747.67901301525     Delta-E=       -0.000000850300 Rises=F Damp=F
 DIIS: error= 5.44D-06 at cycle  10 NSaved=  10.
 NSaved=10 IEnMin=10 EnMin= -1747.67901301525     IErMin=10 ErrMin= 5.44D-06
 ErrMax= 5.44D-06  0.00D+00 EMaxC= 1.00D-01 BMatC= 3.31D-08 BMatP= 2.04D-07
 IDIUse=1 WtCom= 1.00D+00 WtEn= 0.00D+00
 Coeff-Com:  0.173D-04-0.412D-04 0.221D-03 0.920D-03 0.560D-02-0.120D-01
 Coeff-Com: -0.835D-01-0.472D-01 0.362D+00 0.774D+00
 Coeff:      0.173D-04-0.412D-04 0.221D-03 0.920D-03 0.560D-02-0.120D-01
 Coeff:     -0.835D-01-0.472D-01 0.362D+00 0.774D+00
 Gap=     0.213 Goal=   None    Shift=    0.000
 RMSDP=9.45D-07 MaxDP=2.30D-04 DE=-8.50D-07 OVMax= 2.30D-04

 Cycle  11  Pass 1  IDiag  1:
 RMSU=  2.10D-07    CP:  7.20D-01  1.44D+00  3.93D-01  1.08D+00  1.36D+00
                    CP:  1.40D+00  1.73D+00  1.75D+00  1.58D+00  1.23D+00
 E= -1747.67901310527     Delta-E=       -0.000000090021 Rises=F Damp=F
 DIIS: error= 1.22D-06 at cycle  11 NSaved=  11.
 NSaved=11 IEnMin=11 EnMin= -1747.67901310527     IErMin=11 ErrMin= 1.22D-06
 ErrMax= 1.22D-06  0.00D+00 EMaxC= 1.00D-01 BMatC= 4.19D-09 BMatP= 3.31D-08
 IDIUse=1 WtCom= 1.00D+00 WtEn= 0.00D+00
 Coeff-Com:  0.131D-03-0.286D-03-0.113D-03 0.626D-03 0.481D-02 0.299D-02
 Coeff-Com: -0.156D-01-0.353D-01-0.411D-01 0.207D+00 0.877D+00
 Coeff:      0.131D-03-0.286D-03-0.113D-03 0.626D-03 0.481D-02 0.299D-02
 Coeff:     -0.156D-01-0.353D-01-0.411D-01 0.207D+00 0.877D+00
 Gap=     0.213 Goal=   None    Shift=    0.000
 RMSDP=2.15D-07 MaxDP=1.98D-05 DE=-9.00D-08 OVMax= 7.99D-05

 Cycle  12  Pass 1  IDiag  1:
 RMSU=  8.08D-08    CP:  7.20D-01  1.44D+00  3.93D-01  1.08D+00  1.36D+00
                    CP:  1.40D+00  1.73D+00  1.77D+00  1.63D+00  1.41D+00
                    CP:  1.34D+00
 E= -1747.67901311707     Delta-E=       -0.000000011800 Rises=F Damp=F
 DIIS: error= 7.05D-07 at cycle  12 NSaved=  12.
 NSaved=12 IEnMin=12 EnMin= -1747.67901311707     IErMin=12 ErrMin= 7.05D-07
 ErrMax= 7.05D-07  0.00D+00 EMaxC= 1.00D-01 BMatC= 8.44D-10 BMatP= 4.19D-09
 IDIUse=1 WtCom= 1.00D+00 WtEn= 0.00D+00
 Coeff-Com:  0.554D-04-0.119D-03-0.890D-04 0.163D-03 0.126D-02 0.281D-02
 Coeff-Com:  0.427D-02-0.730D-02-0.607D-01-0.348D-01 0.328D+00 0.767D+00
 Coeff:      0.554D-04-0.119D-03-0.890D-04 0.163D-03 0.126D-02 0.281D-02
 Coeff:      0.427D-02-0.730D-02-0.607D-01-0.348D-01 0.328D+00 0.767D+00
 Gap=     0.213 Goal=   None    Shift=    0.000
 RMSDP=7.47D-08 MaxDP=6.58D-06 DE=-1.18D-08 OVMax= 2.50D-05

 Cycle  13  Pass 1  IDiag  1:
 RMSU=  4.24D-08    CP:  7.20D-01  1.44D+00  3.93D-01  1.08D+00  1.36D+00
                    CP:  1.40D+00  1.74D+00  1.77D+00  1.64D+00  1.47D+00
                    CP:  1.50D+00  1.35D+00
 E= -1747.67901311867     Delta-E=       -0.000000001593 Rises=F Damp=F
 DIIS: error= 1.27D-07 at cycle  13 NSaved=  13.
 NSaved=13 IEnMin=13 EnMin= -1747.67901311867     IErMin=13 ErrMin= 1.27D-07
 ErrMax= 1.27D-07  0.00D+00 EMaxC= 1.00D-01 BMatC= 7.72D-11 BMatP= 8.44D-10
 IDIUse=1 WtCom= 1.00D+00 WtEn= 0.00D+00
 Coeff-Com:  0.296D-06-0.238D-06-0.150D-04-0.253D-04-0.224D-03 0.394D-03
 Coeff-Com:  0.338D-02 0.220D-02-0.118D-01-0.410D-01-0.103D-01 0.234D+00
 Coeff-Com:  0.823D+00
 Coeff:      0.296D-06-0.238D-06-0.150D-04-0.253D-04-0.224D-03 0.394D-03
 Coeff:      0.338D-02 0.220D-02-0.118D-01-0.410D-01-0.103D-01 0.234D+00
 Coeff:      0.823D+00
 Gap=     0.213 Goal=   None    Shift=    0.000
 RMSDP=6.39D-08 MaxDP=1.51D-05 DE=-1.59D-09 OVMax= 1.03D-05

 Cycle  14  Pass 1  IDiag  1:
 RMSU=  3.17D-08    CP:  7.20D-01  1.44D+00  3.93D-01  1.08D+00  1.36D+00
                    CP:  1.40D+00  1.74D+00  1.77D+00  1.64D+00  1.49D+00
                    CP:  1.57D+00  1.61D+00  1.58D+00
 E= -1747.67901311885     Delta-E=       -0.000000000183 Rises=F Damp=F
 DIIS: error= 7.41D-08 at cycle  14 NSaved=  14.
 NSaved=14 IEnMin=14 EnMin= -1747.67901311885     IErMin=14 ErrMin= 7.41D-08
 ErrMax= 7.41D-08  0.00D+00 EMaxC= 1.00D-01 BMatC= 1.08D-11 BMatP= 7.72D-11
 IDIUse=1 WtCom= 1.00D+00 WtEn= 0.00D+00
 Coeff-Com: -0.479D-05 0.103D-04 0.381D-05-0.272D-04-0.180D-03-0.226D-03
 Coeff-Com:  0.481D-03 0.106D-02 0.341D-02-0.907D-02-0.365D-01-0.163D-01
 Coeff-Com:  0.251D+00 0.806D+00
 Coeff:     -0.479D-05 0.103D-04 0.381D-05-0.272D-04-0.180D-03-0.226D-03
 Coeff:      0.481D-03 0.106D-02 0.341D-02-0.907D-02-0.365D-01-0.163D-01
 Coeff:      0.251D+00 0.806D+00
 Gap=     0.213 Goal=   None    Shift=    0.000
 RMSDP=5.53D-08 MaxDP=3.26D-06 DE=-1.83D-10 OVMax= 4.40D-06

 Cycle  15  Pass 1  IDiag  1:
 RMSU=  2.80D-08    CP:  7.20D-01  1.44D+00  3.93D-01  1.08D+00  1.36D+00
                    CP:  1.40D+00  1.74D+00  1.77D+00  1.64D+00  1.49D+00
                    CP:  1.59D+00  1.77D+00  2.26D+00  2.04D+00
 E= -1747.67901311884     Delta-E=        0.000000000008 Rises=F Damp=F
 DIIS: error= 4.45D-08 at cycle  15 NSaved=  15.
 NSaved=15 IEnMin=14 EnMin= -1747.67901311885     IErMin=15 ErrMin= 4.45D-08
 ErrMax= 4.45D-08  0.00D+00 EMaxC= 1.00D-01 BMatC= 3.30D-12 BMatP= 1.08D-11
 IDIUse=1 WtCom= 1.00D+00 WtEn= 0.00D+00
 Coeff-Com: -0.181D-05 0.383D-05 0.373D-05-0.863D-05-0.370D-04-0.165D-03
 Coeff-Com: -0.344D-03 0.382D-04 0.357D-02 0.282D-02-0.131D-01-0.476D-01
 Coeff-Com: -0.392D-01 0.360D+00 0.734D+00
 Coeff:     -0.181D-05 0.383D-05 0.373D-05-0.863D-05-0.370D-04-0.165D-03
 Coeff:     -0.344D-03 0.382D-04 0.357D-02 0.282D-02-0.131D-01-0.476D-01
 Coeff:     -0.392D-01 0.360D+00 0.734D+00
 Gap=     0.213 Goal=   None    Shift=    0.000
 RMSDP=7.66D-08 MaxDP=3.65D-06 DE= 8.19D-12 OVMax= 2.03D-06

 Cycle  16  Pass 1  IDiag  1:
 RMSU=  3.17D-08    CP:  7.20D-01  1.44D+00  3.93D-01  1.08D+00  1.36D+00
                    CP:  1.40D+00  1.74D+00  1.77D+00  1.64D+00  1.49D+00
                    CP:  1.61D+00  1.91D+00  2.96D+00  3.00D+00  2.52D+00
 E= -1747.67901311886     Delta-E=       -0.000000000015 Rises=F Damp=F
 DIIS: error= 6.71D-08 at cycle  16 NSaved=  16.
 NSaved=16 IEnMin=16 EnMin= -1747.67901311886     IErMin=15 ErrMin= 4.45D-08
 ErrMax= 6.71D-08  0.00D+00 EMaxC= 1.00D-01 BMatC= 1.58D-12 BMatP= 3.30D-12
 IDIUse=1 WtCom= 1.00D+00 WtEn= 0.00D+00
 Coeff-Com: -0.119D-05 0.252D-05 0.241D-05-0.461D-05-0.204D-04-0.981D-04
 Coeff-Com: -0.225D-03 0.128D-04 0.217D-02 0.193D-02-0.719D-02-0.294D-01
 Coeff-Com: -0.338D-01 0.206D+00 0.460D+00 0.400D+00
 Coeff:     -0.119D-05 0.252D-05 0.241D-05-0.461D-05-0.204D-04-0.981D-04
 Coeff:     -0.225D-03 0.128D-04 0.217D-02 0.193D-02-0.719D-02-0.294D-01
 Coeff:     -0.338D-01 0.206D+00 0.460D+00 0.400D+00
 Gap=     0.213 Goal=   None    Shift=    0.000
 RMSDP=5.92D-08 MaxDP=2.83D-06 DE=-1.55D-11 OVMax= 3.77D-07

 Cycle  17  Pass 1  IDiag  1:
 RMSU=  3.13D-08    CP:  7.20D-01  1.44D+00  3.93D-01  1.08D+00  1.36D+00
                    CP:  1.40D+00  1.74D+00  1.77D+00  1.64D+00  1.49D+00
                    CP:  1.61D+00  1.97D+00  3.00D+00  3.00D+00  3.00D+00
                    CP:  2.29D+00
 E= -1747.67901311885     Delta-E=        0.000000000005 Rises=F Damp=F
 DIIS: error= 7.47D-08 at cycle  17 NSaved=  17.
 NSaved=17 IEnMin=16 EnMin= -1747.67901311886     IErMin=15 ErrMin= 4.45D-08
 ErrMax= 7.47D-08  0.00D+00 EMaxC= 1.00D-01 BMatC= 2.00D-12 BMatP= 1.58D-12
 IDIUse=1 WtCom= 1.00D+00 WtEn= 0.00D+00
 Coeff-Com: -0.109D-05 0.230D-05 0.234D-05-0.347D-05-0.140D-04-0.892D-04
 Coeff-Com: -0.243D-03-0.220D-04 0.205D-02 0.227D-02-0.565D-02-0.287D-01
 Coeff-Com: -0.457D-01 0.174D+00 0.469D+00 0.949D+00-0.516D+00
 Coeff:     -0.109D-05 0.230D-05 0.234D-05-0.347D-05-0.140D-04-0.892D-04
 Coeff:     -0.243D-03-0.220D-04 0.205D-02 0.227D-02-0.565D-02-0.287D-01
 Coeff:     -0.457D-01 0.174D+00 0.469D+00 0.949D+00-0.516D+00
 Gap=     0.213 Goal=   None    Shift=    0.000
 RMSDP=3.95D-08 MaxDP=2.16D-06 DE= 5.46D-12 OVMax= 5.33D-08

 Cycle  18  Pass 1  IDiag  1:
 RMSU=  1.66D-08    CP:  7.20D-01  1.44D+00  3.93D-01  1.08D+00  1.36D+00
                    CP:  1.40D+00  1.74D+00  1.77D+00  1.64D+00  1.49D+00
                    CP:  1.61D+00  1.95D+00  3.00D+00  3.00D+00  3.00D+00
                    CP:  1.50D+00  1.85D-01
 E= -1747.67901311880     Delta-E=        0.000000000047 Rises=F Damp=F
 DIIS: error= 8.18D-08 at cycle  18 NSaved=  18.
 NSaved=18 IEnMin=16 EnMin= -1747.67901311886     IErMin=15 ErrMin= 4.45D-08
 ErrMax= 8.18D-08  0.00D+00 EMaxC= 1.00D-01 BMatC= 1.84D-12 BMatP= 1.58D-12
 IDIUse=1 WtCom= 1.00D+00 WtEn= 0.00D+00
 Coeff-Com: -0.106D-05 0.225D-05 0.224D-05-0.330D-05-0.139D-04-0.844D-04
 Coeff-Com: -0.228D-03-0.156D-04 0.194D-02 0.210D-02-0.540D-02-0.270D-01
 Coeff-Com: -0.426D-01 0.166D+00 0.440D+00 0.922D+00-0.832D+00 0.376D+00
 Coeff:     -0.106D-05 0.225D-05 0.224D-05-0.330D-05-0.139D-04-0.844D-04
 Coeff:     -0.228D-03-0.156D-04 0.194D-02 0.210D-02-0.540D-02-0.270D-01
 Coeff:     -0.426D-01 0.166D+00 0.440D+00 0.922D+00-0.832D+00 0.376D+00
 Gap=     0.213 Goal=   None    Shift=    0.000
[...]
 Alpha virt. eigenvalues --    2.38266   2.38941   2.39786   2.39938   2.40468
 Alpha virt. eigenvalues --    2.41048   2.41357   2.42166   2.42887   2.45110
 Alpha virt. eigenvalues --    2.45171   2.45991   2.46131   2.46568   2.46923
 Alpha virt. eigenvalues --    2.47147   2.50036   2.50166   2.51143   2.51319
 Alpha virt. eigenvalues --    2.52113   2.53070   2.53125   2.53497   2.54256
 Alpha virt. eigenvalues --    2.54466   2.54925   2.55586   2.56511   2.56679
 Alpha virt. eigenvalues --    2.56964   2.57445   2.57727   2.58685   2.58875
 Alpha virt. eigenvalues --    2.58998   2.59528   2.61231   2.61599   2.61731
 Alpha virt. eigenvalues --    2.62166   2.62603   2.62808   2.64534   2.64686
 Alpha virt. eigenvalues --    2.64990   2.65871   2.66235   2.66576   2.66678
 Alpha virt. eigenvalues --    2.66823   2.67199   2.67320   2.67446   2.68904
 Alpha virt. eigenvalues --    2.69160   2.69317   2.69672   2.69869   2.70100
 Alpha virt. eigenvalues --    2.70727   2.70733   2.71258   2.72260   2.72363
 Alpha virt. eigenvalues --    2.72751   2.72946   2.73557   2.74028   2.74128
 Alpha virt. eigenvalues --    2.74409   2.74561   2.74946   2.75021   2.75098
 Alpha virt. eigenvalues --    2.75275   2.75351   2.75364   2.75459   2.75534
 Alpha virt. eigenvalues --    2.75713   2.75766   2.76329   2.76646   2.76908
 Alpha virt. eigenvalues --    2.77351   2.77498   2.77884   2.78075   2.78235
 Alpha virt. eigenvalues --    2.78350   2.78674   2.78909   2.79642   2.79706
 Alpha virt. eigenvalues --    2.79955   2.80147   2.80366   2.80465   2.80785
 Alpha virt. eigenvalues --    2.81017   2.81663   2.81848   2.82242   2.82610
 Alpha virt. eigenvalues --    2.82728   2.82881   2.83192   2.83434   2.83771
 Alpha virt. eigenvalues --    2.84132   2.84421   2.84636   2.84756   2.84946
 Alpha virt. eigenvalues --    2.85682   2.86094   2.86161   2.86372   2.86512
 Alpha virt. eigenvalues --    2.86642   2.87084   2.87573   2.88090   2.88440
 Alpha virt. eigenvalues --    2.88838   2.89052   2.89508   2.89782   2.90235
 Alpha virt. eigenvalues --    2.90374   2.90462   2.90695   2.90878   2.91135
 Alpha virt. eigenvalues --    2.91666   2.92038   2.92217   2.92376   2.92477
 Alpha virt. eigenvalues --    2.92931   2.93197   2.93349   2.93399   2.93929
 Alpha virt. eigenvalues --    2.94157   2.94227   2.94574   2.94591   2.94947
 Alpha virt. eigenvalues --    2.95002   2.95266   2.95365   2.95719   2.95799
 Alpha virt. eigenvalues --    2.96509   2.96773   2.97162   2.97766   2.98081
 Alpha virt. eigenvalues --    2.98174   2.98351   2.99032   2.99302   2.99948
 Alpha virt. eigenvalues --    3.00568   3.00772   3.01625   3.02071   3.02501
 Alpha virt. eigenvalues --    3.03106   3.04025   3.04240   3.04689   3.04832
 Alpha virt. eigenvalues --    3.05771   3.05946   3.07246   3.07681   3.08077
 Alpha virt. eigenvalues --    3.08175   3.08524   3.08837   3.09180   3.09430
 Alpha virt. eigenvalues --    3.09666   3.10259   3.10327   3.10853   3.11022
 Alpha virt. eigenvalues --    3.11779   3.11939   3.12444   3.12505   3.12918
 Alpha virt. eigenvalues --    3.13963   3.14291   3.14430   3.14485   3.15561
 Alpha virt. eigenvalues --    3.16079   3.16447   3.17294   3.17430   3.17560
 Alpha virt. eigenvalues --    3.17781   3.18115   3.18252   3.18683   3.18753
 Alpha virt. eigenvalues --    3.19023   3.19167   3.19774   3.19793   3.19981
 Alpha virt. eigenvalues --    3.21073   3.21479   3.21809   3.22010   3.22058
 Alpha virt. eigenvalues --    3.22156   3.22384   3.22608   3.22671   3.22883
 Alpha virt. eigenvalues --    3.23066   3.23162   3.23630   3.23907   3.24063
 Alpha virt. eigenvalues --    3.24451   3.24677   3.24997   3.25162   3.25838
 Alpha virt. eigenvalues --    3.26809   3.26836   3.27103   3.27246   3.27293
 Alpha virt. eigenvalues --    3.27584   3.27649   3.27922   3.28147   3.28429
 Alpha virt. eigenvalues --    3.28574   3.28653   3.29028   3.29162   3.29563
 Alpha virt. eigenvalues --    3.29706   3.31503   3.31689   3.31993   3.32058
 Alpha virt. eigenvalues --    3.32766   3.33179   3.33757   3.33855   3.34200
 Alpha virt. eigenvalues --    3.34463   3.34879   3.34989   3.35162   3.35331
 Alpha virt. eigenvalues --    3.35674   3.36051   3.36222   3.36503   3.36642
 Alpha virt. eigenvalues --    3.37298   3.37698   3.38013   3.38485   3.38791
 Alpha virt. eigenvalues --    3.39264   3.39376   3.39880   3.40150   3.40521
 Alpha virt. eigenvalues --    3.40708   3.41154   3.41170   3.41500   3.41809
 Alpha virt. eigenvalues --    3.42101   3.42300   3.42797   3.42968   3.44099
 Alpha virt. eigenvalues --    3.44331   3.44475   3.44689   3.45286   3.45325
 Alpha virt. eigenvalues --    3.45497   3.46093   3.46102   3.46347   3.46555
 Alpha virt. eigenvalues --    3.46832   3.46900   3.46985   3.47262   3.47653
 Alpha virt. eigenvalues --    3.47849   3.48313   3.48479   3.49364   3.49435
 Alpha virt. eigenvalues --    3.50141   3.50187   3.50459   3.50661   3.50847
 Alpha virt. eigenvalues --    3.51280   3.51322   3.51421   3.51837   3.52122
 Alpha virt. eigenvalues --    3.52735   3.52892   3.53000   3.53256   3.53544
 Alpha virt. eigenvalues --    3.53856   3.54063   3.54440   3.54487   3.54761
 Alpha virt. eigenvalues --    3.54993   3.55237   3.55485   3.55676   3.56331
 Alpha virt. eigenvalues --    3.56489   3.56538   3.57305   3.57436   3.58112
 Alpha virt. eigenvalues --    3.58602   3.58771   3.58935   3.59094   3.59255
 Alpha virt. eigenvalues --    3.59828   3.60018   3.60471   3.61051   3.61508
 Alpha virt. eigenvalues --    3.61697   3.62600   3.62639   3.63004   3.63212
 Alpha virt. eigenvalues --    3.63500   3.63906   3.64129   3.64244   3.64854
 Alpha virt. eigenvalues --    3.65112   3.65231   3.65466   3.65802   3.66039
 Alpha virt. eigenvalues --    3.66680   3.66909   3.67431   3.67725   3.68080
 Alpha virt. eigenvalues --    3.68989   3.69152   3.70142   3.70343   3.71289
 Alpha virt. eigenvalues --    3.71465   3.71511   3.72662   3.72738   3.72821
 Alpha virt. eigenvalues --    3.73661   3.74274   3.74654   3.75288   3.75439
 Alpha virt. eigenvalues --    3.75873   3.76849   3.77082   3.77752   3.78390
 Alpha virt. eigenvalues --    3.79176   3.80079   3.80503   3.83183   3.83910
 Alpha virt. eigenvalues --    3.84426   3.85149   3.85455   3.85648   3.86669
 Alpha virt. eigenvalues --    3.87254   3.87646   3.88521   3.88861   3.89933
 Alpha virt. eigenvalues --    3.90412   3.90537   3.91115   3.91718   3.92214
 Alpha virt. eigenvalues --    3.93435   3.94269   3.94764   3.96014   3.96444
 Alpha virt. eigenvalues --    3.97002   3.97685   3.98220   4.00849   4.01019
 Alpha virt. eigenvalues --    4.01409   4.01817   4.02192   4.02374   4.02751
 Alpha virt. eigenvalues --    4.03496   4.03856   4.05078   4.05758   4.05864
 Alpha virt. eigenvalues --    4.07544   4.08057   4.08327   4.08633   4.09089
 Alpha virt. eigenvalues --    4.10112   4.10222   4.10502   4.11026   4.11544
 Alpha virt. eigenvalues --    4.11593   4.11913   4.13494   4.13687   4.14090
 Alpha virt. eigenvalues --    4.14613   4.15158   4.16851   4.17282   4.17763
 Alpha virt. eigenvalues --    4.18246   4.18893   4.19149   4.19962   4.20164
 Alpha virt. eigenvalues --    4.20741   4.21666   4.22027   4.23037   4.23196
 Alpha virt. eigenvalues --    4.23540   4.23640   4.25483   4.25530   4.26521
 Alpha virt. eigenvalues --    4.26837   4.26997   4.27431   4.27612   4.27845
 Alpha virt. eigenvalues --    4.28177   4.28543   4.28669   4.29230   4.29708
 Alpha virt. eigenvalues --    4.29832   4.30343   4.30596   4.30675   4.31041
 Alpha virt. eigenvalues --    4.31242   4.31357   4.31627   4.31972   4.32105
 Alpha virt. eigenvalues --    4.32810   4.32876   4.33147   4.33162   4.33386
 Alpha virt. eigenvalues --    4.33801   4.34256   4.34328   4.34804   4.35211
 Alpha virt. eigenvalues --    4.35728   4.35891   4.36407   4.36724   4.37050
 Alpha virt. eigenvalues --    4.37330   4.37865   4.38151   4.38559   4.39422
 Alpha virt. eigenvalues --    4.39802   4.40164   4.40858   4.41928   4.42318
 Alpha virt. eigenvalues --    4.42329   4.43467   4.43958   4.44254   4.45921
 Alpha virt. eigenvalues --    4.46970   4.47490   4.48796   4.49666   4.50129
 Alpha virt. eigenvalues --    4.50224   4.52153   4.52541   4.53090   4.54447
 Alpha virt. eigenvalues --    4.55485   4.56616   4.58976   4.59528   4.59888
 Alpha virt. eigenvalues --    4.60789   4.61869   4.63833   4.65525   4.67265
 Alpha virt. eigenvalues --    4.68059   4.68452   4.69273   4.69991   4.71070
 Alpha virt. eigenvalues --    4.71547   4.72332   4.73021   4.73759   4.74699
 Alpha virt. eigenvalues --    4.74985   4.75053   4.76303   4.76413   4.76802
 Alpha virt. eigenvalues --    4.77289   4.77444   4.77898   4.78190   4.79236
 Alpha virt. eigenvalues --    4.80320   4.81131   4.81429   4.81522   4.82829
 Alpha virt. eigenvalues --    4.83694   4.85142   4.85622   4.85768   4.86213
 Alpha virt. eigenvalues --    4.86850   4.88045   4.88137   4.90446   4.94765
 Alpha virt. eigenvalues --    4.95284   4.95397   4.96788   4.97341   4.98266
 Alpha virt. eigenvalues --    4.99950   5.01656   5.01772   5.02630   5.02758
 Alpha virt. eigenvalues --    5.03099   5.03440   5.04085   5.05080   5.05686
 Alpha virt. eigenvalues --    5.06432   5.07968   5.09082   5.09261   5.09741
 Alpha virt. eigenvalues --    5.10360   5.11297   5.12690   5.13733   5.16336
 Alpha virt. eigenvalues --    5.17201   5.18069   5.19673   5.22449   5.22549
 Alpha virt. eigenvalues --    5.26366   5.28464   5.31394   5.32076   5.33025
 Alpha virt. eigenvalues --    5.33118   5.34416   5.35299   5.35391   5.36945
 Alpha virt. eigenvalues --    5.37633   5.40005   5.41110   5.41914   5.43857
 Alpha virt. eigenvalues --    5.44610   5.45685   5.45925   5.46489   5.48192
 Alpha virt. eigenvalues --    5.48758   5.49272   5.53859   5.55342   5.55393
 Alpha virt. eigenvalues --    5.55527   5.58846   5.58967   5.59884   5.61243
 Alpha virt. eigenvalues --    5.61390   5.62244   5.63117   5.63250   5.68517
 Alpha virt. eigenvalues --    5.70056   5.70834   5.71882   5.74973   5.78080
 Alpha virt. eigenvalues --    5.79096   5.80603   5.82524   5.90009   5.91388
 Alpha virt. eigenvalues --    5.97243   5.98611   6.01845   6.03739   6.12308
 Alpha virt. eigenvalues --    6.21427   6.23502   6.31833   6.37393   6.65347
 Alpha virt. eigenvalues --    6.71373   6.95283   6.96618   6.97619   7.53873
 Alpha virt. eigenvalues --    7.60016  22.05060  22.09944  22.33344  22.38225
 Alpha virt. eigenvalues --   22.41351  22.48949  22.53557  22.65429  22.65473
 Alpha virt. eigenvalues --   22.67699  22.68991  22.69015  22.71793  22.78287
 Alpha virt. eigenvalues --   22.79524  22.81832  22.81998  22.83808  22.84463
 Alpha virt. eigenvalues --   22.84570  22.86007  22.86502  22.87590  22.87687
 Alpha virt. eigenvalues --   22.91766  22.92546  22.93823  22.95682  22.97292
 Alpha virt. eigenvalues --   22.98238  23.01652  23.05017  23.15957  23.16434
 Alpha virt. eigenvalues --   23.20670  23.32242  23.32861  23.35160  23.49516
 Alpha virt. eigenvalues --   23.53446  23.60084  23.69009  33.38724  44.57880
          Condensed to atoms (all electrons):
 Mulliken charges:
               1
     1  C   -0.263567
     2  C   -0.200863
     3  C    0.043775
     4  C    0.219616
     5  C   -0.345058
     6  C    0.158703
     7  C    0.219776
     8  C    0.044229
     9  C   -0.200859
    10  H    0.188374
    11  C   -0.263663
    12  C    0.159711
    13  C   -0.346826
    14  H    0.188360
    15  H    0.160715
    16  H    0.167428
    17  N    0.027157
    18  C   -0.005314
    19  C   -0.207814
    20  C   -0.203942
    21  C   -0.126597
    22  C   -0.127743
    23  H    0.166412
    24  C   -0.145706
    25  H    0.168109
    26  H    0.169306
    27  H    0.160483
    28  H    0.167499
    29  C    0.110421
    30  C   -0.227210
    31  C   -0.230864
    32  C   -0.230803
    33  H    0.167832
    34  C   -0.228711
    35  H    0.167643
    36  C    0.146294
    37  H    0.168675
    38  H    0.168541
    39  C    0.106403
    40  C   -0.231174
    41  C   -0.231496
    42  C   -0.175100
    43  H    0.170704
    44  C   -0.174997
    45  H    0.170593
    46  C   -0.163557
    47  H    0.164116
    48  H    0.164136
    49  H    0.165543
    50  C    0.109978
    51  C   -0.227629
    52  C   -0.230832
    53  C   -0.230208
    54  H    0.167783
    55  C   -0.228615
    56  H    0.167584
    57  C    0.146457
    58  H    0.168558
    59  H    0.168364
    60  C    0.106493
    61  C   -0.230923
    62  C   -0.231299
    63  C   -0.175175
    64  H    0.170482
    65  C   -0.175031
    66  H    0.170413
    67  C   -0.163532
    68  H    0.164085
    69  H    0.164126
    70  H    0.165535
    71  O   -0.260503
    72  H    0.168240
    73  H    0.166959
 Sum of Mulliken charges =  -0.00000
 Mulliken charges with hydrogens summed into heavy atoms:
               1
     1  C   -0.096068
     2  C   -0.012503
     3  C    0.043775
     4  C    0.219616
     5  C   -0.184344
     6  C    0.158703
     7  C    0.219776
     8  C    0.044229
     9  C   -0.012485
    11  C   -0.096235
    12  C    0.159711
    13  C   -0.186343
    17  N    0.027157
    18  C   -0.005314
    19  C   -0.040855
    20  C   -0.037530
    21  C    0.041644
    22  C    0.040366
    24  C    0.023600
    29  C    0.110421
    30  C   -0.059377
    31  C   -0.063221
    32  C   -0.062127
    34  C   -0.060170
    36  C    0.146294
    39  C    0.106403
    40  C   -0.060470
    41  C   -0.060903
    42  C   -0.010983
    44  C   -0.010861
    46  C    0.001986
    50  C    0.109978
    51  C   -0.059846
    52  C   -0.063248
    53  C   -0.061651
    55  C   -0.060251
    57  C    0.146457
    60  C    0.106493
    61  C   -0.060441
    62  C   -0.060886
    63  C   -0.011090
    65  C   -0.010905
    67  C    0.002003
    71  O   -0.260503
 Electronic spatial extent (au):  <R**2>=          51328.0050
 Charge=             -0.0000 electrons
 Dipole moment (field-independent basis, Debye):
    X=              0.0026    Y=              3.6926    Z=              0.0964  Tot=              3.6938
 Quadrupole moment (field-independent basis, Debye-Ang):
   XX=           -237.3050   YY=           -214.3877   ZZ=           -244.6809
   XY=              0.2360   XZ=             -7.5218   YZ=              0.2449
 Traceless Quadrupole moment (field-independent basis, Debye-Ang):
   XX=             -5.1805   YY=             17.7368   ZZ=            -12.5564
   XY=              0.2360   XZ=             -7.5218   YZ=              0.2449
 Octapole moment (field-independent basis, Debye-Ang**2):
  XXX=              3.9468  YYY=            223.9173  ZZZ=              0.4894  XYY=              1.4302
  XXY=           -180.0594  XXZ=             -0.1930  XZZ=             -3.7274  YZZ=              1.8527
  YYZ=              2.0232  XYZ=            -75.6125
 Hexadecapole moment (field-independent basis, Debye-Ang**3):
 XXXX=         -53336.2745 YYYY=         -12538.2216 ZZZZ=          -1082.7640 XXXY=             34.4393
 XXXZ=          -1413.2181 YYYX=            -11.0447 YYYZ=              0.1022 ZZZX=            -18.4193
 ZZZY=              1.4020 XXYY=         -10957.1423 XXZZ=          -9256.4003 YYZZ=          -2278.7621
 XXYZ=             -6.8089 YYXZ=            377.6592 ZZXY=              7.0311
 N-N= 4.221039794051D+03 E-N=-1.250297298564D+04  KE= 1.740264904396D+03
 Leave Link  601 at Fri Nov 26 12:58:46 2021, MaxMem=  5242880000 cpu:         9.0
 (Enter /opt/nce/packages/global/g09/l9999.exe)
 1\1\GINC-CN058\SP\RCAM-B3LYP TD-FC\Gen\C42H29N1O1\PNG4RJV\26-Nov-2021\
 0\\#p cam-b3lyp chkbasis geom=allcheck Guess=Read int=ultrafine scrf=(
 SMD,solvent=n,n-DiMethylAcetamide) td=(NStates=30) EmpiricalDispersion
 =GD3BJ\\Title\\0,1\C,0,-3.6124541575,1.944260703,-0.0319246347\C,0,-2.
 4409905904,2.6851521116,-0.0280192003\C,0,-1.2015681493,2.0631065223,0
 .0041511799\C,0,-1.1793091592,0.6672257848,0.0284228042\C,0,-2.3391093
 691,-0.06753295,0.0210885303\C,0,-3.5875499976,0.5571713532,-0.0074669
 011\C,0,1.1806824568,0.6675290075,0.0454763569\C,0,1.2028674191,2.0632
 515009,0.0143355938\C,0,2.4423904615,2.6852825305,-0.0135110121\H,0,2.
 4957616573,3.7640076143,-0.0268988655\C,0,3.6138785129,1.9444345247,-0
 .0142885123\C,0,3.5890804546,0.5573661448,0.0134803944\C,0,2.340554647
 9,-0.0671647982,0.0437632902\H,0,-2.4940887593,3.7636033186,-0.0561774
 955\H,0,-2.2552028636,-1.1452265457,0.059167965\H,0,4.5585105682,2.470
 6739651,-0.0173400868\N,0,0.0005818813,2.7672765839,0.0149676065\C,0,0
 .0006776254,4.1932735845,-0.0158495941\C,0,0.005513689,4.8559521941,-1
 .2321583163\C,0,-0.0039578722,4.9051900788,1.1719877686\C,0,0.00571869
 9,6.2405466094,-1.2590412803\C,0,-0.0037522072,6.2899024777,1.14206884
 38\H,0,-0.0075863433,4.3696011773,2.1124750455\C,0,0.0010882138,6.9575
 664258,-0.0726252106\H,0,-0.0073237132,6.8482073979,2.0690277471\H,0,0
 .0012613599,8.0396110622,-0.0948858185\H,0,2.2559162676,-1.1454548036,
 0.0496540427\H,0,-4.5567195674,2.4694738633,-0.074600528\C,0,-4.831607
 8815,-0.2400842782,-0.0157484536\C,0,-4.8919463873,-1.4776485427,-0.65
 31195823\C,0,-5.9868415292,0.2200749066,0.6130277139\C,0,-6.0567134362
 ,-2.2209375739,-0.6637773345\H,0,-4.0179234424,-1.8646109728,-1.160214
 4267\C,0,-7.1511512807,-0.5237905491,0.6030907356\H,0,-5.9749124841,1.
 1705819055,1.1297909672\C,0,-7.2110719886,-1.7597450854,-0.036023691\H
 ,0,-6.0630094412,-3.1818736164,-1.1612604814\H,0,-8.0315450026,-0.1300
 564943,1.0938690452\C,0,-8.4581894498,-2.5557947414,-0.047017113\C,0,-
 8.8138350311,-3.3111465715,-1.1629754877\C,0,-9.3073763897,-2.56974792
 3,1.0579904844\C,0,-9.9806559902,-4.0557656079,-1.174100368\H,0,-8.179
 1715713,-3.3027398249,-2.0394610891\C,0,-10.4739198684,-3.3149059025,1
 .0477765749\H,0,-9.0442419262,-2.0051435625,1.9428242959\C,0,-10.81622
 10238,-4.0614685847,-0.0684881221\H,0,-10.241204512,-4.6296204181,-2.0
 543189637\H,0,-11.1154545475,-3.3171011679,1.9197982195\H,0,-11.728297
 6377,-4.644087215,-0.0766916894\C,0,4.8333064567,-0.2397351524,0.01556
 25984\C,0,4.9116278351,-1.4551653309,0.6923800086\C,0,5.9710430067,0.1
 982411573,-0.6592728697\C,0,6.0764167943,-2.1984883292,0.696146384\H,0
 ,4.0522791985,-1.824297409,1.2364630508\C,0,7.135641015,-0.5451452522,
 -0.6552967764\H,0,5.9450526316,1.1307332226,-1.2073673368\C,0,7.213464
 9163,-1.7593266123,0.0225515361\H,0,6.0958727984,-3.142261783,1.225101
 9174\H,0,8.0023249823,-0.1677563952,-1.1819368627\C,0,8.4610524909,-2.
 5549268097,0.0266492672\C,0,8.8428799473,-3.2795951393,1.1543156676\C,
 0,9.2851115878,-2.598968874,-1.0965543642\C,0,10.0101118122,-4.0236193
 137,1.1590396836\H,0,8.2288331601,-3.2475868569,2.0447922668\C,0,10.45
 24166098,-3.3429678697,-1.092469052\H,0,9.0018342895,-2.0590292248,-1.
 9905066663\C,0,10.8205966758,-4.0589881667,0.035484909\H,0,10.29079448
 8,-4.5734846826,2.0483350452\H,0,11.0740708024,-3.3682944769,-1.978408
 978\H,0,11.7331660577,-4.6408790093,0.038864584\O,0,0.0005055302,-0.03
 25534981,0.0763787508\H,0,0.009488482,6.7604101505,-2.2080881839\H,0,0
 .0089978479,4.2826966067,-2.1502167668\\Version=ES64L-G09RevE.01\State
 =1-A\HF=-1747.7161762\RMSD=1.023e-09\PG=C01 [X(C42H29N1O1)]\\@


 WE HAVE SEEN THAT MAN ON THE AVERAGE DOES NOT LIVE ABOVE
 TWO-AND-TWENTY YEARS.  DURING THESE TWO AND TWENTY
 YEARS HE IS LIABLE TO TWO AND TWENTY THOUSAND EVILS,
 MANY OF WHICH ARE INCURABLE.  YET EVEN IN THIS DREADFUL STATE
 MEN STILL STRUT AND POSE ON THE STAGE OF LIFE.
 THEY MAKE LOVE AT THE RISK OF DESTRUCTION,
 INTRIGUE, CARRY ON WAR, AND FORM PROJECTS, JUST AS IF THEY
 WERE TO LIVE IN LUXURY AND HAPPINESS FOR A THOUSAND
 AGES.

                                              -- VOLTAIRE
 Job cpu time:       4 days  0 hours 59 minutes 33.6 seconds.
 File lengths (MBytes):  RWF=  11609 Int=      0 D2E=      0 Chk=   2090 Scr=      1
 Normal termination of Gaussian 09 at Fri Nov 26 12:58:50 2021.
