 Entering Gaussian System, Link 0=g09
 Input=/home/png4rjv/fotokatalizis/benchmark/OPCs/RESTART_2/POZ_5_PBE-D3_def2TZVP.gjf
 Output=/home/png4rjv/fotokatalizis/benchmark/OPCs/RESTART_2/POZ_5_PBE-D3_def2TZVP.log
 Initial command:
 /opt/nce/packages/global/g09/l1.exe "/home/png4rjv/fotokatalizis/benchmark/OPCs/RESTART_2/POZ_5_PBE-D3_def2TZVP/Gau-1405.inp" -scrdir="/home/png4rjv/fotokatalizis/benchmark/OPCs/RESTART_2/POZ_5_PBE-D3_def2TZVP/"
 Default is to use a total of  12 processors:
                               12 via shared-memory
                                1 via Linda
 Entering Link 1 = /opt/nce/packages/global/g09/l1.exe PID=      1406.
  
 Copyright (c) 1988,1990,1992,1993,1995,1998,2003,2009,2015,
            Gaussian, Inc.  All Rights Reserved.
  
 This is part of the Gaussian(R) 09 program.  It is based on
 the Gaussian(R) 03 system (copyright 2003, Gaussian, Inc.),
 the Gaussian(R) 98 system (copyright 1998, Gaussian, Inc.),
 the Gaussian(R) 94 system (copyright 1995, Gaussian, Inc.),
 the Gaussian 92(TM) system (copyright 1992, Gaussian, Inc.),
 the Gaussian 90(TM) system (copyright 1990, Gaussian, Inc.),
 the Gaussian 88(TM) system (copyright 1988, Gaussian, Inc.),
 the Gaussian 86(TM) system (copyright 1986, Carnegie Mellon
 University), and the Gaussian 82(TM) system (copyright 1983,
 Carnegie Mellon University). Gaussian is a federally registered
 trademark of Gaussian, Inc.
  
 This software contains proprietary and confidential information,
 including trade secrets, belonging to Gaussian, Inc.
  
 This software is provided under written license and may be
 used, copied, transmitted, or stored only in accord with that
 written license.
  
 The following legend is applicable only to US Government
 contracts under FAR:
  
                    RESTRICTED RIGHTS LEGEND
  
 Use, reproduction and disclosure by the US Government is
 subject to restrictions as set forth in subparagraphs (a)
 and (c) of the Commercial Computer Software - Restricted
 Rights clause in FAR 52.227-19.
  
 Gaussian, Inc.
 340 Quinnipiac St., Bldg. 40, Wallingford CT 06492
  
  
 ---------------------------------------------------------------
 Warning -- This program may not be used in any manner that
 competes with the business of Gaussian, Inc. or will provide
 assistance to any competitor of Gaussian, Inc.  The licensee
 of this program is prohibited from giving any competitor of
 Gaussian, Inc. access to this program.  By using this program,
 the user acknowledges that Gaussian, Inc. is engaged in the
 business of creating and licensing software in the field of
 computational chemistry and represents and warrants to the
 licensee that it is not a competitor of Gaussian, Inc. and that
 it will not use this program in any manner prohibited above.
 ---------------------------------------------------------------
  

 Cite this work as:
 Gaussian 09, Revision E.01,
 M. J. Frisch, G. W. Trucks, H. B. Schlegel, G. E. Scuseria, 
 M. A. Robb, J. R. Cheeseman, G. Scalmani, V. Barone, B. Mennucci, 
 G. A. Petersson, H. Nakatsuji, M. Caricato, X. Li, H. P. Hratchian, 
 A. F. Izmaylov, J. Bloino, G. Zheng, J. L. Sonnenberg, M. Hada, 
 M. Ehara, K. Toyota, R. Fukuda, J. Hasegawa, M. Ishida, T. Nakajima, 
 Y. Honda, O. Kitao, H. Nakai, T. Vreven, J. A. Montgomery, Jr., 
 J. E. Peralta, F. Ogliaro, M. Bearpark, J. J. Heyd, E. Brothers, 
 K. N. Kudin, V. N. Staroverov, T. Keith, R. Kobayashi, J. Normand, 
 K. Raghavachari, A. Rendell, J. C. Burant, S. S. Iyengar, J. Tomasi, 
 M. Cossi, N. Rega, J. M. Millam, M. Klene, J. E. Knox, J. B. Cross, 
 V. Bakken, C. Adamo, J. Jaramillo, R. Gomperts, R. E. Stratmann, 
 O. Yazyev, A. J. Austin, R. Cammi, C. Pomelli, J. W. Ochterski, 
 R. L. Martin, K. Morokuma, V. G. Zakrzewski, G. A. Voth, 
 P. Salvador, J. J. Dannenberg, S. Dapprich, A. D. Daniels, 
 O. Farkas, J. B. Foresman, J. V. Ortiz, J. Cioslowski, 
 and D. J. Fox, Gaussian, Inc., Wallingford CT, 2013.
 
 ******************************************
 Gaussian 09:  ES64L-G09RevE.01 30-Nov-2015
                23-Nov-2021 
 ******************************************
 %chk=cp.chk
 Default route:  MaxDisk=500GB
 ----------------------------------------------------------------------
 #p PBEPBE/def2TZVP opt=tight freq=noraman nosymm int=ultrafine scrf=(S
 MD,solvent=n,n-DiMethylAcetamide) EmpiricalDispersion=GD3BJ
 ----------------------------------------------------------------------
 1/7=10,14=-1,18=20,19=15,26=4,38=1/1,3;
 2/9=110,12=2,15=1,17=6,18=5,40=1/2;
 3/5=44,7=101,11=2,16=1,25=1,30=1,70=32201,71=1,72=147,74=1009,75=-5,124=41/1,2,3;
 4//1;
 5/5=2,38=5,53=147/2;
 6/7=2,8=2,9=2,10=2,28=1/1;
 7/30=1/1,2,3,16;
 1/7=10,14=-1,18=20,19=15,26=4/3(2);
 2/9=110,15=1/2;
 99//99;
 2/9=110,15=1/2;
 3/5=44,7=101,11=2,16=1,25=1,30=1,70=32205,71=1,72=147,74=1009,75=-5,124=41/1,2,3;
 4/5=5,16=3,69=1/1;
 5/5=2,38=5,53=147/2;
 7/30=1/1,2,3,16;
 1/7=10,14=-1,18=20,19=15,26=4/3(-5);
 2/9=110,15=1/2;
 6/7=2,8=2,9=2,10=2,19=2,28=1/1;
 99/9=1/99;
 Leave Link    1 at Tue Nov 23 23:57:05 2021, MaxMem=           0 cpu:         0.9
 (Enter /opt/nce/packages/global/g09/l101.exe)
 -----
 Title
 -----
 Symbolic Z-matrix:
 Charge =  0 Multiplicity = 1
 C                    -3.61349   1.94303  -0.03788 
 C                    -2.44186   2.68365  -0.01666 
 C                    -1.20226   2.06113   0.08504 
 C                    -1.18007   0.66503   0.15155 
 C                    -2.34011  -0.0694    0.12902 
 C                    -3.5887    0.55568   0.03026 
 C                     1.2268    0.73201   0.52812 
 C                     1.20225   2.06113   0.09474 
 C                     2.44186   2.68365  -0.00336 
 H                     2.4951    3.76245  -0.05599 
 C                     3.61349   1.94303  -0.02208 
 C                     3.5887    0.55568   0.04964 
 C                     2.34011  -0.0694    0.15069 
 H                    -2.4951    3.76245  -0.08392 
 H                    -2.25578  -1.14763   0.20493 
 H                     4.55795   2.46924  -0.08251 
 N                    0.         2.76511   0.11985 
 C                    0.         4.19141   0.03003 
 C                     0.00389   4.80899  -1.21224 
 C                    -0.00389   4.9487    1.19245 
 C                     0.00387   6.19394  -1.29056 
 C                    -0.00388   6.33365   1.11111 
 H                    -0.0068    4.44402   2.15185 
 C                    0.         6.95629  -0.12964 
 H                    -0.00687   6.92277   2.01936 
 H                    0.         8.03857  -0.18951 
 H                     2.25578  -1.14763   0.19466 
 H                    -4.55796   2.46924  -0.13731 
 C                    -4.83304  -0.24122   0.00535 
 C                    -4.87247  -1.49824  -0.60124 
 C                    -6.00975   0.2388    0.57668 
 C                    -6.03753  -2.24111  -0.62842 
 H                    -3.9757   -1.8971   -1.06655 
 C                    -7.17443  -0.5045    0.5499 
 H                    -6.02086   1.21076   1.06866 
 C                    -7.2134   -1.76007  -0.05808 
 H                    -6.03049  -3.2138   -1.1014 
 H                    -8.07809  -0.08817   0.99828 
 C                    -8.46102  -2.55547  -0.08567 
 C                    -8.77955  -3.33583  -1.19751 
 C                    -9.34797  -2.54387   0.99843 
 C                    -9.9468   -4.07982  -1.22554 
 H                    -8.11488  -3.34609  -2.05096 
 C                    -10.50505  -3.28823   0.97122 
 H                    -9.10487  -1.9514    1.8779 
 C                    -10.82016  -4.05979  -0.14097 
 H                    -10.17732  -4.67186  -2.10037 
 H                    -11.17685  -3.27164   1.82023 
 H                    -11.73262  -4.64185  -0.16682 
 C                     4.83303  -0.24122   0.0346 
 C                     4.9324   -1.43831   0.74107 
 C                     5.94981   0.17886  -0.69657 
 C                     6.09746  -2.18118   0.7283 
 H                     4.09557  -1.79722   1.32626 
 C                     7.11449  -0.56443  -0.70975 
 H                     5.90098   1.09088  -1.26846 
 C                     7.21339  -1.76007  -0.00189 
 H                     6.13037  -3.11392   1.28118 
 H                     7.9582   -0.20806  -1.27801 
 C                     8.46101  -2.55548  -0.01426 
 C                     8.87944  -3.25593   1.11756 
 C                     9.24806  -2.62379  -1.15828 
 C                     10.04669  -3.99993   1.10563 
 H                     8.29469  -3.20626   2.03096 
 C                     10.42513  -3.36815  -1.17103 
 H                     8.94503  -2.11125  -2.05773 
 C                     10.82014  -4.05981  -0.03887 
 H                     10.35713  -4.53203   2.00044 
 H                     11.01701  -3.41149  -2.07998 
 H                     11.7326  -4.64187  -0.053 
 O                    0.        -0.0358    0.2997 
 H                     0.00687   6.68329  -2.25868 
 H                     0.00679   4.20453  -2.11176 
 
 NAtoms=     73 NQM=       73 NQMF=       0 NMMI=      0 NMMIF=      0
                NMic=       0 NMicF=      0.
                    Isotopes and Nuclear Properties:
 (Nuclear quadrupole moments (NQMom) in fm**2, nuclear magnetic moments (NMagM)
  in nuclear magnetons)

  Atom         1           2           3           4           5           6           7           8           9          10
 IAtWgt=          12          12          12          12          12          12          12          12          12           1
 AtmWgt=  12.0000000  12.0000000  12.0000000  12.0000000  12.0000000  12.0000000  12.0000000  12.0000000  12.0000000   1.0078250
 NucSpn=           0           0           0           0           0           0           0           0           0           1
 AtZEff=   0.0000000   0.0000000   0.0000000   0.0000000   0.0000000   0.0000000   0.0000000   0.0000000   0.0000000   0.0000000
 NQMom=    0.0000000   0.0000000   0.0000000   0.0000000   0.0000000   0.0000000   0.0000000   0.0000000   0.0000000   0.0000000
 NMagM=    0.0000000   0.0000000   0.0000000   0.0000000   0.0000000   0.0000000   0.0000000   0.0000000   0.0000000   2.7928460
 AtZNuc=   6.0000000   6.0000000   6.0000000   6.0000000   6.0000000   6.0000000   6.0000000   6.0000000   6.0000000   1.0000000

  Atom        11          12          13          14          15          16          17          18          19          20
 IAtWgt=          12          12          12           1           1           1          14          12          12          12
 AtmWgt=  12.0000000  12.0000000  12.0000000   1.0078250   1.0078250   1.0078250  14.0030740  12.0000000  12.0000000  12.0000000
 NucSpn=           0           0           0           1           1           1           2           0           0           0
 AtZEff=   0.0000000   0.0000000   0.0000000   0.0000000   0.0000000   0.0000000   0.0000000   0.0000000   0.0000000   0.0000000
 NQMom=    0.0000000   0.0000000   0.0000000   0.0000000   0.0000000   0.0000000   2.0440000   0.0000000   0.0000000   0.0000000
 NMagM=    0.0000000   0.0000000   0.0000000   2.7928460   2.7928460   2.7928460   0.4037610   0.0000000   0.0000000   0.0000000
 AtZNuc=   6.0000000   6.0000000   6.0000000   1.0000000   1.0000000   1.0000000   7.0000000   6.0000000   6.0000000   6.0000000

  Atom        21          22          23          24          25          26          27          28          29          30
 IAtWgt=          12          12           1          12           1           1           1           1          12          12
 AtmWgt=  12.0000000  12.0000000   1.0078250  12.0000000   1.0078250   1.0078250   1.0078250   1.0078250  12.0000000  12.0000000
 NucSpn=           0           0           1           0           1           1           1           1           0           0
 AtZEff=   0.0000000   0.0000000   0.0000000   0.0000000   0.0000000   0.0000000   0.0000000   0.0000000   0.0000000   0.0000000
 NQMom=    0.0000000   0.0000000   0.0000000   0.0000000   0.0000000   0.0000000   0.0000000   0.0000000   0.0000000   0.0000000
 NMagM=    0.0000000   0.0000000   2.7928460   0.0000000   2.7928460   2.7928460   2.7928460   2.7928460   0.0000000   0.0000000
 AtZNuc=   6.0000000   6.0000000   1.0000000   6.0000000   1.0000000   1.0000000   1.0000000   1.0000000   6.0000000   6.0000000

  Atom        31          32          33          34          35          36          37          38          39          40
 IAtWgt=          12          12           1          12           1          12           1           1          12          12
 AtmWgt=  12.0000000  12.0000000   1.0078250  12.0000000   1.0078250  12.0000000   1.0078250   1.0078250  12.0000000  12.0000000
 NucSpn=           0           0           1           0           1           0           1           1           0           0
 AtZEff=   0.0000000   0.0000000   0.0000000   0.0000000   0.0000000   0.0000000   0.0000000   0.0000000   0.0000000   0.0000000
 NQMom=    0.0000000   0.0000000   0.0000000   0.0000000   0.0000000   0.0000000   0.0000000   0.0000000   0.0000000   0.0000000
 NMagM=    0.0000000   0.0000000   2.7928460   0.0000000   2.7928460   0.0000000   2.7928460   2.7928460   0.0000000   0.0000000
 AtZNuc=   6.0000000   6.0000000   1.0000000   6.0000000   1.0000000   6.0000000   1.0000000   1.0000000   6.0000000   6.0000000

  Atom        41          42          43          44          45          46          47          48          49          50
 IAtWgt=          12          12           1          12           1          12           1           1           1          12
 AtmWgt=  12.0000000  12.0000000   1.0078250  12.0000000   1.0078250  12.0000000   1.0078250   1.0078250   1.0078250  12.0000000
 NucSpn=           0           0           1           0           1           0           1           1           1           0
 AtZEff=   0.0000000   0.0000000   0.0000000   0.0000000   0.0000000   0.0000000   0.0000000   0.0000000   0.0000000   0.0000000
 NQMom=    0.0000000   0.0000000   0.0000000   0.0000000   0.0000000   0.0000000   0.0000000   0.0000000   0.0000000   0.0000000
 NMagM=    0.0000000   0.0000000   2.7928460   0.0000000   2.7928460   0.0000000   2.7928460   2.7928460   2.7928460   0.0000000
 AtZNuc=   6.0000000   6.0000000   1.0000000   6.0000000   1.0000000   6.0000000   1.0000000   1.0000000   1.0000000   6.0000000

  Atom        51          52          53          54          55          56          57          58          59          60
 IAtWgt=          12          12          12           1          12           1          12           1           1          12
 AtmWgt=  12.0000000  12.0000000  12.0000000   1.0078250  12.0000000   1.0078250  12.0000000   1.0078250   1.0078250  12.0000000
 NucSpn=           0           0           0           1           0           1           0           1           1           0
 AtZEff=   0.0000000   0.0000000   0.0000000   0.0000000   0.0000000   0.0000000   0.0000000   0.0000000   0.0000000   0.0000000
 NQMom=    0.0000000   0.0000000   0.0000000   0.0000000   0.0000000   0.0000000   0.0000000   0.0000000   0.0000000   0.0000000
 NMagM=    0.0000000   0.0000000   0.0000000   2.7928460   0.0000000   2.7928460   0.0000000   2.7928460   2.7928460   0.0000000
 AtZNuc=   6.0000000   6.0000000   6.0000000   1.0000000   6.0000000   1.0000000   6.0000000   1.0000000   1.0000000   6.0000000

  Atom        61          62          63          64          65          66          67          68          69          70
 IAtWgt=          12          12          12           1          12           1          12           1           1           1
 AtmWgt=  12.0000000  12.0000000  12.0000000   1.0078250  12.0000000   1.0078250  12.0000000   1.0078250   1.0078250   1.0078250
 NucSpn=           0           0           0           1           0           1           0           1           1           1
 AtZEff=   0.0000000   0.0000000   0.0000000   0.0000000   0.0000000   0.0000000   0.0000000   0.0000000   0.0000000   0.0000000
 NQMom=    0.0000000   0.0000000   0.0000000   0.0000000   0.0000000   0.0000000   0.0000000   0.0000000   0.0000000   0.0000000
 NMagM=    0.0000000   0.0000000   0.0000000   2.7928460   0.0000000   2.7928460   0.0000000   2.7928460   2.7928460   2.7928460
 AtZNuc=   6.0000000   6.0000000   6.0000000   1.0000000   6.0000000   1.0000000   6.0000000   1.0000000   1.0000000   1.0000000

  Atom        71          72          73
 IAtWgt=          16           1           1
 AtmWgt=  15.9949146   1.0078250   1.0078250
 NucSpn=           0           1           1
 AtZEff=   0.0000000   0.0000000   0.0000000
 NQMom=    0.0000000   0.0000000   0.0000000
 NMagM=    0.0000000   2.7928460   2.7928460
 AtZNuc=   8.0000000   1.0000000   1.0000000
 Leave Link  101 at Tue Nov 23 23:57:05 2021, MaxMem=  5242880000 cpu:         4.2
 (Enter /opt/nce/packages/global/g09/l103.exe)

 GradGradGradGradGradGradGradGradGradGradGradGradGradGradGradGradGradGrad
 Berny optimization.
 Initialization pass.
                           ----------------------------
                           !    Initial Parameters    !
                           ! (Angstroms and Degrees)  !
 --------------------------                            --------------------------
 ! Name  Definition              Value          Derivative Info.                !
 --------------------------------------------------------------------------------
 ! R1    R(1,2)                  1.3862         estimate D2E/DX2                !
 ! R2    R(1,6)                  1.3892         estimate D2E/DX2                !
 ! R3    R(1,28)                 1.0857         estimate D2E/DX2                !
 ! R4    R(2,3)                  1.3909         estimate D2E/DX2                !
 ! R5    R(2,14)                 1.0822         estimate D2E/DX2                !
 ! R6    R(3,4)                  1.3979         estimate D2E/DX2                !
 ! R7    R(3,17)                 1.3936         estimate D2E/DX2                !
 ! R8    R(4,5)                  1.3732         estimate D2E/DX2                !
 ! R9    R(4,71)                 1.3805         estimate D2E/DX2                !
 ! R10   R(5,6)                  1.3998         estimate D2E/DX2                !
 ! R11   R(5,15)                 1.0842         estimate D2E/DX2                !
 ! R12   R(6,29)                 1.4779         estimate D2E/DX2                !
 ! R13   R(7,8)                  1.3982         estimate D2E/DX2                !
 ! R14   R(7,13)                 1.4227         estimate D2E/DX2                !
 ! R15   R(7,71)                 1.4652         estimate D2E/DX2                !
 ! R16   R(8,9)                  1.3906         estimate D2E/DX2                !
 ! R17   R(8,17)                 1.3934         estimate D2E/DX2                !
 ! R18   R(9,10)                 1.0814         estimate D2E/DX2                !
 ! R19   R(9,11)                 1.3862         estimate D2E/DX2                !
 ! R20   R(11,12)                1.3894         estimate D2E/DX2                !
 ! R21   R(11,16)                1.0828         estimate D2E/DX2                !
 ! R22   R(12,13)                1.4            estimate D2E/DX2                !
 ! R23   R(12,50)                1.4777         estimate D2E/DX2                !
 ! R24   R(13,27)                1.0824         estimate D2E/DX2                !
 ! R25   R(17,18)                1.4291         estimate D2E/DX2                !
 ! R26   R(18,19)                1.3873         estimate D2E/DX2                !
 ! R27   R(18,20)                1.3874         estimate D2E/DX2                !
 ! R28   R(19,21)                1.3872         estimate D2E/DX2                !
 ! R29   R(19,73)                1.0838         estimate D2E/DX2                !
 ! R30   R(20,22)                1.3873         estimate D2E/DX2                !
 ! R31   R(20,23)                1.084          estimate D2E/DX2                !
 ! R32   R(21,24)                1.3889         estimate D2E/DX2                !
 ! R33   R(21,72)                1.0848         estimate D2E/DX2                !
 ! R34   R(22,24)                1.3882         estimate D2E/DX2                !
 ! R35   R(22,25)                1.0826         estimate D2E/DX2                !
 ! R36   R(24,26)                1.0839         estimate D2E/DX2                !
 ! R37   R(29,30)                1.3963         estimate D2E/DX2                !
 ! R38   R(29,31)                1.3934         estimate D2E/DX2                !
 ! R39   R(30,32)                1.382          estimate D2E/DX2                !
 ! R40   R(30,33)                1.0862         estimate D2E/DX2                !
 ! R41   R(31,34)                1.3819         estimate D2E/DX2                !
 ! R42   R(31,35)                1.0894         estimate D2E/DX2                !
 ! R43   R(32,36)                1.3926         estimate D2E/DX2                !
 ! R44   R(32,37)                1.0816         estimate D2E/DX2                !
 ! R45   R(34,36)                1.3956         estimate D2E/DX2                !
 ! R46   R(34,38)                1.0913         estimate D2E/DX2                !
 ! R47   R(36,39)                1.4799         estimate D2E/DX2                !
 ! R48   R(39,40)                1.3952         estimate D2E/DX2                !
 ! R49   R(39,41)                1.4007         estimate D2E/DX2                !
 ! R50   R(40,42)                1.3845         estimate D2E/DX2                !
 ! R51   R(40,43)                1.0818         estimate D2E/DX2                !
 ! R52   R(41,44)                1.3761         estimate D2E/DX2                !
 ! R53   R(41,45)                1.0879         estimate D2E/DX2                !
 ! R54   R(42,46)                1.3926         estimate D2E/DX2                !
 ! R55   R(42,47)                1.0812         estimate D2E/DX2                !
 ! R56   R(44,46)                1.3898         estimate D2E/DX2                !
 ! R57   R(44,48)                1.0828         estimate D2E/DX2                !
 ! R58   R(46,49)                1.0826         estimate D2E/DX2                !
 ! R59   R(50,51)                1.3936         estimate D2E/DX2                !
 ! R60   R(50,52)                1.3994         estimate D2E/DX2                !
 ! R61   R(51,53)                1.3818         estimate D2E/DX2                !
 ! R62   R(51,54)                1.0824         estimate D2E/DX2                !
 ! R63   R(52,55)                1.3817         estimate D2E/DX2                !
 ! R64   R(52,56)                1.0776         estimate D2E/DX2                !
 ! R65   R(53,57)                1.3985         estimate D2E/DX2                !
 ! R66   R(53,58)                1.0848         estimate D2E/DX2                !
 ! R67   R(55,57)                1.393          estimate D2E/DX2                !
 ! R68   R(55,59)                1.0778         estimate D2E/DX2                !
 ! R69   R(57,60)                1.4797         estimate D2E/DX2                !
 ! R70   R(60,61)                1.3952         estimate D2E/DX2                !
 ! R71   R(60,62)                1.3903         estimate D2E/DX2                !
 ! R72   R(61,63)                1.3842         estimate D2E/DX2                !
 ! R73   R(61,64)                1.0857         estimate D2E/DX2                !
 ! R74   R(62,65)                1.3927         estimate D2E/DX2                !
 ! R75   R(62,66)                1.0787         estimate D2E/DX2                !
 ! R76   R(63,67)                1.3826         estimate D2E/DX2                !
 ! R77   R(63,68)                1.0864         estimate D2E/DX2                !
 ! R78   R(65,67)                1.3843         estimate D2E/DX2                !
 ! R79   R(65,69)                1.0855         estimate D2E/DX2                !
 ! R80   R(67,70)                1.0824         estimate D2E/DX2                !
 ! A1    A(2,1,6)              121.1779         estimate D2E/DX2                !
 ! A2    A(2,1,28)             118.5346         estimate D2E/DX2                !
 ! A3    A(6,1,28)             120.2659         estimate D2E/DX2                !
 ! A4    A(1,2,3)              121.0154         estimate D2E/DX2                !
 ! A5    A(1,2,14)             119.3435         estimate D2E/DX2                !
 ! A6    A(3,2,14)             119.6407         estimate D2E/DX2                !
 ! A7    A(2,3,4)              117.687          estimate D2E/DX2                !
 ! A8    A(2,3,17)             122.9974         estimate D2E/DX2                !
 ! A9    A(4,3,17)             119.3154         estimate D2E/DX2                !
 ! A10   A(3,4,5)              121.3307         estimate D2E/DX2                !
 ! A11   A(3,4,71)             121.7166         estimate D2E/DX2                !
 ! A12   A(5,4,71)             116.8972         estimate D2E/DX2                !
 ! A13   A(4,5,6)              121.0547         estimate D2E/DX2                !
 ! A14   A(4,5,15)             117.7135         estimate D2E/DX2                !
 ! A15   A(6,5,15)             121.2258         estimate D2E/DX2                !
 ! A16   A(1,6,5)              117.7307         estimate D2E/DX2                !
 ! A17   A(1,6,29)             121.5098         estimate D2E/DX2                !
 ! A18   A(5,6,29)             120.7591         estimate D2E/DX2                !
 ! A19   A(8,7,13)             117.8379         estimate D2E/DX2                !
 ! A20   A(8,7,71)             115.7933         estimate D2E/DX2                !
 ! A21   A(13,7,71)            108.5816         estimate D2E/DX2                !
 ! A22   A(7,8,9)              115.5791         estimate D2E/DX2                !
 ! A23   A(7,8,17)             119.3284         estimate D2E/DX2                !
 ! A24   A(9,8,17)             122.9719         estimate D2E/DX2                !
 ! A25   A(8,9,10)             119.5977         estimate D2E/DX2                !
 ! A26   A(8,9,11)             121.0116         estimate D2E/DX2                !
 ! A27   A(10,9,11)            119.3879         estimate D2E/DX2                !
 ! A28   A(9,11,12)            121.178          estimate D2E/DX2                !
 ! A29   A(9,11,16)            118.5756         estimate D2E/DX2                !
 ! A30   A(12,11,16)           120.2426         estimate D2E/DX2                !
 ! A31   A(11,12,13)           117.7404         estimate D2E/DX2                !
 ! A32   A(11,12,50)           121.5287         estimate D2E/DX2                !
 ! A33   A(13,12,50)           120.7279         estimate D2E/DX2                !
 ! A34   A(7,13,12)            117.7451         estimate D2E/DX2                !
 ! A35   A(7,13,27)            119.2994         estimate D2E/DX2                !
 ! A36   A(12,13,27)           121.1435         estimate D2E/DX2                !
 ! A37   A(3,17,8)             119.2532         estimate D2E/DX2                !
 ! A38   A(3,17,18)            120.1701         estimate D2E/DX2                !
 ! A39   A(8,17,18)            120.2042         estimate D2E/DX2                !
 ! A40   A(17,18,19)           120.0371         estimate D2E/DX2                !
 ! A41   A(17,18,20)           119.4796         estimate D2E/DX2                !
 ! A42   A(19,18,20)           120.4833         estimate D2E/DX2                !
 ! A43   A(18,19,21)           119.6704         estimate D2E/DX2                !
 ! A44   A(18,19,73)           119.666          estimate D2E/DX2                !
 ! A45   A(21,19,73)           120.6636         estimate D2E/DX2                !
 ! A46   A(18,20,22)           119.7216         estimate D2E/DX2                !
 ! A47   A(18,20,23)           119.1708         estimate D2E/DX2                !
 ! A48   A(22,20,23)           121.1077         estimate D2E/DX2                !
 ! A49   A(19,21,24)           120.0552         estimate D2E/DX2                !
 ! A50   A(19,21,72)           120.0511         estimate D2E/DX2                !
 ! A51   A(24,21,72)           119.8937         estimate D2E/DX2                !
 ! A52   A(20,22,24)           120.0099         estimate D2E/DX2                !
 ! A53   A(20,22,25)           119.6069         estimate D2E/DX2                !
 ! A54   A(24,22,25)           120.3832         estimate D2E/DX2                !
 ! A55   A(21,24,22)           120.0597         estimate D2E/DX2                !
 ! A56   A(21,24,26)           120.1256         estimate D2E/DX2                !
 ! A57   A(22,24,26)           119.8147         estimate D2E/DX2                !
 ! A58   A(6,29,30)            121.1009         estimate D2E/DX2                !
 ! A59   A(6,29,31)            121.2246         estimate D2E/DX2                !
 ! A60   A(30,29,31)           117.6728         estimate D2E/DX2                !
 ! A61   A(29,30,32)           121.0823         estimate D2E/DX2                !
 ! A62   A(29,30,33)           119.5629         estimate D2E/DX2                !
 ! A63   A(32,30,33)           119.3531         estimate D2E/DX2                !
 ! A64   A(29,31,34)           121.2328         estimate D2E/DX2                !
 ! A65   A(29,31,35)           120.0747         estimate D2E/DX2                !
 ! A66   A(34,31,35)           118.687          estimate D2E/DX2                !
 ! A67   A(30,32,36)           121.2033         estimate D2E/DX2                !
 ! A68   A(30,32,37)           119.1116         estimate D2E/DX2                !
 ! A69   A(36,32,37)           119.6851         estimate D2E/DX2                !
 ! A70   A(31,34,36)           121.0565         estimate D2E/DX2                !
 ! A71   A(31,34,38)           118.9947         estimate D2E/DX2                !
 ! A72   A(36,34,38)           119.9401         estimate D2E/DX2                !
 ! A73   A(32,36,34)           117.7506         estimate D2E/DX2                !
 ! A74   A(32,36,39)           121.2354         estimate D2E/DX2                !
 ! A75   A(34,36,39)           121.0125         estimate D2E/DX2                !
 ! A76   A(36,39,40)           120.5275         estimate D2E/DX2                !
 ! A77   A(36,39,41)           120.9941         estimate D2E/DX2                !
 ! A78   A(40,39,41)           118.4784         estimate D2E/DX2                !
 ! A79   A(39,40,42)           120.6091         estimate D2E/DX2                !
 ! A80   A(39,40,43)           119.586          estimate D2E/DX2                !
 ! A81   A(42,40,43)           119.7976         estimate D2E/DX2                !
 ! A82   A(39,41,44)           120.8397         estimate D2E/DX2                !
 ! A83   A(39,41,45)           119.2532         estimate D2E/DX2                !
 ! A84   A(44,41,45)           119.8974         estimate D2E/DX2                !
 ! A85   A(40,42,46)           120.3466         estimate D2E/DX2                !
 ! A86   A(40,42,47)           119.3667         estimate D2E/DX2                !
 ! A87   A(46,42,47)           120.2856         estimate D2E/DX2                !
 ! A88   A(41,44,46)           120.4485         estimate D2E/DX2                !
 ! A89   A(41,44,48)           119.8614         estimate D2E/DX2                !
 ! A90   A(46,44,48)           119.6899         estimate D2E/DX2                !
 ! A91   A(42,46,44)           119.276          estimate D2E/DX2                !
 ! A92   A(42,46,49)           120.1482         estimate D2E/DX2                !
 ! A93   A(44,46,49)           120.5757         estimate D2E/DX2                !
 ! A94   A(12,50,51)           121.2069         estimate D2E/DX2                !
 ! A95   A(12,50,52)           121.0273         estimate D2E/DX2                !
 ! A96   A(51,50,52)           117.765          estimate D2E/DX2                !
 ! A97   A(50,51,53)           121.1479         estimate D2E/DX2                !
 ! A98   A(50,51,54)           120.2523         estimate D2E/DX2                !
 ! A99   A(53,51,54)           118.5934         estimate D2E/DX2                !
 ! A100  A(50,52,55)           121.0776         estimate D2E/DX2                !
 ! A101  A(50,52,56)           119.682          estimate D2E/DX2                !
 ! A102  A(55,52,56)           119.2371         estimate D2E/DX2                !
 ! A103  A(51,53,57)           121.046          estimate D2E/DX2                !
 ! A104  A(51,53,58)           118.8895         estimate D2E/DX2                !
 ! A105  A(57,53,58)           120.0539         estimate D2E/DX2                !
 ! A106  A(52,55,57)           121.1132         estimate D2E/DX2                !
 ! A107  A(52,55,59)           119.1424         estimate D2E/DX2                !
 ! A108  A(57,55,59)           119.7443         estimate D2E/DX2                !
 ! A109  A(53,57,55)           117.8481         estimate D2E/DX2                !
 ! A110  A(53,57,60)           121.0182         estimate D2E/DX2                !
 ! A111  A(55,57,60)           121.1326         estimate D2E/DX2                !
 ! A112  A(57,60,61)           121.0614         estimate D2E/DX2                !
 ! A113  A(57,60,62)           120.705          estimate D2E/DX2                !
 ! A114  A(61,60,62)           118.2336         estimate D2E/DX2                !
 ! A115  A(60,61,63)           121.0456         estimate D2E/DX2                !
 ! A116  A(60,61,64)           119.8665         estimate D2E/DX2                !
 ! A117  A(63,61,64)           119.0783         estimate D2E/DX2                !
 ! A118  A(60,62,65)           120.8126         estimate D2E/DX2                !
 ! A119  A(60,62,66)           120.2498         estimate D2E/DX2                !
 ! A120  A(65,62,66)           118.9301         estimate D2E/DX2                !
 ! A121  A(61,63,67)           120.1403         estimate D2E/DX2                !
 ! A122  A(61,63,68)           119.8101         estimate D2E/DX2                !
 ! A123  A(67,63,68)           120.0484         estimate D2E/DX2                !
 ! A124  A(62,65,67)           120.048          estimate D2E/DX2                !
 ! A125  A(62,65,69)           119.3282         estimate D2E/DX2                !
 ! A126  A(67,65,69)           120.6166         estimate D2E/DX2                !
 ! A127  A(63,67,65)           119.7182         estimate D2E/DX2                !
 ! A128  A(63,67,70)           120.3759         estimate D2E/DX2                !
 ! A129  A(65,67,70)           119.9057         estimate D2E/DX2                !
 ! A130  A(4,71,7)             117.8037         estimate D2E/DX2                !
 ! D1    D(6,1,2,3)             -0.5468         estimate D2E/DX2                !
 ! D2    D(6,1,2,14)           179.235          estimate D2E/DX2                !
 ! D3    D(28,1,2,3)          -178.8611         estimate D2E/DX2                !
 ! D4    D(28,1,2,14)            0.9207         estimate D2E/DX2                !
 ! D5    D(2,1,6,5)              0.3647         estimate D2E/DX2                !
 ! D6    D(2,1,6,29)          -179.8703         estimate D2E/DX2                !
 ! D7    D(28,1,6,5)           178.65           estimate D2E/DX2                !
 ! D8    D(28,1,6,29)           -1.585          estimate D2E/DX2                !
 ! D9    D(1,2,3,4)              0.6168         estimate D2E/DX2                !
 ! D10   D(1,2,3,17)          -179.5179         estimate D2E/DX2                !
 ! D11   D(14,2,3,4)          -179.1644         estimate D2E/DX2                !
 ! D12   D(14,2,3,17)            0.701          estimate D2E/DX2                !
 ! D13   D(2,3,4,5)             -0.5422         estimate D2E/DX2                !
 ! D14   D(2,3,4,71)          -177.7479         estimate D2E/DX2                !
 ! D15   D(17,3,4,5)           179.5873         estimate D2E/DX2                !
 ! D16   D(17,3,4,71)            2.3816         estimate D2E/DX2                !
 ! D17   D(2,3,17,8)          -173.9437         estimate D2E/DX2                !
 ! D18   D(2,3,17,18)           -0.934          estimate D2E/DX2                !
 ! D19   D(4,3,17,8)             5.9196         estimate D2E/DX2                !
 ! D20   D(4,3,17,18)          178.9293         estimate D2E/DX2                !
 ! D21   D(3,4,5,6)              0.39           estimate D2E/DX2                !
 ! D22   D(3,4,5,15)          -178.7342         estimate D2E/DX2                !
 ! D23   D(71,4,5,6)           177.7248         estimate D2E/DX2                !
 ! D24   D(71,4,5,15)           -1.3994         estimate D2E/DX2                !
 ! D25   D(3,4,71,7)             6.3136         estimate D2E/DX2                !
 ! D26   D(5,4,71,7)          -171.0101         estimate D2E/DX2                !
 ! D27   D(4,5,6,1)             -0.2878         estimate D2E/DX2                !
 ! D28   D(4,5,6,29)           179.9453         estimate D2E/DX2                !
 ! D29   D(15,5,6,1)           178.8056         estimate D2E/DX2                !
 ! D30   D(15,5,6,29)           -0.9613         estimate D2E/DX2                !
 ! D31   D(1,6,29,30)          146.2889         estimate D2E/DX2                !
 ! D32   D(1,6,29,31)          -33.2175         estimate D2E/DX2                !
 ! D33   D(5,6,29,30)          -33.9531         estimate D2E/DX2                !
 ! D34   D(5,6,29,31)          146.5405         estimate D2E/DX2                !
 ! D35   D(13,7,8,9)           -33.4213         estimate D2E/DX2                !
 ! D36   D(13,7,8,17)          162.6334         estimate D2E/DX2                !
 ! D37   D(71,7,8,9)          -164.3745         estimate D2E/DX2                !
 ! D38   D(71,7,8,17)           31.6802         estimate D2E/DX2                !
 ! D39   D(8,7,13,12)           34.0348         estimate D2E/DX2                !
 ! D40   D(8,7,13,27)         -161.109          estimate D2E/DX2                !
 ! D41   D(71,7,13,12)         168.1949         estimate D2E/DX2                !
 ! D42   D(71,7,13,27)         -26.949          estimate D2E/DX2                !
 ! D43   D(8,7,71,4)           -22.8679         estimate D2E/DX2                !
 ! D44   D(13,7,71,4)         -158.073          estimate D2E/DX2                !
 ! D45   D(7,8,9,10)          -162.8158         estimate D2E/DX2                !
 ! D46   D(7,8,9,11)            16.5668         estimate D2E/DX2                !
 ! D47   D(17,8,9,10)            0.4821         estimate D2E/DX2                !
 ! D48   D(17,8,9,11)          179.8646         estimate D2E/DX2                !
 ! D49   D(7,8,17,3)           -23.6697         estimate D2E/DX2                !
 ! D50   D(7,8,17,18)          163.323          estimate D2E/DX2                !
 ! D51   D(9,8,17,3)           173.6282         estimate D2E/DX2                !
 ! D52   D(9,8,17,18)            0.6209         estimate D2E/DX2                !
 ! D53   D(8,9,11,12)            0.3265         estimate D2E/DX2                !
 ! D54   D(8,9,11,16)         -178.9659         estimate D2E/DX2                !
 ! D55   D(10,9,11,12)         179.7103         estimate D2E/DX2                !
 ! D56   D(10,9,11,16)           0.4179         estimate D2E/DX2                !
 ! D57   D(9,11,12,13)          -0.4239         estimate D2E/DX2                !
 ! D58   D(9,11,12,50)        -179.8043         estimate D2E/DX2                !
 ! D59   D(16,11,12,13)        178.8567         estimate D2E/DX2                !
 ! D60   D(16,11,12,50)         -0.5236         estimate D2E/DX2                !
 ! D61   D(11,12,13,7)         -16.3864         estimate D2E/DX2                !
 ! D62   D(11,12,13,27)        179.0511         estimate D2E/DX2                !
 ! D63   D(50,12,13,7)         162.9991         estimate D2E/DX2                !
 ! D64   D(50,12,13,27)         -1.5633         estimate D2E/DX2                !
 ! D65   D(11,12,50,51)        147.0381         estimate D2E/DX2                !
 ! D66   D(11,12,50,52)        -33.2998         estimate D2E/DX2                !
 ! D67   D(13,12,50,51)        -32.3239         estimate D2E/DX2                !
 ! D68   D(13,12,50,52)        147.3382         estimate D2E/DX2                !
 ! D69   D(3,17,18,19)         -86.427          estimate D2E/DX2                !
 ! D70   D(3,17,18,20)          93.574          estimate D2E/DX2                !
 ! D71   D(8,17,18,19)          86.5158         estimate D2E/DX2                !
 ! D72   D(8,17,18,20)         -93.4832         estimate D2E/DX2                !
 ! D73   D(17,18,19,21)       -179.9994         estimate D2E/DX2                !
 ! D74   D(17,18,19,73)          0.0073         estimate D2E/DX2                !
 ! D75   D(20,18,19,21)         -0.0004         estimate D2E/DX2                !
 ! D76   D(20,18,19,73)       -179.9937         estimate D2E/DX2                !
 ! D77   D(17,18,20,22)        179.9983         estimate D2E/DX2                !
 ! D78   D(17,18,20,23)          0.0043         estimate D2E/DX2                !
 ! D79   D(19,18,20,22)         -0.0006         estimate D2E/DX2                !
 ! D80   D(19,18,20,23)       -179.9946         estimate D2E/DX2                !
 ! D81   D(18,19,21,24)          0.001          estimate D2E/DX2                !
 ! D82   D(18,19,21,72)       -179.9981         estimate D2E/DX2                !
 ! D83   D(73,19,21,24)        179.9942         estimate D2E/DX2                !
 ! D84   D(73,19,21,72)         -0.0049         estimate D2E/DX2                !
 ! D85   D(18,20,22,24)          0.0011         estimate D2E/DX2                !
 ! D86   D(18,20,22,25)       -179.9975         estimate D2E/DX2                !
 ! D87   D(23,20,22,24)        179.995          estimate D2E/DX2                !
 ! D88   D(23,20,22,25)         -0.0036         estimate D2E/DX2                !
 ! D89   D(19,21,24,22)         -0.0005         estimate D2E/DX2                !
 ! D90   D(19,21,24,26)        179.9989         estimate D2E/DX2                !
 ! D91   D(72,21,24,22)        179.9986         estimate D2E/DX2                !
 ! D92   D(72,21,24,26)         -0.0019         estimate D2E/DX2                !
 ! D93   D(20,22,24,21)         -0.0005         estimate D2E/DX2                !
 ! D94   D(20,22,24,26)       -180.0            estimate D2E/DX2                !
 ! D95   D(25,22,24,21)        179.9981         estimate D2E/DX2                !
 ! D96   D(25,22,24,26)         -0.0014         estimate D2E/DX2                !
 ! D97   D(6,29,30,32)        -179.7704         estimate D2E/DX2                !
 ! D98   D(6,29,30,33)          -0.2441         estimate D2E/DX2                !
 ! D99   D(31,29,30,32)         -0.247          estimate D2E/DX2                !
 ! D100  D(31,29,30,33)        179.2793         estimate D2E/DX2                !
 ! D101  D(6,29,31,34)         179.8005         estimate D2E/DX2                !
 ! D102  D(6,29,31,35)          -1.0632         estimate D2E/DX2                !
 ! D103  D(30,29,31,34)          0.2778         estimate D2E/DX2                !
 ! D104  D(30,29,31,35)        179.414          estimate D2E/DX2                !
 ! D105  D(29,30,32,36)          0.3077         estimate D2E/DX2                !
 ! D106  D(29,30,32,37)       -179.6156         estimate D2E/DX2                !
 ! D107  D(33,30,32,36)       -179.2196         estimate D2E/DX2                !
 ! D108  D(33,30,32,37)          0.8571         estimate D2E/DX2                !
 ! D109  D(29,31,34,36)         -0.3689         estimate D2E/DX2                !
 ! D110  D(29,31,34,38)       -179.2914         estimate D2E/DX2                !
 ! D111  D(35,31,34,36)       -179.5168         estimate D2E/DX2                !
 ! D112  D(35,31,34,38)          1.5607         estimate D2E/DX2                !
 ! D113  D(30,32,36,34)         -0.3769         estimate D2E/DX2                !
 ! D114  D(30,32,36,39)       -179.9423         estimate D2E/DX2                !
 ! D115  D(37,32,36,34)        179.5459         estimate D2E/DX2                !
 ! D116  D(37,32,36,39)         -0.0194         estimate D2E/DX2                !
 ! D117  D(31,34,36,32)          0.4067         estimate D2E/DX2                !
 ! D118  D(31,34,36,39)        179.973          estimate D2E/DX2                !
 ! D119  D(38,34,36,32)        179.3191         estimate D2E/DX2                !
 ! D120  D(38,34,36,39)         -1.1145         estimate D2E/DX2                !
 ! D121  D(32,36,39,40)        -36.7414         estimate D2E/DX2                !
 ! D122  D(32,36,39,41)        143.2713         estimate D2E/DX2                !
 ! D123  D(34,36,39,40)        143.7074         estimate D2E/DX2                !
 ! D124  D(34,36,39,41)        -36.2799         estimate D2E/DX2                !
 ! D125  D(36,39,40,42)       -179.9504         estimate D2E/DX2                !
 ! D126  D(36,39,40,43)         -0.9266         estimate D2E/DX2                !
 ! D127  D(41,39,40,42)          0.0372         estimate D2E/DX2                !
 ! D128  D(41,39,40,43)        179.0611         estimate D2E/DX2                !
 ! D129  D(36,39,41,44)       -179.7808         estimate D2E/DX2                !
 ! D130  D(36,39,41,45)         -0.9134         estimate D2E/DX2                !
 ! D131  D(40,39,41,44)          0.2316         estimate D2E/DX2                !
 ! D132  D(40,39,41,45)        179.099          estimate D2E/DX2                !
 ! D133  D(39,40,42,46)         -0.0495         estimate D2E/DX2                !
 ! D134  D(39,40,42,47)        179.5561         estimate D2E/DX2                !
 ! D135  D(43,40,42,46)       -179.0713         estimate D2E/DX2                !
 ! D136  D(43,40,42,47)          0.5343         estimate D2E/DX2                !
 ! D137  D(39,41,44,46)         -0.4891         estimate D2E/DX2                !
 ! D138  D(39,41,44,48)        179.6753         estimate D2E/DX2                !
 ! D139  D(45,41,44,46)       -179.3493         estimate D2E/DX2                !
 ! D140  D(45,41,44,48)          0.8151         estimate D2E/DX2                !
 ! D141  D(40,42,46,44)         -0.2017         estimate D2E/DX2                !
 ! D142  D(40,42,46,49)        179.9247         estimate D2E/DX2                !
 ! D143  D(47,42,46,44)       -179.8037         estimate D2E/DX2                !
 ! D144  D(47,42,46,49)          0.3228         estimate D2E/DX2                !
 ! D145  D(41,44,46,42)          0.4699         estimate D2E/DX2                !
 ! D146  D(41,44,46,49)       -179.6571         estimate D2E/DX2                !
 ! D147  D(48,44,46,42)       -179.6942         estimate D2E/DX2                !
 ! D148  D(48,44,46,49)          0.1788         estimate D2E/DX2                !
 ! D149  D(12,50,51,53)       -179.87           estimate D2E/DX2                !
 ! D150  D(12,50,51,54)         -0.8033         estimate D2E/DX2                !
 ! D151  D(52,50,51,53)          0.4573         estimate D2E/DX2                !
 ! D152  D(52,50,51,54)        179.524          estimate D2E/DX2                !
 ! D153  D(12,50,52,55)        179.9018         estimate D2E/DX2                !
 ! D154  D(12,50,52,56)         -0.7675         estimate D2E/DX2                !
 ! D155  D(51,50,52,55)         -0.4248         estimate D2E/DX2                !
 ! D156  D(51,50,52,56)        178.9058         estimate D2E/DX2                !
 ! D157  D(50,51,53,57)         -0.4237         estimate D2E/DX2                !
 ! D158  D(50,51,53,58)       -179.2368         estimate D2E/DX2                !
 ! D159  D(54,51,53,57)       -179.5055         estimate D2E/DX2                !
 ! D160  D(54,51,53,58)          1.6813         estimate D2E/DX2                !
 ! D161  D(50,52,55,57)          0.3584         estimate D2E/DX2                !
 ! D162  D(50,52,55,59)       -179.5698         estimate D2E/DX2                !
 ! D163  D(56,52,55,57)       -178.9751         estimate D2E/DX2                !
 ! D164  D(56,52,55,59)          1.0966         estimate D2E/DX2                !
 ! D165  D(51,53,57,55)          0.332          estimate D2E/DX2                !
 ! D166  D(51,53,57,60)        179.9502         estimate D2E/DX2                !
 ! D167  D(58,53,57,55)        179.1314         estimate D2E/DX2                !
 ! D168  D(58,53,57,60)         -1.2504         estimate D2E/DX2                !
 ! D169  D(52,55,57,53)         -0.3001         estimate D2E/DX2                !
 ! D170  D(52,55,57,60)       -179.9179         estimate D2E/DX2                !
 ! D171  D(59,55,57,53)        179.6277         estimate D2E/DX2                !
 ! D172  D(59,55,57,60)          0.01           estimate D2E/DX2                !
 ! D173  D(53,57,60,61)        -35.0097         estimate D2E/DX2                !
 ! D174  D(53,57,60,62)        144.9777         estimate D2E/DX2                !
 ! D175  D(55,57,60,61)        144.596          estimate D2E/DX2                !
 ! D176  D(55,57,60,62)        -35.4167         estimate D2E/DX2                !
 ! D177  D(57,60,61,63)       -179.9987         estimate D2E/DX2                !
 ! D178  D(57,60,61,64)         -1.1405         estimate D2E/DX2                !
 ! D179  D(62,60,61,63)          0.0136         estimate D2E/DX2                !
 ! D180  D(62,60,61,64)        178.8719         estimate D2E/DX2                !
 ! D181  D(57,60,62,65)        179.7829         estimate D2E/DX2                !
 ! D182  D(57,60,62,66)         -1.2283         estimate D2E/DX2                !
 ! D183  D(61,60,62,65)         -0.2294         estimate D2E/DX2                !
 ! D184  D(61,60,62,66)        178.7594         estimate D2E/DX2                !
 ! D185  D(60,61,63,67)         -0.0319         estimate D2E/DX2                !
 ! D186  D(60,61,63,68)        179.5804         estimate D2E/DX2                !
 ! D187  D(64,61,63,67)       -178.899          estimate D2E/DX2                !
 ! D188  D(64,61,63,68)          0.7133         estimate D2E/DX2                !
 ! D189  D(60,62,65,67)          0.4651         estimate D2E/DX2                !
 ! D190  D(60,62,65,69)        179.496          estimate D2E/DX2                !
 ! D191  D(66,62,65,67)       -178.5369         estimate D2E/DX2                !
 ! D192  D(66,62,65,69)          0.4941         estimate D2E/DX2                !
 ! D193  D(61,63,67,65)          0.2642         estimate D2E/DX2                !
 ! D194  D(61,63,67,70)       -179.8871         estimate D2E/DX2                !
 ! D195  D(68,63,67,65)       -179.3471         estimate D2E/DX2                !
 ! D196  D(68,63,67,70)          0.5016         estimate D2E/DX2                !
 ! D197  D(62,65,67,63)         -0.4779         estimate D2E/DX2                !
 ! D198  D(62,65,67,70)        179.6726         estimate D2E/DX2                !
 ! D199  D(69,65,67,63)       -179.4963         estimate D2E/DX2                !
 ! D200  D(69,65,67,70)          0.6543         estimate D2E/DX2                !
 --------------------------------------------------------------------------------
 Trust Radius=3.00D-01 FncErr=1.00D-07 GrdErr=1.00D-06
 Number of steps in this run=    420 maximum allowed number of steps=    438.
 GradGradGradGradGradGradGradGradGradGradGradGradGradGradGradGradGradGrad

 Leave Link  103 at Tue Nov 23 23:57:05 2021, MaxMem=  5242880000 cpu:         0.3
 (Enter /opt/nce/packages/global/g09/l202.exe)
 Symmetry turned off by external request.
 Stoichiometry    C42H29NO
 Framework group  C1[X(C42H29NO)]
 Deg. of freedom   213
 Full point group                 C1      NOp   1
                          Input orientation:                          
 ---------------------------------------------------------------------
 Center     Atomic      Atomic             Coordinates (Angstroms)
 Number     Number       Type             X           Y           Z
 ---------------------------------------------------------------------
      1          6           0       -3.613493    1.943034   -0.037884
      2          6           0       -2.441862    2.683647   -0.016658
      3          6           0       -1.202258    2.061132    0.085043
      4          6           0       -1.180065    0.665032    0.151551
      5          6           0       -2.340109   -0.069399    0.129020
      6          6           0       -3.588703    0.555684    0.030257
      7          6           0        1.226800    0.732015    0.528121
      8          6           0        1.202254    2.061131    0.094744
      9          6           0        2.441859    2.683645   -0.003360
     10          1           0        2.495101    3.762446   -0.055992
     11          6           0        3.613489    1.943032   -0.022084
     12          6           0        3.588700    0.555682    0.049642
     13          6           0        2.340105   -0.069400    0.150691
     14          1           0       -2.495104    3.762449   -0.083921
     15          1           0       -2.255783   -1.147626    0.204934
     16          1           0        4.557954    2.469238   -0.082509
     17          7           0       -0.000001    2.765109    0.119845
     18          6           0       -0.000002    4.191413    0.030025
     19          6           0        0.003885    4.808993   -1.212236
     20          6           0       -0.003890    4.948702    1.192453
     21          6           0        0.003868    6.193942   -1.290555
     22          6           0       -0.003875    6.333650    1.111108
     23          1           0       -0.006798    4.444018    2.151847
     24          6           0       -0.000004    6.956287   -0.129640
     25          1           0       -0.006872    6.922767    2.019363
     26          1           0       -0.000004    8.038573   -0.189509
     27          1           0        2.255778   -1.147625    0.194664
     28          1           0       -4.557961    2.469241   -0.137312
     29          6           0       -4.833039   -0.241218    0.005353
     30          6           0       -4.872470   -1.498236   -0.601238
     31          6           0       -6.009749    0.238795    0.576677
     32          6           0       -6.037532   -2.241112   -0.628421
     33          1           0       -3.975698   -1.897097   -1.066553
     34          6           0       -7.174434   -0.504495    0.549903
     35          1           0       -6.020859    1.210758    1.068658
     36          6           0       -7.213396   -1.760066   -0.058075
     37          1           0       -6.030491   -3.213798   -1.101400
     38          1           0       -8.078088   -0.088171    0.998281
     39          6           0       -8.461020   -2.555470   -0.085665
     40          6           0       -8.779547   -3.335830   -1.197508
     41          6           0       -9.347968   -2.543870    0.998429
     42          6           0       -9.946797   -4.079823   -1.225541
     43          1           0       -8.114882   -3.346088   -2.050964
     44          6           0      -10.505048   -3.288229    0.971219
     45          1           0       -9.104870   -1.951404    1.877897
     46          6           0      -10.820159   -4.059793   -0.140970
     47          1           0      -10.177319   -4.671856   -2.100374
     48          1           0      -11.176849   -3.271641    1.820226
     49          1           0      -11.732618   -4.641850   -0.166815
     50          6           0        4.833034   -0.241221    0.034595
     51          6           0        4.932399   -1.438306    0.741068
     52          6           0        5.949811    0.178858   -0.696567
     53          6           0        6.097461   -2.181182    0.728295
     54          1           0        4.095573   -1.797222    1.326255
     55          6           0        7.114495   -0.564433   -0.709752
     56          1           0        5.900975    1.090875   -1.268455
     57          6           0        7.213390   -1.760070   -0.001890
     58          1           0        6.130368   -3.113919    1.281179
     59          1           0        7.958200   -0.208059   -1.278005
     60          6           0        8.461011   -2.555476   -0.014256
     61          6           0        8.879438   -3.255929    1.117558
     62          6           0        9.248055   -2.623787   -1.158281
     63          6           0       10.046685   -3.999925    1.105632
     64          1           0        8.294694   -3.206258    2.030961
     65          6           0       10.425131   -3.368150   -1.171030
     66          1           0        8.945033   -2.111245   -2.057725
     67          6           0       10.820143   -4.059807   -0.038870
     68          1           0       10.357131   -4.532031    2.000442
     69          1           0       11.017009   -3.411494   -2.079984
     70          1           0       11.732600   -4.641868   -0.052995
     71          8           0       -0.000001   -0.035798    0.299697
     72          1           0        0.006865    6.683286   -2.258679
     73          1           0        0.006794    4.204530   -2.111761
 ---------------------------------------------------------------------
 Rotational constants (GHZ):      0.0937854      0.0234709      0.0192012
 Leave Link  202 at Tue Nov 23 23:57:05 2021, MaxMem=  5242880000 cpu:         0.1
 (Enter /opt/nce/packages/global/g09/l301.exe)
 Standard basis: def2TZVP (5D, 7F)
 Ernie: Thresh=  0.10000D-02 Tol=  0.10000D-05 Strict=F.
  1538 basis functions,  2476 primitive gaussians,  1758 cartesian basis functions
   148 alpha electrons      148 beta electrons
       nuclear repulsion energy      4215.8575949475 Hartrees.
 IExCor= 1009 DFT=T Ex=PBE Corr=PBE ExCW=0 ScaHFX=  0.000000
 ScaDFX=  1.000000  1.000000  1.000000  1.000000 ScalE2=  1.000000  1.000000
 IRadAn=      5 IRanWt=     -1 IRanGd=            0 ICorTp=0 IEmpDi=141
 NAtoms=   73 NActive=   73 NUniq=   73 SFac= 1.00D+00 NAtFMM=   60 NAOKFM=T Big=T
 Integral buffers will be    131072 words long.
 Raffenetti 2 integral format.
 Two-electron integral symmetry is turned off.
 R6Disp:  Grimme-D3(BJ) Dispersion energy=       -0.1097086337 Hartrees.
 Nuclear repulsion after empirical dispersion term =     4215.7478863138 Hartrees.
 ------------------------------------------------------------------------------
 Polarizable Continuum Model (PCM)
 =================================
 Model                : PCM (using non-symmetric T matrix).
 Atomic radii         : SMD-Coulomb.
 Polarization charges : Total charges.
 Charge compensation  : None.
 Solution method      : On-the-fly selection.
 Cavity type          : VdW (van der Waals Surface) (Alpha=1.000).
 Cavity algorithm     : GePol (No added spheres)
                        Default sphere list used, NSphG=   73.
                        Lebedev-Laikov grids with approx.  5.0 points / Ang**2.
                        Smoothing algorithm: York/Karplus (Gamma=1.0000).
                        Polarization charges: spherical gaussians, with
                                              point-specific exponents (IZeta= 3).
                        Self-potential: point-specific (ISelfS= 7).
                        Self-field    : sphere-specific E.n sum rule (ISelfD= 2).
 1st derivatives      : Analytical E(r).r(x)/FMM algorithm (CHGder, D1EAlg=3).
                        Cavity 1st derivative terms included.
 Solvent              : n,n-DiMethylAcetamide, Eps=  37.781000 Eps(inf)=   2.067844
 ------------------------------------------------------------------------------
 GePol: Number of generator spheres                  =      73
 GePol: Total number of spheres                      =      73
 GePol: Number of exposed spheres                    =      73 (100.00%)
 GePol: Number of points                             =    5485
 GePol: Average weight of points                     =       0.11
 GePol: Minimum weight of points                     =   0.74D-10
 GePol: Maximum weight of points                     =    0.17992
 GePol: Number of points with low weight             =     306
 GePol: Fraction of low-weight points (<1% of avg)   =       5.58%
 GePol: Cavity surface area                          =    597.791 Ang**2
 GePol: Cavity volume                                =    592.051 Ang**3
 ------------------------------------------------------------------------------
 Atomic radii for non-electrostatic terms: SMD-CDS.
 ------------------------------------------------------------------------------
 PCM non-electrostatic energy =        -0.0113251479 Hartrees.
 Nuclear repulsion after PCM non-electrostatic terms =     4215.7365611659 Hartrees.
 Leave Link  301 at Tue Nov 23 23:57:06 2021, MaxMem=  5242880000 cpu:         3.4
 (Enter /opt/nce/packages/global/g09/l302.exe)
 NPDir=0 NMtPBC=     1 NCelOv=     1 NCel=       1 NClECP=     1 NCelD=      1
         NCelK=      1 NCelE2=     1 NClLst=     1 CellRange=     0.0.
 One-electron integrals computed using PRISM.
   1 Symmetry operations used in ECPInt.
 ECPInt:  NShTT=  180300 NPrTT=  557040 LenC2=  104964 LenP2D=  214793.
 LDataN:  DoStor=T MaxTD1= 6 Len=  172
 NBasis=  1538 RedAO= T EigKep=  5.03D-06  NBF=  1538
 NBsUse=  1538 1.00D-06 EigRej= -1.00D+00 NBFU=  1538
 Precomputing XC quadrature grid using
 IXCGrd= 4 IRadAn=           5 IRanWt=          -1 IRanGd=           0 AccXCQ= 0.00D+00.
 Generated NRdTot=       0 NPtTot=           0 NUsed=           0 NTot=          32
 NSgBfM=  1416  1419  1422  1422  1428 MxSgAt=    73 MxSgA2=    73.
 Leave Link  302 at Tue Nov 23 23:57:11 2021, MaxMem=  5242880000 cpu:        66.3
 (Enter /opt/nce/packages/global/g09/l303.exe)
 DipDrv:  MaxL=1.
 Leave Link  303 at Tue Nov 23 23:57:12 2021, MaxMem=  5242880000 cpu:         5.1
 (Enter /opt/nce/packages/global/g09/l401.exe)
 ExpMin= 9.52D-02 ExpMax= 2.70D+04 ExpMxC= 9.22D+02 IAcc=3 IRadAn=         5 AccDes= 0.00D+00
 Harris functional with IExCor= 1009 and IRadAn=       5 diagonalized for initial guess.
 HarFok:  IExCor= 1009 AccDes= 0.00D+00 IRadAn=         5 IDoV= 1 UseB2=F ITyADJ=14
 ICtDFT=  3500011 ScaDFX=  1.000000  1.000000  1.000000  1.000000
 FoFCou: FMM=F IPFlag=           0 FMFlag=      100000 FMFlg1=        2001
         NFxFlg=           0 DoJE=T BraDBF=F KetDBF=T FulRan=T
         wScrn=  0.000000 ICntrl=     500 IOpCl=  0 I1Cent=   200000004 NGrid=           0
         NMat0=    1 NMatS0=      1 NMatT0=    0 NMatD0=    1 NMtDS0=    0 NMtDT0=    0
 Symmetry not used in FoFCou.
 Harris En= -1747.16773395616    
 JPrj=0 DoOrth=F DoCkMO=F.
 Leave Link  401 at Tue Nov 23 23:57:27 2021, MaxMem=  5242880000 cpu:       187.8
 (Enter /opt/nce/packages/global/g09/l502.exe)
 Closed shell SCF:
 Using DIIS extrapolation, IDIIS=  1040.
 Two-electron integral symmetry not used.
 IVT=     9322032 IEndB=     9322032 NGot=  5242880000 MDV=  5236666931
 LenX=  5236666931 LenY=  5233574609
 Requested convergence on RMS density matrix=1.00D-08 within 128 cycles.
 Requested convergence on MAX density matrix=1.00D-06.
 Requested convergence on             energy=1.00D-06.
 No special actions if energy rises.
 Fock matrices will be formed incrementally for  20 cycles.

 Cycle   1  Pass 1  IDiag  1:
 FoFJK:  IHMeth= 1 ICntrl=     500 DoSepK=F KAlg= 0 I1Cent=   0 FoldK=F
 IRaf= 520000000 NMat=   1 IRICut=       1 DoRegI=T DoRafI=F ISym2E= 0.
 FoFCou: FMM=T IPFlag=           0 FMFlag=      100000 FMFlg1=        2001
         NFxFlg=           0 DoJE=T BraDBF=F KetDBF=F FulRan=T
         wScrn=  0.000000 ICntrl=     500 IOpCl=  0 I1Cent=           0 NGrid=           0
         NMat0=    1 NMatS0=      1 NMatT0=    0 NMatD0=    1 NMtDS0=    0 NMtDT0=    0
 Symmetry not used in FoFCou.
 FMM levels:  10  Number of levels for PrismC:   9
 Inv3:  Mode=1 IEnd=    90255675.
 Iteration    1 A*A^-1 deviation from unit magnitude is 7.55D-15 for   5480.
 Iteration    1 A*A^-1 deviation from orthogonality  is 3.15D-15 for   2784   1044.
 Iteration    1 A^-1*A deviation from unit magnitude is 7.11D-15 for   5480.
 Iteration    1 A^-1*A deviation from orthogonality  is 1.59D-10 for   1432   1431.
 Iteration    2 A*A^-1 deviation from unit magnitude is 3.33D-15 for   2568.
 Iteration    2 A*A^-1 deviation from orthogonality  is 3.94D-15 for   3441    119.
 Iteration    2 A^-1*A deviation from unit magnitude is 1.11D-15 for    384.
 Iteration    2 A^-1*A deviation from orthogonality  is 5.63D-16 for   5461    503.
 E= -1745.63144922011    
 DIIS: error= 1.62D-02 at cycle   1 NSaved=   1.
 NSaved= 1 IEnMin= 1 EnMin= -1745.63144922011     IErMin= 1 ErrMin= 1.62D-02
 ErrMax= 1.62D-02  0.00D+00 EMaxC= 1.00D-01 BMatC= 7.82D-01 BMatP= 7.82D-01
 IDIUse=3 WtCom= 8.38D-01 WtEn= 1.62D-01
 Coeff-Com:  0.100D+01
 Coeff-En:   0.100D+01
 Coeff:      0.100D+01
 Gap=     0.134 Goal=   None    Shift=    0.000
 GapD=    0.134 DampG=1.000 DampE=0.500 DampFc=0.5000 IDamp=-1.
 Damping current iteration by 5.00D-01
 RMSDP=2.74D-03 MaxDP=5.05D-01              OVMax= 2.66D-01

 Cycle   2  Pass 1  IDiag  1:
 RMSU=  1.37D-03    CP:  9.93D-01
 E= -1745.87538037244     Delta-E=       -0.243931152332 Rises=F Damp=T
 DIIS: error= 5.08D-03 at cycle   2 NSaved=   2.
 NSaved= 2 IEnMin= 2 EnMin= -1745.87538037244     IErMin= 2 ErrMin= 5.08D-03
 ErrMax= 5.08D-03  0.00D+00 EMaxC= 1.00D-01 BMatC= 1.03D-01 BMatP= 7.82D-01
 IDIUse=3 WtCom= 9.49D-01 WtEn= 5.08D-02
 Coeff-Com:  0.173D+00 0.827D+00
 Coeff-En:   0.320D+00 0.680D+00
 Coeff:      0.181D+00 0.819D+00
 Gap=     0.122 Goal=   None    Shift=    0.000
 RMSDP=1.74D-03 MaxDP=5.08D-01 DE=-2.44D-01 OVMax= 5.29D-01

 Cycle   3  Pass 1  IDiag  1:
 RMSU=  1.70D-03    CP:  1.02D+00  1.28D+00
 E= -1746.19168700257     Delta-E=       -0.316306630128 Rises=F Damp=F
 DIIS: error= 9.51D-03 at cycle   3 NSaved=   3.
 NSaved= 3 IEnMin= 3 EnMin= -1746.19168700257     IErMin= 2 ErrMin= 5.08D-03
 ErrMax= 9.51D-03  0.00D+00 EMaxC= 1.00D-01 BMatC= 2.23D-01 BMatP= 1.03D-01
 IDIUse=3 WtCom= 9.30D-02 WtEn= 9.07D-01
 Coeff-Com:  0.405D-01 0.594D+00 0.366D+00
 Coeff-En:   0.000D+00 0.151D+00 0.849D+00
 Coeff:      0.377D-02 0.192D+00 0.804D+00
 Gap=     0.130 Goal=   None    Shift=    0.000
 RMSDP=2.44D-03 MaxDP=7.42D-01 DE=-3.16D-01 OVMax= 3.74D-01

 Cycle   4  Pass 1  IDiag  1:
 RMSU=  7.13D-04    CP:  9.55D-01  4.48D-01 -1.87D-01
 E= -1745.43717236930     Delta-E=        0.754514633264 Rises=F Damp=F
 DIIS: error= 1.99D-02 at cycle   4 NSaved=   4.
 NSaved= 4 IEnMin= 3 EnMin= -1746.19168700257     IErMin= 2 ErrMin= 5.08D-03
 ErrMax= 1.99D-02  0.00D+00 EMaxC= 1.00D-01 BMatC= 9.21D-01 BMatP= 1.03D-01
 IDIUse=2 WtCom= 0.00D+00 WtEn= 1.00D+00
 Coeff-En:   0.000D+00 0.000D+00 0.723D+00 0.277D+00
 Coeff:      0.000D+00 0.000D+00 0.723D+00 0.277D+00
 Gap=     0.104 Goal=   None    Shift=    0.000
 RMSDP=7.68D-04 MaxDP=1.68D-01 DE= 7.55D-01 OVMax= 2.25D-01

 Cycle   5  Pass 1  IDiag  1:
 RMSU=  2.64D-04    CP:  9.78D-01  6.37D-01  1.42D-01  4.91D-01
 E= -1746.38752213585     Delta-E=       -0.950349766542 Rises=F Damp=F
 DIIS: error= 4.68D-03 at cycle   5 NSaved=   5.
 NSaved= 5 IEnMin= 5 EnMin= -1746.38752213585     IErMin= 5 ErrMin= 4.68D-03
 ErrMax= 4.68D-03  0.00D+00 EMaxC= 1.00D-01 BMatC= 5.67D-02 BMatP= 1.03D-01
 IDIUse=3 WtCom= 9.53D-01 WtEn= 4.68D-02
 Coeff-Com:  0.985D-02 0.150D-01 0.289D+00-0.400D-01 0.726D+00
 Coeff-En:   0.000D+00 0.000D+00 0.268D+00 0.000D+00 0.732D+00
 Coeff:      0.939D-02 0.143D-01 0.288D+00-0.381D-01 0.726D+00
 Gap=     0.082 Goal=   None    Shift=    0.000
 RMSDP=5.49D-04 MaxDP=1.67D-01 DE=-9.50D-01 OVMax= 1.18D-01

 Cycle   6  Pass 1  IDiag  1:
 RMSU=  9.17D-05    CP:  9.93D-01  8.34D-01  4.06D-01  3.12D-01  9.67D-01
 E= -1746.44574445170     Delta-E=       -0.058222315857 Rises=F Damp=F
 DIIS: error= 1.37D-03 at cycle   6 NSaved=   6.
 NSaved= 6 IEnMin= 6 EnMin= -1746.44574445170     IErMin= 6 ErrMin= 1.37D-03
 ErrMax= 1.37D-03  0.00D+00 EMaxC= 1.00D-01 BMatC= 3.83D-03 BMatP= 5.67D-02
 IDIUse=3 WtCom= 9.86D-01 WtEn= 1.37D-02
 Coeff-Com:  0.212D-02-0.145D-02 0.140D+00-0.620D-01 0.509D+00 0.412D+00
 Coeff-En:   0.000D+00 0.000D+00 0.000D+00 0.000D+00 0.000D+00 0.100D+01
 Coeff:      0.210D-02-0.143D-02 0.138D+00-0.611D-01 0.502D+00 0.420D+00
 Gap=     0.079 Goal=   None    Shift=    0.000
 RMSDP=8.82D-05 MaxDP=2.66D-02 DE=-5.82D-02 OVMax= 1.67D-02

 Cycle   7  Pass 1  IDiag  1:
 RMSU=  2.77D-05    CP:  9.91D-01  8.00D-01  3.73D-01  3.15D-01  1.01D+00
                    CP:  5.80D-01
 E= -1746.44964323454     Delta-E=       -0.003898782837 Rises=F Damp=F
 DIIS: error= 2.77D-04 at cycle   7 NSaved=   7.
 NSaved= 7 IEnMin= 7 EnMin= -1746.44964323454     IErMin= 7 ErrMin= 2.77D-04
 ErrMax= 2.77D-04  0.00D+00 EMaxC= 1.00D-01 BMatC= 1.88D-04 BMatP= 3.83D-03
 IDIUse=3 WtCom= 9.97D-01 WtEn= 2.77D-03
 Coeff-Com:  0.105D-02 0.180D-02 0.622D-01-0.308D-01 0.224D+00 0.240D+00
 Coeff-Com:  0.501D+00
 Coeff-En:   0.000D+00 0.000D+00 0.000D+00 0.000D+00 0.000D+00 0.000D+00
 Coeff-En:   0.100D+01
 Coeff:      0.105D-02 0.180D-02 0.620D-01-0.307D-01 0.224D+00 0.240D+00
 Coeff:      0.503D+00
 Gap=     0.079 Goal=   None    Shift=    0.000
 RMSDP=2.81D-05 MaxDP=8.34D-03 DE=-3.90D-03 OVMax= 5.44D-03

 Cycle   8  Pass 1  IDiag  1:
 RMSU=  1.05D-05    CP:  9.92D-01  8.11D-01  3.84D-01  3.11D-01  9.99D-01
                    CP:  6.40D-01  6.99D-01
 E= -1746.44979237879     Delta-E=       -0.000149144246 Rises=F Damp=F
 DIIS: error= 1.05D-04 at cycle   8 NSaved=   8.
 NSaved= 8 IEnMin= 8 EnMin= -1746.44979237879     IErMin= 8 ErrMin= 1.05D-04
 ErrMax= 1.05D-04  0.00D+00 EMaxC= 1.00D-01 BMatC= 4.08D-05 BMatP= 1.88D-04
 IDIUse=3 WtCom= 9.99D-01 WtEn= 1.05D-03
 Coeff-Com:  0.459D-03 0.112D-02 0.129D-01-0.659D-02 0.359D-01 0.698D-01
 Coeff-Com:  0.345D+00 0.541D+00
 Coeff-En:   0.000D+00 0.000D+00 0.000D+00 0.000D+00 0.000D+00 0.000D+00
 Coeff-En:   0.170D+00 0.830D+00
 Coeff:      0.458D-03 0.112D-02 0.128D-01-0.659D-02 0.358D-01 0.698D-01
 Coeff:      0.345D+00 0.542D+00
 Gap=     0.078 Goal=   None    Shift=    0.000
 RMSDP=1.15D-05 MaxDP=3.61D-03 DE=-1.49D-04 OVMax= 2.54D-03

 Cycle   9  Pass 1  IDiag  1:
 RMSU=  3.69D-06    CP:  9.92D-01  8.06D-01  3.79D-01  3.11D-01  1.01D+00
                    CP:  6.31D-01  8.43D-01  6.67D-01
 E= -1746.44982669237     Delta-E=       -0.000034313585 Rises=F Damp=F
 DIIS: error= 3.36D-05 at cycle   9 NSaved=   9.
 NSaved= 9 IEnMin= 9 EnMin= -1746.44982669237     IErMin= 9 ErrMin= 3.36D-05
 ErrMax= 3.36D-05  0.00D+00 EMaxC= 1.00D-01 BMatC= 5.39D-06 BMatP= 4.08D-05
 IDIUse=1 WtCom= 1.00D+00 WtEn= 0.00D+00
 Coeff-Com:  0.229D-03 0.531D-03 0.319D-02-0.135D-02 0.246D-02 0.232D-01
 Coeff-Com:  0.181D+00 0.359D+00 0.432D+00
 Coeff:      0.229D-03 0.531D-03 0.319D-02-0.135D-02 0.246D-02 0.232D-01
 Coeff:      0.181D+00 0.359D+00 0.432D+00
 Gap=     0.078 Goal=   None    Shift=    0.000
 RMSDP=8.31D-06 MaxDP=2.80D-03 DE=-3.43D-05 OVMax= 1.04D-03

 Cycle  10  Pass 1  IDiag  1:
 RMSU=  1.33D-06    CP:  9.92D-01  8.10D-01  3.83D-01  3.10D-01  1.00D+00
                    CP:  6.41D-01  8.06D-01  7.21D-01  5.05D-01
 E= -1746.44983147947     Delta-E=       -0.000004787095 Rises=F Damp=F
 DIIS: error= 1.31D-05 at cycle  10 NSaved=  10.
 NSaved=10 IEnMin=10 EnMin= -1746.44983147947     IErMin=10 ErrMin= 1.31D-05
 ErrMax= 1.31D-05  0.00D+00 EMaxC= 1.00D-01 BMatC= 5.03D-07 BMatP= 5.39D-06
 IDIUse=1 WtCom= 1.00D+00 WtEn= 0.00D+00
 Coeff-Com:  0.973D-04 0.295D-04 0.779D-03-0.121D-03-0.206D-02 0.705D-02
 Coeff-Com:  0.756D-01 0.164D+00 0.280D+00 0.475D+00
 Coeff:      0.973D-04 0.295D-04 0.779D-03-0.121D-03-0.206D-02 0.705D-02
 Coeff:      0.756D-01 0.164D+00 0.280D+00 0.475D+00
 Gap=     0.078 Goal=   None    Shift=    0.000
 RMSDP=1.50D-06 MaxDP=5.00D-04 DE=-4.79D-06 OVMax= 3.18D-04

 Cycle  11  Pass 1  IDiag  1:
 RMSU=  4.05D-07    CP:  9.92D-01  8.09D-01  3.83D-01  3.10D-01  1.00D+00
                    CP:  6.40D-01  8.18D-01  7.04D-01  5.89D-01  6.91D-01
 E= -1746.44983192094     Delta-E=       -0.000000441471 Rises=F Damp=F
 DIIS: error= 3.88D-06 at cycle  11 NSaved=  11.
 NSaved=11 IEnMin=11 EnMin= -1746.44983192094     IErMin=11 ErrMin= 3.88D-06
 ErrMax= 3.88D-06  0.00D+00 EMaxC= 1.00D-01 BMatC= 6.23D-08 BMatP= 5.03D-07
 IDIUse=1 WtCom= 1.00D+00 WtEn= 0.00D+00
 Coeff-Com:  0.485D-04-0.171D-04 0.286D-03 0.237D-04-0.161D-02 0.289D-02
 Coeff-Com:  0.363D-01 0.809D-01 0.153D+00 0.326D+00 0.403D+00
 Coeff:      0.485D-04-0.171D-04 0.286D-03 0.237D-04-0.161D-02 0.289D-02
 Coeff:      0.363D-01 0.809D-01 0.153D+00 0.326D+00 0.403D+00
 Gap=     0.078 Goal=   None    Shift=    0.000
 RMSDP=2.35D-07 MaxDP=4.88D-05 DE=-4.41D-07 OVMax= 8.92D-05

 Cycle  12  Pass 1  IDiag  1:
 RMSU=  1.31D-07    CP:  9.92D-01  8.09D-01  3.83D-01  3.10D-01  1.00D+00
                    CP:  6.39D-01  8.17D-01  7.11D-01  5.83D-01  7.11D-01
                    CP:  7.03D-01
 E= -1746.44983198502     Delta-E=       -0.000000064085 Rises=F Damp=F
 DIIS: error= 1.31D-06 at cycle  12 NSaved=  12.
 NSaved=12 IEnMin=12 EnMin= -1746.44983198502     IErMin=12 ErrMin= 1.31D-06
 ErrMax= 1.31D-06  0.00D+00 EMaxC= 1.00D-01 BMatC= 2.80D-09 BMatP= 6.23D-08
 IDIUse=1 WtCom= 1.00D+00 WtEn= 0.00D+00
 Coeff-Com:  0.213D-04-0.762D-05 0.112D-03 0.218D-04-0.816D-03 0.117D-02
 Coeff-Com:  0.155D-01 0.350D-01 0.683D-01 0.159D+00 0.237D+00 0.484D+00
 Coeff:      0.213D-04-0.762D-05 0.112D-03 0.218D-04-0.816D-03 0.117D-02
 Coeff:      0.155D-01 0.350D-01 0.683D-01 0.159D+00 0.237D+00 0.484D+00
 Gap=     0.078 Goal=   None    Shift=    0.000
 RMSDP=5.00D-08 MaxDP=5.50D-06 DE=-6.41D-08 OVMax= 1.94D-05

 Cycle  13  Pass 1  IDiag  1:
 RMSU=  3.63D-08    CP:  9.92D-01  8.09D-01  3.83D-01  3.10D-01  1.00D+00
                    CP:  6.40D-01  8.17D-01  7.11D-01  5.85D-01  7.13D-01
                    CP:  7.31D-01  8.63D-01
 E= -1746.44983198765     Delta-E=       -0.000000002632 Rises=F Damp=F
 DIIS: error= 7.08D-07 at cycle  13 NSaved=  13.
 NSaved=13 IEnMin=13 EnMin= -1746.44983198765     IErMin=13 ErrMin= 7.08D-07
 ErrMax= 7.08D-07  0.00D+00 EMaxC= 1.00D-01 BMatC= 5.61D-10 BMatP= 2.80D-09
 IDIUse=1 WtCom= 1.00D+00 WtEn= 0.00D+00
 Coeff-Com:  0.571D-05-0.392D-05 0.268D-04 0.104D-04-0.258D-03 0.275D-03
 Coeff-Com:  0.386D-02 0.881D-02 0.180D-01 0.485D-01 0.876D-01 0.333D+00
 Coeff-Com:  0.500D+00
 Coeff:      0.571D-05-0.392D-05 0.268D-04 0.104D-04-0.258D-03 0.275D-03
 Coeff:      0.386D-02 0.881D-02 0.180D-01 0.485D-01 0.876D-01 0.333D+00
 Coeff:      0.500D+00
 Gap=     0.078 Goal=   None    Shift=    0.000
 RMSDP=5.54D-08 MaxDP=1.72D-05 DE=-2.63D-09 OVMax= 6.53D-06

 Cycle  14  Pass 1  IDiag  1:
 RMSU=  1.27D-08    CP:  9.92D-01  8.09D-01  3.83D-01  3.10D-01  1.00D+00
                    CP:  6.40D-01  8.17D-01  7.12D-01  5.85D-01  7.20D-01
                    CP:  7.36D-01  8.82D-01  7.70D-01
 E= -1746.44983198815     Delta-E=       -0.000000000496 Rises=F Damp=F
 DIIS: error= 1.21D-07 at cycle  14 NSaved=  14.
 NSaved=14 IEnMin=14 EnMin= -1746.44983198815     IErMin=14 ErrMin= 1.21D-07
 ErrMax= 1.21D-07  0.00D+00 EMaxC= 1.00D-01 BMatC= 2.81D-11 BMatP= 5.61D-10
 IDIUse=1 WtCom= 1.00D+00 WtEn= 0.00D+00
 Coeff-Com:  0.183D-05-0.189D-05 0.642D-05 0.494D-05-0.967D-04 0.787D-04
 Coeff-Com:  0.117D-02 0.269D-02 0.576D-02 0.169D-01 0.332D-01 0.155D+00
 Coeff-Com:  0.279D+00 0.507D+00
 Coeff:      0.183D-05-0.189D-05 0.642D-05 0.494D-05-0.967D-04 0.787D-04
 Coeff:      0.117D-02 0.269D-02 0.576D-02 0.169D-01 0.332D-01 0.155D+00
 Coeff:      0.279D+00 0.507D+00
 Gap=     0.078 Goal=   None    Shift=    0.000
 RMSDP=6.10D-09 MaxDP=1.38D-06 DE=-4.96D-10 OVMax= 1.68D-06

 Cycle  15  Pass 1  IDiag  1:
 RMSU=  3.60D-09    CP:  9.92D-01  8.09D-01  3.83D-01  3.10D-01  1.00D+00
                    CP:  6.40D-01  8.17D-01  7.11D-01  5.85D-01  7.21D-01
                    CP:  7.39D-01  8.86D-01  7.79D-01  8.18D-01
 E= -1746.44983198825     Delta-E=       -0.000000000104 Rises=F Damp=F
 DIIS: error= 3.77D-08 at cycle  15 NSaved=  15.
 NSaved=15 IEnMin=15 EnMin= -1746.44983198825     IErMin=15 ErrMin= 3.77D-08
 ErrMax= 3.77D-08  0.00D+00 EMaxC= 1.00D-01 BMatC= 5.87D-12 BMatP= 2.81D-11
 IDIUse=1 WtCom= 1.00D+00 WtEn= 0.00D+00
 Coeff-Com:  0.160D-06-0.343D-06 0.774D-07 0.925D-06-0.128D-04 0.484D-05
 Coeff-Com:  0.613D-04 0.144D-03 0.456D-03 0.219D-02 0.573D-02 0.429D-01
 Coeff-Com:  0.938D-01 0.334D+00 0.521D+00
 Coeff:      0.160D-06-0.343D-06 0.774D-07 0.925D-06-0.128D-04 0.484D-05
 Coeff:      0.613D-04 0.144D-03 0.456D-03 0.219D-02 0.573D-02 0.429D-01
 Coeff:      0.938D-01 0.334D+00 0.521D+00
 Gap=     0.078 Goal=   None    Shift=    0.000
 RMSDP=2.25D-09 MaxDP=2.67D-07 DE=-1.04D-10 OVMax= 6.41D-07

 Error on total polarization charges =  0.09595
 SCF Done:  E(RPBE-PBE) =  -1746.44983199     A.U. after   15 cycles
            NFock= 15  Conv=0.23D-08     -V/T= 2.0040
 KE= 1.739428468040D+03 PE=-1.249237607269D+04 EE= 4.790761211493D+03
 SMD-CDS (non-electrostatic) energy       (kcal/mol) =      -7.11
 (included in total energy above)
 Leave Link  502 at Wed Nov 24 00:14:24 2021, MaxMem=  5242880000 cpu:     12094.3
 (Enter /opt/nce/packages/global/g09/l601.exe)
 Copying SCF densities to generalized density rwf, IOpCl= 0 IROHF=0.

 **********************************************************************

            Population analysis using the SCF density.

 **********************************************************************

 Alpha  occ. eigenvalues --  -18.79094 -14.03522  -9.94862  -9.94364  -9.93826
 Alpha  occ. eigenvalues --   -9.93151  -9.92782  -9.89516  -9.89500  -9.89474
 Alpha  occ. eigenvalues --   -9.89420  -9.89419  -9.89393  -9.89314  -9.89243
 Alpha  occ. eigenvalues --   -9.89196  -9.88988  -9.88986  -9.88854  -9.88833
 Alpha  occ. eigenvalues --   -9.88756  -9.88670  -9.88629  -9.88310  -9.88225
 Alpha  occ. eigenvalues --   -9.88209  -9.88183  -9.88165  -9.88157  -9.88150
 Alpha  occ. eigenvalues --   -9.88145  -9.88135  -9.88122  -9.88110  -9.88107
 Alpha  occ. eigenvalues --   -9.88105  -9.88102  -9.88096  -9.88093  -9.88088
 Alpha  occ. eigenvalues --   -9.88066  -9.88062  -9.87948  -9.87886  -0.98020
 Alpha  occ. eigenvalues --   -0.90199  -0.80489  -0.79890  -0.79381  -0.78944
 Alpha  occ. eigenvalues --   -0.78210  -0.77577  -0.76555  -0.72470  -0.71473
 Alpha  occ. eigenvalues --   -0.69781  -0.69436  -0.68996  -0.68411  -0.68112
 Alpha  occ. eigenvalues --   -0.68022  -0.67424  -0.67265  -0.67086  -0.65741
 Alpha  occ. eigenvalues --   -0.64912  -0.63024  -0.59311  -0.59075  -0.56720
 Alpha  occ. eigenvalues --   -0.56287  -0.55653  -0.55558  -0.55462  -0.54295
 Alpha  occ. eigenvalues --   -0.53758  -0.52813  -0.52600  -0.52341  -0.52253
 Alpha  occ. eigenvalues --   -0.51207  -0.49920  -0.48944  -0.47837  -0.47690
 Alpha  occ. eigenvalues --   -0.45418  -0.45304  -0.44196  -0.43431  -0.42999
 Alpha  occ. eigenvalues --   -0.42475  -0.42193  -0.41659  -0.41387  -0.41115
 Alpha  occ. eigenvalues --   -0.40106  -0.39684  -0.39485  -0.39121  -0.38930
 Alpha  occ. eigenvalues --   -0.38763  -0.38717  -0.38622  -0.38376  -0.38084
 Alpha  occ. eigenvalues --   -0.38003  -0.37737  -0.37376  -0.37317  -0.36562
 Alpha  occ. eigenvalues --   -0.36494  -0.35493  -0.35227  -0.34753  -0.34362
 Alpha  occ. eigenvalues --   -0.34059  -0.33958  -0.33852  -0.33217  -0.32947
 Alpha  occ. eigenvalues --   -0.32624  -0.32007  -0.31724  -0.31577  -0.31033
 Alpha  occ. eigenvalues --   -0.30609  -0.30367  -0.30017  -0.29449  -0.29268
 Alpha  occ. eigenvalues --   -0.28976  -0.28734  -0.28505  -0.28267  -0.26578
 Alpha  occ. eigenvalues --   -0.25208  -0.24305  -0.23858  -0.23824  -0.23398
 Alpha  occ. eigenvalues --   -0.23380  -0.23287  -0.23244  -0.23190  -0.21685
 Alpha  occ. eigenvalues --   -0.20151  -0.20002  -0.15814
 Alpha virt. eigenvalues --   -0.07982  -0.06958  -0.06510  -0.05129  -0.04820
 Alpha virt. eigenvalues --   -0.04503  -0.04410  -0.04076  -0.03854  -0.03834
 Alpha virt. eigenvalues --   -0.03363  -0.02349  -0.00423   0.01175   0.03213
[...]
 Alpha virt. eigenvalues --    2.11195   2.11467   2.11833   2.12386   2.13567
 Alpha virt. eigenvalues --    2.14056   2.14225   2.14257   2.14629   2.15100
 Alpha virt. eigenvalues --    2.15793   2.16053   2.16129   2.16336   2.16919
 Alpha virt. eigenvalues --    2.17276   2.17604   2.17940   2.18032   2.18315
 Alpha virt. eigenvalues --    2.19007   2.20424   2.20909   2.21663   2.21833
 Alpha virt. eigenvalues --    2.23051   2.23143   2.23837   2.24124   2.24805
 Alpha virt. eigenvalues --    2.25059   2.25571   2.27340   2.27406   2.29446
 Alpha virt. eigenvalues --    2.29726   2.30289   2.30927   2.31027   2.31504
 Alpha virt. eigenvalues --    2.31668   2.35351   2.35540   2.35730   2.36151
 Alpha virt. eigenvalues --    2.36187   2.38129   2.39115   2.39328   2.39558
 Alpha virt. eigenvalues --    2.40155   2.41020   2.41289   2.41680   2.42039
 Alpha virt. eigenvalues --    2.42364   2.42690   2.43016   2.43163   2.43344
 Alpha virt. eigenvalues --    2.44434   2.45029   2.45754   2.46074   2.46398
 Alpha virt. eigenvalues --    2.46668   2.47555   2.47671   2.48946   2.49134
 Alpha virt. eigenvalues --    2.49720   2.50621   2.50697   2.50959   2.50985
 Alpha virt. eigenvalues --    2.51295   2.51427   2.51761   2.51795   2.53151
 Alpha virt. eigenvalues --    2.53353   2.53621   2.53663   2.53888   2.54185
 Alpha virt. eigenvalues --    2.54673   2.54979   2.55094   2.56063   2.56340
 Alpha virt. eigenvalues --    2.56585   2.57027   2.57054   2.57189   2.57505
 Alpha virt. eigenvalues --    2.58161   2.58409   2.58659   2.58749   2.58837
 Alpha virt. eigenvalues --    2.59060   2.59182   2.59234   2.59518   2.59547
 Alpha virt. eigenvalues --    2.59785   2.59908   2.60505   2.60680   2.60917
 Alpha virt. eigenvalues --    2.61088   2.61514   2.62047   2.62356   2.62489
 Alpha virt. eigenvalues --    2.62555   2.62944   2.63155   2.63467   2.63845
 Alpha virt. eigenvalues --    2.64514   2.64600   2.64796   2.64975   2.65228
 Alpha virt. eigenvalues --    2.65266   2.65848   2.66033   2.66420   2.66792
 Alpha virt. eigenvalues --    2.67158   2.67387   2.67645   2.67725   2.67895
 Alpha virt. eigenvalues --    2.68265   2.68436   2.69332   2.69457   2.69905
 Alpha virt. eigenvalues --    2.70224   2.70245   2.70363   2.70800   2.70938
 Alpha virt. eigenvalues --    2.71379   2.71573   2.71620   2.72089   2.72654
 Alpha virt. eigenvalues --    2.73071   2.73504   2.73547   2.74140   2.74284
 Alpha virt. eigenvalues --    2.74477   2.74700   2.75156   2.75266   2.75459
 Alpha virt. eigenvalues --    2.75779   2.76268   2.76728   2.76753   2.76808
 Alpha virt. eigenvalues --    2.76997   2.77120   2.77479   2.77599   2.77898
 Alpha virt. eigenvalues --    2.78086   2.78187   2.78827   2.79015   2.79071
 Alpha virt. eigenvalues --    2.79224   2.79420   2.79633   2.80016   2.80154
 Alpha virt. eigenvalues --    2.81010   2.81073   2.81274   2.82127   2.82351
 Alpha virt. eigenvalues --    2.82863   2.82998   2.83378   2.83895   2.84506
 Alpha virt. eigenvalues --    2.85279   2.85594   2.86091   2.86342   2.86446
 Alpha virt. eigenvalues --    2.87593   2.88005   2.88544   2.88649   2.88805
 Alpha virt. eigenvalues --    2.90127   2.90310   2.91215   2.91791   2.92400
 Alpha virt. eigenvalues --    2.93038   2.93074   2.93405   2.93875   2.94170
 Alpha virt. eigenvalues --    2.94455   2.94750   2.94839   2.95593   2.95673
 Alpha virt. eigenvalues --    2.96224   2.96397   2.96846   2.97187   2.97953
 Alpha virt. eigenvalues --    2.98245   2.98436   2.98628   2.98942   2.99760
 Alpha virt. eigenvalues --    3.00495   3.00991   3.01007   3.01846   3.02088
 Alpha virt. eigenvalues --    3.02173   3.02793   3.02929   3.03039   3.03409
 Alpha virt. eigenvalues --    3.03469   3.03979   3.04060   3.04204   3.04508
 Alpha virt. eigenvalues --    3.05322   3.05487   3.05532   3.05913   3.06152
 Alpha virt. eigenvalues --    3.06173   3.06829   3.06948   3.07172   3.07311
 Alpha virt. eigenvalues --    3.07398   3.07530   3.07833   3.08239   3.08574
 Alpha virt. eigenvalues --    3.08858   3.09225   3.09479   3.09679   3.09829
 Alpha virt. eigenvalues --    3.10331   3.10584   3.11349   3.11539   3.11766
 Alpha virt. eigenvalues --    3.11969   3.12010   3.12143   3.12203   3.12688
 Alpha virt. eigenvalues --    3.12745   3.12837   3.13107   3.13403   3.13821
 Alpha virt. eigenvalues --    3.14537   3.15313   3.15932   3.16096   3.16593
 Alpha virt. eigenvalues --    3.16836   3.17292   3.17623   3.17703   3.18482
 Alpha virt. eigenvalues --    3.18671   3.18959   3.19080   3.19130   3.19438
 Alpha virt. eigenvalues --    3.19692   3.19861   3.19897   3.20587   3.20631
 Alpha virt. eigenvalues --    3.21745   3.21763   3.21832   3.22538   3.23151
 Alpha virt. eigenvalues --    3.23283   3.23516   3.23809   3.24057   3.24686
 Alpha virt. eigenvalues --    3.24896   3.24927   3.25189   3.25465   3.25879
 Alpha virt. eigenvalues --    3.26153   3.26199   3.26439   3.27069   3.27122
 Alpha virt. eigenvalues --    3.27844   3.28075   3.28218   3.28376   3.28419
 Alpha virt. eigenvalues --    3.29069   3.29252   3.29569   3.29867   3.30266
 Alpha virt. eigenvalues --    3.30303   3.30396   3.30688   3.30827   3.31215
 Alpha virt. eigenvalues --    3.31419   3.31823   3.31922   3.32461   3.32852
 Alpha virt. eigenvalues --    3.32997   3.33479   3.33780   3.34093   3.34136
 Alpha virt. eigenvalues --    3.34303   3.34989   3.35008   3.35503   3.35729
 Alpha virt. eigenvalues --    3.36429   3.36583   3.37143   3.37151   3.37475
 Alpha virt. eigenvalues --    3.37609   3.37820   3.38146   3.38371   3.38705
 Alpha virt. eigenvalues --    3.38771   3.38822   3.39047   3.39130   3.39320
 Alpha virt. eigenvalues --    3.39909   3.40273   3.40551   3.40836   3.41310
 Alpha virt. eigenvalues --    3.41814   3.41906   3.42256   3.42378   3.42735
 Alpha virt. eigenvalues --    3.42948   3.43017   3.43311   3.43580   3.44341
 Alpha virt. eigenvalues --    3.44548   3.44722   3.44852   3.45805   3.45875
 Alpha virt. eigenvalues --    3.46486   3.46655   3.46662   3.46930   3.47396
 Alpha virt. eigenvalues --    3.47698   3.47960   3.48393   3.49148   3.49389
 Alpha virt. eigenvalues --    3.49609   3.50184   3.50535   3.50875   3.51016
 Alpha virt. eigenvalues --    3.52112   3.52179   3.53055   3.53129   3.54143
 Alpha virt. eigenvalues --    3.54366   3.55146   3.55305   3.55943   3.56507
 Alpha virt. eigenvalues --    3.57113   3.57417   3.57819   3.58283   3.58360
 Alpha virt. eigenvalues --    3.58939   3.60358   3.61056   3.61547   3.61892
 Alpha virt. eigenvalues --    3.62843   3.63006   3.63518   3.64866   3.66553
 Alpha virt. eigenvalues --    3.67316   3.68087   3.68241   3.68518   3.68934
 Alpha virt. eigenvalues --    3.69007   3.69801   3.70634   3.71464   3.71598
 Alpha virt. eigenvalues --    3.72024   3.72321   3.73237   3.73755   3.74578
 Alpha virt. eigenvalues --    3.76146   3.76617   3.77188   3.77406   3.78335
 Alpha virt. eigenvalues --    3.79539   3.79726   3.81224   3.82495   3.82715
 Alpha virt. eigenvalues --    3.83234   3.83889   3.84356   3.84483   3.84706
 Alpha virt. eigenvalues --    3.85857   3.86230   3.87290   3.87796   3.87962
 Alpha virt. eigenvalues --    3.89408   3.89758   3.90120   3.90232   3.90736
 Alpha virt. eigenvalues --    3.92246   3.92448   3.92666   3.92951   3.93350
 Alpha virt. eigenvalues --    3.93384   3.94493   3.95063   3.95122   3.95798
 Alpha virt. eigenvalues --    3.95944   3.96888   3.97659   3.98851   3.99143
 Alpha virt. eigenvalues --    3.99433   4.00077   4.00638   4.01114   4.02378
 Alpha virt. eigenvalues --    4.02618   4.03196   4.03276   4.04739   4.04804
 Alpha virt. eigenvalues --    4.05171   4.05398   4.06775   4.06825   4.07103
 Alpha virt. eigenvalues --    4.08110   4.08506   4.08548   4.09442   4.09596
 Alpha virt. eigenvalues --    4.09787   4.10027   4.10062   4.10340   4.10652
 Alpha virt. eigenvalues --    4.10853   4.11033   4.11105   4.11789   4.12182
 Alpha virt. eigenvalues --    4.12451   4.12701   4.12977   4.13076   4.13115
 Alpha virt. eigenvalues --    4.13961   4.14105   4.14466   4.14529   4.14776
 Alpha virt. eigenvalues --    4.15034   4.15479   4.15582   4.16034   4.16685
 Alpha virt. eigenvalues --    4.16938   4.17264   4.17914   4.18423   4.18656
 Alpha virt. eigenvalues --    4.18696   4.18823   4.19471   4.19806   4.19925
 Alpha virt. eigenvalues --    4.20091   4.20898   4.22210   4.22297   4.22937
 Alpha virt. eigenvalues --    4.23491   4.23810   4.24713   4.25046   4.26820
 Alpha virt. eigenvalues --    4.27639   4.28071   4.29287   4.30073   4.30321
 Alpha virt. eigenvalues --    4.30611   4.32835   4.33470   4.33800   4.35285
 Alpha virt. eigenvalues --    4.35711   4.37156   4.38924   4.39945   4.41303
 Alpha virt. eigenvalues --    4.42559   4.42640   4.44642   4.46953   4.47695
 Alpha virt. eigenvalues --    4.48663   4.48846   4.50018   4.51097   4.51919
 Alpha virt. eigenvalues --    4.52106   4.52841   4.53902   4.54290   4.54666
 Alpha virt. eigenvalues --    4.55324   4.55492   4.56398   4.56923   4.57140
 Alpha virt. eigenvalues --    4.58511   4.58526   4.58646   4.58985   4.60828
 Alpha virt. eigenvalues --    4.62280   4.62352   4.63142   4.63608   4.64214
 Alpha virt. eigenvalues --    4.66116   4.66207   4.67665   4.67695   4.68924
 Alpha virt. eigenvalues --    4.70333   4.70917   4.71225   4.72186   4.73172
 Alpha virt. eigenvalues --    4.76113   4.76288   4.76457   4.77919   4.79015
 Alpha virt. eigenvalues --    4.81458   4.81895   4.81905   4.83788   4.83850
 Alpha virt. eigenvalues --    4.84721   4.84777   4.85302   4.85559   4.86067
 Alpha virt. eigenvalues --    4.86333   4.89439   4.89942   4.90965   4.91109
 Alpha virt. eigenvalues --    4.91588   4.92840   4.94237   4.95214   4.97296
 Alpha virt. eigenvalues --    4.97495   4.99208   5.00146   5.02441   5.02447
 Alpha virt. eigenvalues --    5.06172   5.09127   5.09705   5.10515   5.11058
 Alpha virt. eigenvalues --    5.12187   5.13336   5.14593   5.14726   5.16139
 Alpha virt. eigenvalues --    5.16346   5.18444   5.19059   5.19916   5.22831
 Alpha virt. eigenvalues --    5.24307   5.25480   5.25547   5.25836   5.28227
 Alpha virt. eigenvalues --    5.28413   5.30480   5.35703   5.37751   5.39423
 Alpha virt. eigenvalues --    5.39629   5.39980   5.41276   5.42590   5.44098
 Alpha virt. eigenvalues --    5.44607   5.44943   5.46073   5.46308   5.49274
 Alpha virt. eigenvalues --    5.50235   5.53246   5.54236   5.55972   5.57918
 Alpha virt. eigenvalues --    5.58475   5.60861   5.63117   5.67264   5.69622
 Alpha virt. eigenvalues --    5.76965   5.78299   5.78690   5.83471   5.90554
 Alpha virt. eigenvalues --    6.00973   6.01118   6.10089   6.14230   6.42301
 Alpha virt. eigenvalues --    6.49865   6.69966   6.74518   6.76005   7.31666
 Alpha virt. eigenvalues --    7.38450  21.73269  21.78098  22.00739  22.05868
 Alpha virt. eigenvalues --   22.09647  22.18260  22.21393  22.28915  22.29005
 Alpha virt. eigenvalues --   22.30260  22.31741  22.31770  22.34810  22.41879
 Alpha virt. eigenvalues --   22.42863  22.44910  22.45176  22.45486  22.45693
 Alpha virt. eigenvalues --   22.45916  22.47513  22.47722  22.48627  22.48866
 Alpha virt. eigenvalues --   22.53420  22.54164  22.55561  22.56973  22.59358
 Alpha virt. eigenvalues --   22.60269  22.63325  22.66269  22.77275  22.78238
 Alpha virt. eigenvalues --   22.81646  22.92967  22.93860  22.94878  23.09371
 Alpha virt. eigenvalues --   23.14318  23.20472  23.29564  32.98121  44.11914
          Condensed to atoms (all electrons):
 Mulliken charges:
               1
     1  C   -0.263256
     2  C   -0.212538
     3  C    0.026700
     4  C    0.226220
     5  C   -0.387011
     6  C    0.208281
     7  C    0.225758
     8  C    0.027366
     9  C   -0.212076
    10  H    0.157134
    11  C   -0.264066
    12  C    0.209269
    13  C   -0.388563
    14  H    0.157098
    15  H    0.124985
    16  H    0.141349
    17  N    0.212065
    18  C    0.032765
    19  C   -0.200949
    20  C   -0.200529
    21  C   -0.118325
    22  C   -0.118647
    23  H    0.144495
    24  C   -0.116067
    25  H    0.147155
    26  H    0.148612
    27  H    0.125341
    28  H    0.141019
    29  C    0.128747
    30  C   -0.214581
    31  C   -0.218796
    32  C   -0.222548
    33  H    0.140631
    34  C   -0.221402
    35  H    0.139918
    36  C    0.189015
    37  H    0.141172
    38  H    0.141269
    39  C    0.115525
    40  C   -0.219694
    41  C   -0.219973
    42  C   -0.150980
    43  H    0.144761
    44  C   -0.150970
    45  H    0.144488
    46  C   -0.140876
    47  H    0.142854
    48  H    0.142811
    49  H    0.144360
    50  C    0.128763
    51  C   -0.214981
    52  C   -0.219309
    53  C   -0.223060
    54  H    0.140884
    55  C   -0.222099
    56  H    0.140259
    57  C    0.189862
    58  H    0.141535
    59  H    0.141634
    60  C    0.116487
    61  C   -0.220621
    62  C   -0.220985
    63  C   -0.150754
    64  H    0.145057
    65  C   -0.150881
    66  H    0.144823
    67  C   -0.140854
    68  H    0.142846
    69  H    0.142824
    70  H    0.144400
    71  O   -0.176806
    72  H    0.147228
    73  H    0.144433
 Sum of Mulliken charges =  -0.00000
 Mulliken charges with hydrogens summed into heavy atoms:
               1
     1  C   -0.122236
     2  C   -0.055440
     3  C    0.026700
     4  C    0.226220
     5  C   -0.262026
     6  C    0.208281
     7  C    0.225758
     8  C    0.027366
     9  C   -0.054942
    11  C   -0.122717
    12  C    0.209269
    13  C   -0.263223
    17  N    0.212065
    18  C    0.032765
    19  C   -0.056516
    20  C   -0.056035
    21  C    0.028904
    22  C    0.028509
    24  C    0.032545
    29  C    0.128747
    30  C   -0.073949
    31  C   -0.078878
    32  C   -0.081376
    34  C   -0.080133
    36  C    0.189015
    39  C    0.115525
    40  C   -0.074933
    41  C   -0.075485
    42  C   -0.008126
    44  C   -0.008159
    46  C    0.003484
    50  C    0.128763
    51  C   -0.074097
    52  C   -0.079050
    53  C   -0.081525
    55  C   -0.080465
    57  C    0.189862
    60  C    0.116487
    61  C   -0.075564
    62  C   -0.076162
    63  C   -0.007909
    65  C   -0.008057
    67  C    0.003545
    71  O   -0.176806
 Electronic spatial extent (au):  <R**2>=          52094.8755
 Charge=              0.0000 electrons
 Dipole moment (field-independent basis, Debye):
    X=             -0.0138    Y=              4.4148    Z=              0.0558  Tot=              4.4152
 Quadrupole moment (field-independent basis, Debye-Ang):
   XX=           -242.2953   YY=           -208.5136   ZZ=           -246.3081
   XY=              0.4067   XZ=             -7.8575   YZ=              0.1119
 Traceless Quadrupole moment (field-independent basis, Debye-Ang):
   XX=             -9.9230   YY=             23.8587   ZZ=            -13.9357
   XY=              0.4067   XZ=             -7.8575   YZ=              0.1119
 Octapole moment (field-independent basis, Debye-Ang**2):
  XXX=              5.8387  YYY=            232.0647  ZZZ=              0.2032  XYY=              2.4195
  XXY=           -152.9555  XXZ=             -0.7300  XZZ=             -6.2934  YZZ=             10.3853
  YYZ=              2.2533  XYZ=            -82.7349
 Hexadecapole moment (field-independent basis, Debye-Ang**3):
 XXXX=         -53964.6015 YYYY=         -12377.8477 ZZZZ=          -1026.2914 XXXY=             63.0483
 XXXZ=          -1604.1582 YYYX=            -24.1323 YYYZ=             -5.6101 ZZZX=            -18.9412
 ZZZY=              1.6136 XXYY=         -11078.5156 XXZZ=          -9577.3202 YYZZ=          -2288.1592
 XXYZ=            -10.7537 YYXZ=            446.4130 ZZXY=             16.5385
 N-N= 4.190585737536D+03 E-N=-1.244066682521D+04  KE= 1.738053770112D+03
 Leave Link  601 at Wed Nov 24 15:33:58 2021, MaxMem=  5242880000 cpu:         8.8
 (Enter /opt/nce/packages/global/g09/l9999.exe)
 1\1\GINC-CN065\SP\RPBEPBE TD-FC\Gen\C42H29N1O1\PNG4RJV\24-Nov-2021\0\\
 #p PBEPBE chkbasis geom=allcheck Guess=Read int=ultrafine scrf=(SMD,so
 lvent=n,n-DiMethylAcetamide) td=(NStates=30) EmpiricalDispersion=GD3BJ
 \\Title\\0,1\C,0,-3.6366522151,1.9533279956,-0.020898467\C,0,-2.455560
 6832,2.6961624396,-0.0240634516\C,0,-1.2050308304,2.064292918,-0.00659
 20224\C,0,-1.1846900827,0.6543502266,0.0102863069\C,0,-2.3566294717,-0
 .0828009645,0.0096175572\C,0,-3.6178954783,0.5501402991,-0.0049885766\
 C,0,1.1882606535,0.6551956635,0.0248939017\C,0,1.2078748416,2.06494379
 66,-0.0032732383\C,0,2.4579412678,2.6975140613,-0.0263437871\H,0,2.502
 9690811,3.7865599566,-0.035153087\C,0,3.6394653267,1.9552714899,-0.027
 262729\C,0,3.6212667029,0.5523366312,-0.0001409719\C,0,2.3606819264,-0
 .0813042107,0.02731058\H,0,-2.501138974,3.7849299495,-0.049088408\H,0,
 -2.2735015718,-1.1700069011,0.0466862484\H,0,4.5902379337,2.4896012573
 ,-0.0225735884\N,0,0.001161356,2.7683410645,-0.0059167529\C,0,0.000781
 5056,4.2030015018,-0.0220257865\C,0,0.0037939007,4.8810304557,-1.24360
 89737\C,0,-0.0025594912,4.9062055061,1.1851523514\C,0,0.0034934149,6.2
 775188347,-1.254886076\C,0,-0.0029432494,6.302638746,1.1675569011\H,0,
 -0.0047290096,4.3549121219,2.1271109345\C,0,0.0001063269,6.9877965871,
 -0.0508824373\H,0,-0.0055446972,6.8563633147,2.1080752202\H,0,-0.00015
 45178,8.079293665,-0.0621931861\H,0,2.2783771442,-1.1692287797,0.02622
 1817\H,0,-4.5871036275,2.4868788692,-0.0585870632\C,0,-4.863312952,-0.
 2416655908,-0.0108342308\C,0,-4.9134578327,-1.5293560494,-0.5797392942
 \C,0,-6.0525856292,0.2615320064,0.5521789563\C,0,-6.0900728902,-2.2721
 744167,-0.5875287567\H,0,-4.0193556116,-1.954073412,-1.039908014\C,0,-
 7.2282665602,-0.482279169,0.5454826754\H,0,-6.0545347181,1.2486696811,
 1.0178986722\C,0,-7.2772748621,-1.7680799531,-0.0249917685\H,0,-6.0826
 608558,-3.2710385325,-1.0279245686\H,0,-8.130971378,-0.0500678353,0.98
 15859769\C,0,-8.5271765109,-2.5587990179,-0.0319968606\C,0,-8.81428914
 42,-3.4514029139,-1.082492\C,0,-9.4652556298,-2.4410292522,1.011394628
 7\C,0,-9.9934927141,-4.1967678412,-1.0891097039\H,0,-8.1152204295,-3.5
 45716332,-1.9156063622\C,0,-10.6442232728,-3.186834262,1.0044185546\H,
 0,-9.2574779403,-1.7732634314,1.8495792198\C,0,-10.9152302377,-4.06881
 55165,-0.0458421433\H,0,-10.1975036719,-4.8761545571,-1.9193324885\H,0
 ,-11.3523964061,-3.0841205954,1.8292848921\H,0,-11.8377667478,-4.65236
 48249,-0.0511228453\C,0,4.8670811416,-0.2388900219,0.0049375484\C,0,4.
 9323758659,-1.5033625603,0.6220975408\C,0,6.0404860594,0.241537128,-0.
 6088262493\C,0,6.1092817489,-2.2458581192,0.6281772082\H,0,4.050290951
 6,-1.9090416774,1.1210559958\C,0,7.2159577402,-0.5027562395,-0.6053170
 517\H,0,6.0290030797,1.2097306079,-1.1127344623\C,0,7.2803123183,-1.76
 49493655,0.0139960216\H,0,6.1148058241,-3.2265406004,1.1077914258\H,0,
 8.1066701821,-0.0897251933,-1.0827877939\C,0,8.5298389717,-2.556219146
 9,0.0177236865\C,0,8.8539217823,-3.3931086647,1.1026516529\C,0,9.42962
 92224,-2.4949155449,-1.0634468672\C,0,10.0327776392,-4.1390971349,1.10
 63487577\H,0,8.1843263721,-3.4420228533,1.9635183145\C,0,10.6076615791
 ,-3.2422843049,-1.0598512918\H,0,9.1917218885,-1.8713637435,-1.9273413
 429\C,0,10.9161518847,-4.0681883324,0.0251131022\H,0,10.2667753612,-4.
 774089793,1.9633775088\H,0,11.2855215363,-3.1850957808,-1.91407879\H,0
 ,11.8381414135,-4.6526254194,0.027868326\O,0,0.0019011008,-0.057158070
 2,0.0428217941\H,0,0.005843496,6.8116813658,-2.2066483447\H,0,0.006241
 1135,4.3105653547,-2.1740756843\\Version=ES64L-G09RevE.01\State=1-A\HF
 =-1746.4881162\RMSD=1.944e-09\PG=C01 [X(C42H29N1O1)]\\@


 THE ONLY TROUBLE WITH A SURE THING IS THE UNCERTAINTY.
     -- FROM A TEABAG (BELONGING TO W.H.?)
 Job cpu time:       1 days 12 hours 18 minutes 26.2 seconds.
 File lengths (MBytes):  RWF=   9244 Int=      0 D2E=      0 Chk=   2090 Scr=      1
 Normal termination of Gaussian 09 at Wed Nov 24 15:34:01 2021.
