
                                 *****************
                                 * O   R   C   A *
                                 *****************

                                            #,                                       
                                            ###                                      
                                            ####                                     
                                            #####                                    
                                            ######                                   
                                           ########,                                 
                                     ,,################,,,,,                         
                               ,,#################################,,                 
                          ,,##########################################,,             
                       ,#########################################, ''#####,          
                    ,#############################################,,   '####,        
                  ,##################################################,,,,####,       
                ,###########''''           ''''###############################       
              ,#####''   ,,,,##########,,,,          '''####'''          '####       
            ,##' ,,,,###########################,,,                        '##       
           ' ,,###''''                  '''############,,,                           
         ,,##''                                '''############,,,,        ,,,,,,###''
      ,#''                                            '''#######################'''  
     '                                                          ''''####''''         
             ,#######,   #######,   ,#######,      ##                                
            ,#'     '#,  ##    ##  ,#'     '#,    #''#        ######   ,####,        
            ##       ##  ##   ,#'  ##            #'  '#       #        #'  '#        
            ##       ##  #######   ##           ,######,      #####,   #    #        
            '#,     ,#'  ##    ##  '#,     ,#' ,#      #,         ##   #,  ,#        
             '#######'   ##     ##  '#######'  #'      '#     #####' # '####'        



                  #######################################################
                  #                        -***-                        #
                  #          Department of theory and spectroscopy      #
                  #    Directorship and core code : Frank Neese         #
                  #        Max Planck Institute fuer Kohlenforschung    #
                  #                Kaiser Wilhelm Platz 1               #
                  #                 D-45470 Muelheim/Ruhr               #
                  #                      Germany                        #
                  #                                                     #
                  #                  All rights reserved                #
                  #                        -***-                        #
                  #######################################################


                         Program Version 5.0.2 -  RELEASE  -


 With contributions from (in alphabetic order):
   Daniel Aravena         : Magnetic Suceptibility
   Michael Atanasov       : Ab Initio Ligand Field Theory (pilot matlab implementation)
   Alexander A. Auer      : GIAO ZORA, VPT2 properties, NMR spectrum
   Ute Becker             : Parallelization
   Giovanni Bistoni       : ED, misc. LED, open-shell LED, HFLD
   Martin Brehm           : Molecular dynamics
   Dmytro Bykov           : SCF Hessian
   Vijay G. Chilkuri      : MRCI spin determinant printing, contributions to CSF-ICE
   Dipayan Datta          : RHF DLPNO-CCSD density
   Achintya Kumar Dutta   : EOM-CC, STEOM-CC
   Dmitry Ganyushin       : Spin-Orbit,Spin-Spin,Magnetic field MRCI
   Miquel Garcia          : C-PCM and meta-GGA Hessian, CC/C-PCM, Gaussian charge scheme
   Yang Guo               : DLPNO-NEVPT2, F12-NEVPT2, CIM, IAO-localization
   Andreas Hansen         : Spin unrestricted coupled pair/coupled cluster methods
   Benjamin Helmich-Paris : MC-RPA, TRAH-SCF, COSX integrals
   Lee Huntington         : MR-EOM, pCC
   Robert Izsak           : Overlap fitted RIJCOSX, COSX-SCS-MP3, EOM
   Marcus Kettner         : VPT2
   Christian Kollmar      : KDIIS, OOCD, Brueckner-CCSD(T), CCSD density, CASPT2, CASPT2-K
   Simone Kossmann        : Meta GGA functionals, TD-DFT gradient, OOMP2, MP2 Hessian
   Martin Krupicka        : Initial AUTO-CI
   Lucas Lang             : DCDCAS
   Marvin Lechner         : AUTO-CI (C++ implementation), FIC-MRCC
   Dagmar Lenk            : GEPOL surface, SMD
   Dimitrios Liakos       : Extrapolation schemes; Compound Job, initial MDCI parallelization
   Dimitrios Manganas     : Further ROCIS development; embedding schemes
   Dimitrios Pantazis     : SARC Basis sets
   Anastasios Papadopoulos: AUTO-CI, single reference methods and gradients
   Taras Petrenko         : DFT Hessian,TD-DFT gradient, ASA, ECA, R-Raman, ABS, FL, XAS/XES, NRVS
   Peter Pinski           : DLPNO-MP2, DLPNO-MP2 Gradient
   Christoph Reimann      : Effective Core Potentials
   Marius Retegan         : Local ZFS, SOC
   Christoph Riplinger    : Optimizer, TS searches, QM/MM, DLPNO-CCSD(T), (RO)-DLPNO pert. Triples
   Tobias Risthaus        : Range-separated hybrids, TD-DFT gradient, RPA, STAB
   Michael Roemelt        : Original ROCIS implementation
   Masaaki Saitow         : Open-shell DLPNO-CCSD energy and density
   Barbara Sandhoefer     : DKH picture change effects
   Avijit Sen             : IP-ROCIS
   Kantharuban Sivalingam : CASSCF convergence, NEVPT2, FIC-MRCI
   Bernardo de Souza      : ESD, SOC TD-DFT
   Georgi Stoychev        : AutoAux, RI-MP2 NMR, DLPNO-MP2 response
   Willem Van den Heuvel  : Paramagnetic NMR
   Boris Wezisla          : Elementary symmetry handling
   Frank Wennmohs         : Technical directorship


 We gratefully acknowledge several colleagues who have allowed us to
 interface, adapt or use parts of their codes:
   Stefan Grimme, W. Hujo, H. Kruse, P. Pracht,  : VdW corrections, initial TS optimization,
                  C. Bannwarth, S. Ehlert          DFT functionals, gCP, sTDA/sTD-DF
   Ed Valeev, F. Pavosevic, A. Kumar             : LibInt (2-el integral package), F12 methods
   Garnet Chan, S. Sharma, J. Yang, R. Olivares  : DMRG
   Ulf Ekstrom                                   : XCFun DFT Library
   Mihaly Kallay                                 : mrcc  (arbitrary order and MRCC methods)
   Jiri Pittner, Ondrej Demel                    : Mk-CCSD
   Frank Weinhold                                : gennbo (NPA and NBO analysis)
   Christopher J. Cramer and Donald G. Truhlar   : smd solvation model
   Lars Goerigk                                  : TD-DFT with DH, B97 family of functionals
   V. Asgeirsson, H. Jonsson                     : NEB implementation
   FAccTs GmbH                                   : IRC, NEB, NEB-TS, DLPNO-Multilevel, CI-OPT
                                                   MM, QMMM, 2- and 3-layer-ONIOM, Crystal-QMMM,
                                                   LR-CPCM, SF, NACMEs, symmetry and pop. for TD-DFT,
                                                   nearIR, NL-DFT gradient (VV10), updates on ESD,
                                                   ML-optimized integration grids
   S Lehtola, MJT Oliveira, MAL Marques          : LibXC Library
   Liviu Ungur et al                             : ANISO software


 Your calculation uses the libint2 library for the computation of 2-el integrals
 For citations please refer to: http://libint.valeyev.net

 Your ORCA version has been built with support for libXC version: 5.1.0
 For citations please refer to: https://tddft.org/programs/libxc/

 This ORCA versions uses:
   CBLAS   interface :  Fast vector & matrix operations
   LAPACKE interface :  Fast linear algebra routines
   SCALAPACK package :  Parallel linear algebra routines
   Shared memory     :  Shared parallel matrices
   BLAS/LAPACK       :  OpenBLAS 0.3.15  USE64BITINT DYNAMIC_ARCH NO_AFFINITY Zen SINGLE_THREADED
        Core in use  :  Zen
   Copyright (c) 2011-2014, The OpenBLAS Project


Your calculation utilizes the SMD solvation module
Please cite in your paper:
A.V. Marenich, C.J. Cramer, D.G. Truhlar J. Phys. Chem. B, 113, (2009), 6378 

================================================================================

----- Orbital basis set information -----
Your calculation utilizes the basis: def2-TZVP
   F. Weigend and R. Ahlrichs, Phys. Chem. Chem. Phys. 7, 3297 (2005).

----- AuxJ basis set information -----
Your calculation utilizes the auxiliary basis: def2/J
   F. Weigend, Phys. Chem. Chem. Phys. 8, 1057 (2006).

----- AuxC basis set information -----
Your calculation utilizes the auxiliary basis: def2-TZVP/C
  H-La, Hf-Rn : A. Hellweg, C. Hattig, S. Hofener and W. Klopper, Theor. Chem. Acc. 117, 587 (2007).
        Ce-Lu : J. Chmela and M. E. Harding, Mol. Phys. (2018).

================================================================================
                                        WARNINGS
                       Please study these warnings very carefully!
================================================================================

INFO   : Checking CIS options ...
  ===> : (D) CORRECTION FOUND - SETTING MODE=3
  ===> : JK MODE FOUND - ACTIVATING RI-MP2 CODE
  ===> : MP2 AND CIS FOUND - CHECKING
WARNING: CIS(D) and MP2 runs must have the same orbital window
  ===> : adjusting orbital windows

WARNING: No MP2 level density has been requested!
         To caclulate MP2 level properties use
         %mp2 Density relaxed end
         or
         %mp2 Density unrelaxed end
         Otherwise for double-hybrid DFT only the energy is correct!

WARNING: The frozen-core approximation is turned on by default for 
         the MP2 part of double-hybrid DFT.

WARNING:  You are using a Range-Separated Double Hybrid functional with Doubles Correction 
          Changing Mode to RPA_AOINTS 


WARNING: CIS/ROCIS methods need fully converged wavefunctions
  ===> : Setting SCFConvForced true
         You can overwrite this default with %scf ConvForced false 


INFO   : the flag for use of the SHARK integral package has been found!

================================================================================
                                       INPUT FILE
================================================================================
NAME = PTZ_3_M06L_def2TZVP_coords.inp
|  1> %maxcore 3200
|  2> %pal
|  3>  nprocs= 8
|  4> end
|  5> ! RI-wB2PLYP def2-TZVP def2/J def2-TZVP/C RIJCOSX CPCM TightSCF
|  6> %TDDFT DCORR 1
|  7>    NROOTS   30
|  8> 
|  9>    TDA      FALSE
| 10> END
| 11> 
| 12> %CPCM
| 13>    SMD          TRUE
| 14>    SMDsolvent   "N,N-DIMETHYLACETAMIDE"
| 15> END
| 16>    
| 17> 
| 18> * xyz 0 1
| 19> C                  -4.14164500   -2.46300300   -0.56122300
| 20> C                  -2.89708500   -2.95154600   -0.19768700
| 21> C                  -1.83913000   -2.08903100    0.05976900
| 22> C                  -1.99528000   -0.70233100   -0.08283000
| 23> C                  -3.25710800   -0.22754800   -0.45352000
| 24> C                  -4.31455600   -1.09428700   -0.67966000
| 25> C                   0.41700400   -0.18324600    0.09852000
| 26> C                   0.81220500   -1.54358300    0.24579400
| 27> C                   2.13131000   -1.90558200    0.16175400
| 28> H                   2.40302700   -2.94963600    0.26866100
| 29> C                   3.15250100   -0.95178300   -0.02213500
| 30> C                   2.77399800    0.41534500   -0.13410200
| 31> C                   1.40783600    0.75982700   -0.08143300
| 32> H                  -2.73900100   -4.01780900   -0.08879900
| 33> H                  -3.41728400    0.83556000   -0.55946400
| 34> H                  -5.27746600   -0.68515600   -0.95746300
| 35> C                  -1.23144600    1.58988300    0.16316500
| 36> C                  -1.44230800    2.22989500    1.37461000
| 37> C                  -1.29856100    2.29933200   -1.02962300
| 38> C                  -1.72374300    3.58887100    1.39341800
| 39> C                  -1.58055900    3.65594100   -1.00535400
| 40> C                  -1.79283600    4.30168800    0.20560300
| 41> H                  -1.88892500    4.08963000    2.33891500
| 42> H                  -1.63400600    4.21032700   -1.93372400
| 43> H                  -1.38401700    1.65956000    2.29339900
| 44> H                  -1.12920200    1.78246900   -1.96665700
| 45> H                  -2.01234100    5.36168000    0.22205000
| 46> H                  -4.96006700   -3.14611200   -0.74507900
| 47> N                  -0.93473300    0.18458300    0.16055300
| 48> H                   1.14872200    1.80453300   -0.18323800
| 49> S                  -0.35150300   -2.78066700    0.68072400
| 50> C                   3.78441900    1.38479100   -0.30855900
| 51> C                   5.10510400    1.01852700   -0.37283600
| 52> H                   5.86911900    1.77393600   -0.50867400
| 53> C                   4.51657300   -1.29854500   -0.09042200
| 54> C                   5.47596700   -0.33279500   -0.26364900
| 55> H                   6.52151700   -0.60905100   -0.31653600
| 56> H                   4.79358000   -2.34290800   -0.00327500
| 57> H                   3.49757800    2.42665300   -0.39316800
| 58> *
| 59> 
| 60> 
| 61>                          ****END OF INPUT****
================================================================================

                       ****************************
                       * Single Point Calculation *
                       ****************************

---------------------------------
CARTESIAN COORDINATES (ANGSTROEM)
---------------------------------
  C     -4.141645   -2.463003   -0.561223
  C     -2.897085   -2.951546   -0.197687
  C     -1.839130   -2.089031    0.059769
  C     -1.995280   -0.702331   -0.082830
  C     -3.257108   -0.227548   -0.453520
  C     -4.314556   -1.094287   -0.679660
  C      0.417004   -0.183246    0.098520
  C      0.812205   -1.543583    0.245794
  C      2.131310   -1.905582    0.161754
  H      2.403027   -2.949636    0.268661
  C      3.152501   -0.951783   -0.022135
  C      2.773998    0.415345   -0.134102
  C      1.407836    0.759827   -0.081433
  H     -2.739001   -4.017809   -0.088799
  H     -3.417284    0.835560   -0.559464
  H     -5.277466   -0.685156   -0.957463
  C     -1.231446    1.589883    0.163165
  C     -1.442308    2.229895    1.374610
  C     -1.298561    2.299332   -1.029623
  C     -1.723743    3.588871    1.393418
  C     -1.580559    3.655941   -1.005354
  C     -1.792836    4.301688    0.205603
  H     -1.888925    4.089630    2.338915
  H     -1.634006    4.210327   -1.933724
  H     -1.384017    1.659560    2.293399
  H     -1.129202    1.782469   -1.966657
  H     -2.012341    5.361680    0.222050
  H     -4.960067   -3.146112   -0.745079
  N     -0.934733    0.184583    0.160553
  H      1.148722    1.804533   -0.183238
  S     -0.351503   -2.780667    0.680724
  C      3.784419    1.384791   -0.308559
  C      5.105104    1.018527   -0.372836
  H      5.869119    1.773936   -0.508674
  C      4.516573   -1.298545   -0.090422
  C      5.475967   -0.332795   -0.263649
  H      6.521517   -0.609051   -0.316536
  H      4.793580   -2.342908   -0.003275
  H      3.497578    2.426653   -0.393168

----------------------------
CARTESIAN COORDINATES (A.U.)
----------------------------
  NO LB      ZA    FRAG     MASS         X           Y           Z
   0 C     6.0000    0    12.011   -7.826575   -4.654401   -1.060558
   1 C     6.0000    0    12.011   -5.474697   -5.577614   -0.373574
   2 C     6.0000    0    12.011   -3.475452   -3.947696    0.112947
   3 C     6.0000    0    12.011   -3.770533   -1.327213   -0.156526
   4 C     6.0000    0    12.011   -6.155042   -0.430003   -0.857029
   5 C     6.0000    0    12.011   -8.153329   -2.067903   -1.284371
   6 C     6.0000    0    12.011    0.788023   -0.346285    0.186176
   7 C     6.0000    0    12.011    1.534845   -2.916949    0.464483
   8 C     6.0000    0    12.011    4.027592   -3.601028    0.305671
   9 H     1.0000    0     1.008    4.541063   -5.574004    0.507696
  10 C     6.0000    0    12.011    5.957364   -1.798609   -0.041829
  11 C     6.0000    0    12.011    5.242097    0.784888   -0.253416
  12 C     6.0000    0    12.011    2.660424    1.435865   -0.153886
  13 H     1.0000    0     1.008   -5.175962   -7.592559   -0.167806
  14 H     1.0000    0     1.008   -6.457731    1.578980   -1.057234
  15 H     1.0000    0     1.008   -9.972965   -1.294757   -1.809343
  16 C     6.0000    0    12.011   -2.327096    3.004443    0.308337
  17 C     6.0000    0    12.011   -2.725567    4.213891    2.597636
  18 C     6.0000    0    12.011   -2.453925    4.345108   -1.945705
  19 C     6.0000    0    12.011   -3.257402    6.781983    2.633178
  20 C     6.0000    0    12.011   -2.986824    6.908727   -1.899844
  21 C     6.0000    0    12.011   -3.387969    8.129012    0.388533
  22 H     1.0000    0     1.008   -3.569551    7.728281    4.419909
  23 H     1.0000    0     1.008   -3.087824    7.956365   -3.654209
  24 H     1.0000    0     1.008   -2.615413    3.136114    4.333896
  25 H     1.0000    0     1.008   -2.133883    3.368378   -3.716443
  26 H     1.0000    0     1.008   -3.802773   10.132107    0.419614
  27 H     1.0000    0     1.008   -9.373168   -5.945290   -1.407995
  28 N     7.0000    0    14.007   -1.766389    0.348811    0.303401
  29 H     1.0000    0     1.008    2.170770    3.410073   -0.346270
  30 S    16.0000    0    32.060   -0.664244   -5.254699    1.286382
  31 C     6.0000    0    12.011    7.151515    2.616876   -0.583092
  32 C     6.0000    0    12.011    9.647248    1.924737   -0.704558
  33 H     1.0000    0     1.008   11.091028    3.352253   -0.961255
  34 C     6.0000    0    12.011    8.535086   -2.453894   -0.170873
  35 C     6.0000    0    12.011   10.348078   -0.628891   -0.498224
  36 H     1.0000    0     1.008   12.323881   -1.150940   -0.598166
  37 H     1.0000    0     1.008    9.058553   -4.427454   -0.006189
  38 H     1.0000    0     1.008    6.609465    4.585710   -0.742980

--------------------------------
INTERNAL COORDINATES (ANGSTROEM)
--------------------------------
 C      0   0   0     0.000000000000     0.00000000     0.00000000
 C      1   0   0     1.385554863492     0.00000000     0.00000000
 C      2   1   0     1.389058853752   120.91863199     0.00000000
 C      3   2   1     1.402730974671   120.67799074   358.01004978
 C      4   3   2     1.398227404528   117.58669818     1.77912961
 C      1   2   3     1.384669283817   118.89101361     0.70227111
 C      4   3   2     2.474156655586    95.24524788   191.31380744
 C      7   4   3     1.424215649067    94.45834126     0.62433066
 C      8   7   4     1.370453938893   120.86696689   168.52774174
 H      9   8   7     1.084116225159   119.31302142   180.55758396
 C      9   8   7     1.409389497337   121.77979325     2.41252118
 C     11   9   8     1.422968762300   117.88673586   359.34785434
 C      7   4   3     1.379680331730   146.51708691   165.88844596
 H      2   1   3     1.083403864110   120.29517365   178.69132545
 H      5   4   3     1.080314353221   119.60091369   179.16757562
 H      6   1   2     1.082477875095   120.44003938   180.30115618
 C      7   4   3     2.421890342102    59.46489741   190.53214633
 C     17   7   4     1.386245696553   117.70197885   109.04153747
 C     17   7   4     1.389447919056   112.56835590   256.02379810
 C     18  17   7     1.387939180463   119.65253049   144.35028017
 C     19  17   7     1.385820996827   119.64537039   213.93757499
 C     20  18  17     1.387006269763   120.11229929   359.97542218
 H     20  18  17     1.082593758625   119.71435182   179.97897496
 H     21  19  17     1.082622406800   119.75626386   180.04490178
 H     18  17   7     1.082983416044   119.34592297   324.38169144
 H     19  17   7     1.083449375285   119.42724917    33.93330731
 H     22  20  18     1.082606109764   120.01850035   180.00769941
 H      1   2   3     1.081783483282   120.09937509   180.86493440
 N      7   4   3     1.402262166465    28.16570425   199.63386611
 H     13   7   4     1.081163701507   120.04372149    17.51731650
 S      8   7   4     1.753213403217   121.02624050   343.01662700
 C     12  11   9     1.411102898093   118.64066346   179.53297751
 C     32  12  11     1.372038527028   120.77342159     0.17550355
 H     33  32  12     1.082965207082   119.91722968   179.89816010
 C     11   9   8     1.409112990571   122.76456798   178.98013010
 C     35  11   9     1.372267285650   120.64487255   180.34424838
 H     36  35  11     1.082723055451   120.11445508   180.09882775
 H     35  11   9     1.083984111243   118.72273518     0.33168595
 H     32  12  11     1.083933978251   118.71867361   180.05013868

---------------------------
INTERNAL COORDINATES (A.U.)
---------------------------
 C      0   0   0     0.000000000000     0.00000000     0.00000000
 C      1   0   0     2.618319235522     0.00000000     0.00000000
 C      2   1   0     2.624940817489   120.91863199     0.00000000
 C      3   2   1     2.650777381696   120.67799074   358.01004978
 C      4   3   2     2.642266867501   117.58669818     1.77912961
 C      1   2   3     2.616645732467   118.89101361     0.70227111
 C      4   3   2     4.675478491476    95.24524788   191.31380744
 C      7   4   3     2.691377532381    94.45834126     0.62433066
 C      8   7   4     2.589782623660   120.86696689   168.52774174
 H      9   8   7     2.048682762892   119.31302142   180.55758396
 C      9   8   7     2.663360165991   121.77979325     2.41252118
 C     11   9   8     2.689021257872   117.88673586   359.34785434
 C      7   4   3     2.607217979327   146.51708691   165.88844596
 H      2   1   3     2.047336595600   120.29517365   178.69132545
 H      5   4   3     2.041498266133   119.60091369   179.16757562
 H      6   1   2     2.045586729958   120.44003938   180.30115618
 C      7   4   3     4.576709472961    59.46489741   190.53214633
 C     17   7   4     2.619624720813   117.70197885   109.04153747
 C     17   7   4     2.625676044363   112.56835590   256.02379810
 C     18  17   7     2.622824941615   119.65253049   144.35028017
 C     19  17   7     2.618822154640   119.64537039   213.93757499
 C     20  18  17     2.621061995885   120.11229929   359.97542218
 H     20  18  17     2.045805718094   119.71435182   179.97897496
 H     21  19  17     2.045859855298   119.75626386   180.04490178
 H     18  17   7     2.046542063902   119.34592297   324.38169144
 H     19  17   7     2.047422599257   119.42724917    33.93330731
 H     22  20  18     2.045829058364   120.01850035   180.00769941
 H      1   2   3     2.044274519602   120.09937509   180.86493440
 N      7   4   3     2.649891462578    28.16570425   199.63386611
 H     13   7   4     2.043103301785   120.04372149    17.51731650
 S      8   7   4     3.313093186400   121.02624050   343.01662700
 C     12  11   9     2.666598024178   118.64066346   179.53297751
 C     32  12  11     2.592777061272   120.77342159     0.17550355
 H     33  32  12     2.046507653950   119.91722968   179.89816010
 C     11   9   8     2.662837643931   122.76456798   178.98013010
 C     35  11   9     2.593209352418   120.64487255   180.34424838
 H     36  35  11     2.046050053685   120.11445508   180.09882775
 H     35  11   9     2.048433103771   118.72273518     0.33168595
 H     32  12  11     2.048338366145   118.71867361   180.05013868

---------------------
BASIS SET INFORMATION
---------------------
There are 4 groups of distinct atoms

 Group   1 Type C   : 11s6p2d1f contracted to 5s3p2d1f pattern {62111/411/11/1}
 Group   2 Type H   : 5s1p contracted to 3s1p pattern {311/1}
 Group   3 Type N   : 11s6p2d1f contracted to 5s3p2d1f pattern {62111/411/11/1}
 Group   4 Type S   : 14s9p3d1f contracted to 5s5p2d1f pattern {73211/51111/21/1}

Atom   0C    basis set group =>   1
Atom   1C    basis set group =>   1
Atom   2C    basis set group =>   1
Atom   3C    basis set group =>   1
Atom   4C    basis set group =>   1
Atom   5C    basis set group =>   1
Atom   6C    basis set group =>   1
Atom   7C    basis set group =>   1
Atom   8C    basis set group =>   1
Atom   9H    basis set group =>   2
Atom  10C    basis set group =>   1
Atom  11C    basis set group =>   1
Atom  12C    basis set group =>   1
Atom  13H    basis set group =>   2
Atom  14H    basis set group =>   2
Atom  15H    basis set group =>   2
Atom  16C    basis set group =>   1
Atom  17C    basis set group =>   1
Atom  18C    basis set group =>   1
Atom  19C    basis set group =>   1
Atom  20C    basis set group =>   1
Atom  21C    basis set group =>   1
Atom  22H    basis set group =>   2
Atom  23H    basis set group =>   2
Atom  24H    basis set group =>   2
Atom  25H    basis set group =>   2
Atom  26H    basis set group =>   2
Atom  27H    basis set group =>   2
Atom  28N    basis set group =>   3
Atom  29H    basis set group =>   2
Atom  30S    basis set group =>   4
Atom  31C    basis set group =>   1
Atom  32C    basis set group =>   1
Atom  33H    basis set group =>   2
Atom  34C    basis set group =>   1
Atom  35C    basis set group =>   1
Atom  36H    basis set group =>   2
Atom  37H    basis set group =>   2
Atom  38H    basis set group =>   2
---------------------------------
AUXILIARY/J BASIS SET INFORMATION
---------------------------------
There are 4 groups of distinct atoms

 Group   1 Type C   : 12s5p4d2f1g contracted to 6s4p3d1f1g pattern {711111/2111/211/2/1}
 Group   2 Type H   : 5s2p1d contracted to 3s1p1d pattern {311/2/1}
 Group   3 Type N   : 12s5p4d2f1g contracted to 6s4p3d1f1g pattern {711111/2111/211/2/1}
 Group   4 Type S   : 14s5p5d2f1g contracted to 8s4p3d1f1g pattern {71111111/2111/311/2/1}

Atom   0C    basis set group =>   1
Atom   1C    basis set group =>   1
Atom   2C    basis set group =>   1
Atom   3C    basis set group =>   1
Atom   4C    basis set group =>   1
Atom   5C    basis set group =>   1
Atom   6C    basis set group =>   1
Atom   7C    basis set group =>   1
Atom   8C    basis set group =>   1
Atom   9H    basis set group =>   2
Atom  10C    basis set group =>   1
Atom  11C    basis set group =>   1
Atom  12C    basis set group =>   1
Atom  13H    basis set group =>   2
Atom  14H    basis set group =>   2
Atom  15H    basis set group =>   2
Atom  16C    basis set group =>   1
Atom  17C    basis set group =>   1
Atom  18C    basis set group =>   1
Atom  19C    basis set group =>   1
Atom  20C    basis set group =>   1
Atom  21C    basis set group =>   1
Atom  22H    basis set group =>   2
Atom  23H    basis set group =>   2
Atom  24H    basis set group =>   2
Atom  25H    basis set group =>   2
Atom  26H    basis set group =>   2
Atom  27H    basis set group =>   2
Atom  28N    basis set group =>   3
Atom  29H    basis set group =>   2
Atom  30S    basis set group =>   4
Atom  31C    basis set group =>   1
Atom  32C    basis set group =>   1
Atom  33H    basis set group =>   2
Atom  34C    basis set group =>   1
Atom  35C    basis set group =>   1
Atom  36H    basis set group =>   2
Atom  37H    basis set group =>   2
Atom  38H    basis set group =>   2
---------------------------------
AUXILIARY/C BASIS SET INFORMATION
---------------------------------
There are 4 groups of distinct atoms

 Group   1 Type C   : 8s6p5d3f1g contracted to 8s6p4d3f1g pattern {11111111/111111/2111/111/1}
 Group   2 Type H   : 4s3p2d contracted to 4s2p1d pattern {1111/21/2}
 Group   3 Type N   : 8s6p5d3f1g contracted to 8s6p4d3f1g pattern {11111111/111111/2111/111/1}
 Group   4 Type S   : 10s7p7d5f2g contracted to 9s7p6d5f2g pattern {211111111/1111111/211111/11111/11}

Atom   0C    basis set group =>   1
Atom   1C    basis set group =>   1
Atom   2C    basis set group =>   1
Atom   3C    basis set group =>   1
Atom   4C    basis set group =>   1
Atom   5C    basis set group =>   1
Atom   6C    basis set group =>   1
Atom   7C    basis set group =>   1
Atom   8C    basis set group =>   1
Atom   9H    basis set group =>   2
Atom  10C    basis set group =>   1
Atom  11C    basis set group =>   1
Atom  12C    basis set group =>   1
Atom  13H    basis set group =>   2
Atom  14H    basis set group =>   2
Atom  15H    basis set group =>   2
Atom  16C    basis set group =>   1
Atom  17C    basis set group =>   1
Atom  18C    basis set group =>   1
Atom  19C    basis set group =>   1
Atom  20C    basis set group =>   1
Atom  21C    basis set group =>   1
Atom  22H    basis set group =>   2
Atom  23H    basis set group =>   2
Atom  24H    basis set group =>   2
Atom  25H    basis set group =>   2
Atom  26H    basis set group =>   2
Atom  27H    basis set group =>   2
Atom  28N    basis set group =>   3
Atom  29H    basis set group =>   2
Atom  30S    basis set group =>   4
Atom  31C    basis set group =>   1
Atom  32C    basis set group =>   1
Atom  33H    basis set group =>   2
Atom  34C    basis set group =>   1
Atom  35C    basis set group =>   1
Atom  36H    basis set group =>   2
Atom  37H    basis set group =>   2
Atom  38H    basis set group =>   2


           ************************************************************
           *        Program running with 8 parallel MPI-processes     *
           *              working on a common directory               *
           ************************************************************
------------------------------------------------------------------------------
                           ORCA GTO INTEGRAL CALCULATION
                           -- RI-GTO INTEGRALS CHOSEN --
------------------------------------------------------------------------------
------------------------------------------------------------------------------
                   ___                                                        
                  /   \      - P O W E R E D   B Y -                         
                 /     \                                                     
                 |  |  |   _    _      __       _____    __    __             
                 |  |  |  | |  | |    /  \     |  _  \  |  |  /  |          
                  \  \/   | |  | |   /    \    | | | |  |  | /  /          
                 / \  \   | |__| |  /  /\  \   | |_| |  |  |/  /          
                |  |  |   |  __  | /  /__\  \  |    /   |      \           
                |  |  |   | |  | | |   __   |  |    \   |  |\   \          
                \     /   | |  | | |  |  |  |  | |\  \  |  | \   \       
                 \___/    |_|  |_| |__|  |__|  |_| \__\ |__|  \__/        
                                                                              
                      - O R C A' S   B I G   F R I E N D -                    
                                      &                                       
                       - I N T E G R A L  F E E D E R -                       
                                                                              
 v1 FN, 2020, v2 2021                                                         
------------------------------------------------------------------------------


Reading SHARK input file PTZ_3_M06L_def2TZVP_coords.SHARKINP.tmp ... ok
----------------------
SHARK INTEGRAL PACKAGE
----------------------

Number of atoms                             ...     39
Number of basis functions                   ...    840
Number of shells                            ...    326
Maximum angular momentum                    ...      3
Integral batch strategy                     ... SHARK/LIBINT Hybrid
RI-J (if used) integral strategy            ... SPLIT-RIJ (Revised 2003 algorithm where possible)
Printlevel                                  ...      1
Contraction scheme used                     ... SEGMENTED contraction
Coulomb Range Separation                    ... NOT USED
Exchange Range Separation                   ... Long Range
   Mu parameter                             ...  0.300000
   Scaling (regular/separated)              ...  0.530000  0.470000
Finite Nucleus Model                        ... NOT USED
Auxiliary Coulomb fitting basis             ... AVAILABLE
   # of basis functions in Aux-J            ...   1343
   # of shells in Aux-J                     ...    437
   Maximum angular momentum in Aux-J        ...      4
Auxiliary J/K fitting basis                 ... NOT available
Auxiliary Correlation fitting basis         ... AVAILABLE
   # of basis functions in Aux-C            ...   2086
   # of shells in Aux-C                     ...    640
   Maximum angular momentum in Aux-C        ...      4
Auxiliary 'external' fitting basis          ... NOT available
Integral threshold                          ...     2.500000e-11
Primitive cut-off                           ...     2.500000e-12
Primitive pair pre-selection threshold      ...     2.500000e-12

Calculating pre-screening integrals         ... done (  0.1 sec) Dimension = 326
Organizing shell pair data                  ... done (  0.3 sec)
Shell pair information
Total number of shell pairs                 ...     53301
Shell pairs after pre-screening             ...     37564
Total number of primitive shell pairs       ...    167340
Primitive shell pairs kept                  ...     77639
          la=0 lb=0:   9103 shell pairs
          la=1 lb=0:  10780 shell pairs
          la=1 lb=1:   3164 shell pairs
          la=2 lb=0:   5437 shell pairs
          la=2 lb=1:   3218 shell pairs
          la=2 lb=2:    843 shell pairs
          la=3 lb=0:   2523 shell pairs
          la=3 lb=1:   1530 shell pairs
          la=3 lb=2:    772 shell pairs
          la=3 lb=3:    194 shell pairs

Calculating one electron integrals          ... done (  0.0 sec)
Calculating RI/J V-Matrix + Cholesky decomp.... done (  0.1 sec)
Calculating RI/C V-Matrix + Cholesky decomp.... done (  0.1 sec)
Calculating Nuclear repulsion               ... done (  0.0 sec) ENN=   2012.240589073623 Eh

SHARK setup successfully completed in   1.0 seconds

Maximum memory used throughout the entire GTOINT-calculation: 61.5 MB


           ************************************************************
           *        Program running with 8 parallel MPI-processes     *
           *              working on a common directory               *
           ************************************************************
-------------------------------------------------------------------------------
                                 ORCA SCF
-------------------------------------------------------------------------------

------------
SCF SETTINGS
------------
Hamiltonian:
 Density Functional     Method          .... DFT(GTOs)
 Exchange Functional    Exchange        .... WB88
 Correlation Functional Correlation     .... LYP
 LDA part of GGA corr.  LDAOpt          .... VWN-3
 Gradients option       PostSCFGGA      .... off
 Hybrid DFT is turned on
   Fraction HF Exchange ScalHFX         ....  0.530000
   Scaling of DF-GGA-X  ScalDFX         ....  0.000000
   Scaling of DF-GGA-C  ScalDFC         ....  0.730000
   Scaling of DF-LDA-C  ScalLDAC        ....  0.730000
   Perturbative correction              ....  0.270000
   Density functional embedding theory  .... OFF
 Long-range corrected/Screened/Range-Separated Hybrid DFT is turned on
   Amount of maximum screened exact exchange              ....  0.470000
   Range separation parameter mu (erf(mu*r12)/r12)        ....  0.300000
 RI-approximation to the Coulomb term is turned on
   Number of AuxJ basis functions       .... 1343
   RIJ-COSX (HFX calculated with COS-X)).... on


General Settings:
 Integral files         IntName         .... PTZ_3_M06L_def2TZVP_coords
 Hartree-Fock type      HFTyp           .... RHF
 Total Charge           Charge          ....    0
 Multiplicity           Mult            ....    1
 Number of Electrons    NEL             ....  170
 Basis Dimension        Dim             ....  840
 Nuclear Repulsion      ENuc            ....   2012.2405890736 Eh

Convergence Acceleration:
 DIIS                   CNVDIIS         .... on
   Start iteration      DIISMaxIt       ....    12
   Startup error        DIISStart       ....  0.200000
   # of expansion vecs  DIISMaxEq       ....     5
   Bias factor          DIISBfac        ....   1.050
   Max. coefficient     DIISMaxC        ....  10.000
 Trust-Rad. Augm. Hess. CNVTRAH         .... auto
   Auto Start mean grad. ratio tolernc. ....  1.125000
   Auto Start start iteration           ....    20
   Auto Start num. interpolation iter.  ....    10
   Max. Number of Micro iterations      ....    16
   Max. Number of Macro iterations      .... Maxiter - #DIIS iter
   Number of Davidson start vectors     ....     2
   Converg. threshold I  (grad. norm)   ....   1.000e-05
   Converg. threshold II (energy diff.) ....   1.000e-08
   Grad. Scal. Fac. for Micro threshold ....   0.100
   Minimum threshold for Micro iter.    ....   0.010
   NR start threshold (gradient norm)   ....   0.001
   Initial trust radius                 ....   0.400
   Minimum AH scaling param. (alpha)    ....   1.000
   Maximum AH scaling param. (alpha)    .... 1000.000
   Orbital update algorithm             .... Taylor
   White noise on init. David. guess    .... on
   Maximum white noise                  ....   0.010
   Quad. conv. algorithm                .... NR
 SOSCF                  CNVSOSCF        .... on
   Start iteration      SOSCFMaxIt      ....   150
   Startup grad/error   SOSCFStart      ....  0.003300
 Level Shifting         CNVShift        .... on
   Level shift para.    LevelShift      ....    0.2500
   Turn off err/grad.   ShiftErr        ....    0.0010
 Zerner damping         CNVZerner       .... off
 Static damping         CNVDamp         .... on
   Fraction old density DampFac         ....    0.7000
   Max. Damping (<1)    DampMax         ....    0.9800
   Min. Damping (>=0)   DampMin         ....    0.0000
   Turn off err/grad.   DampErr         ....    0.1000
 Fernandez-Rico         CNVRico         .... off

SCF Procedure:
 Maximum # iterations   MaxIter         ....   125
 SCF integral mode      SCFMode         .... Direct
   Integral package                     .... SHARK and LIBINT hybrid scheme
 Reset frequency        DirectResetFreq ....    20
 Integral Threshold     Thresh          ....  2.500e-11 Eh
 Primitive CutOff       TCut            ....  2.500e-12 Eh

Convergence Tolerance:
 Convergence Check Mode ConvCheckMode   .... Total+1el-Energy
 Convergence forced     ConvForced      .... 1
 Energy Change          TolE            ....  1.000e-08 Eh
 1-El. energy change                    ....  1.000e-05 Eh
 Orbital Gradient       TolG            ....  1.000e-05
 Orbital Rotation angle TolX            ....  1.000e-05
 DIIS Error             TolErr          ....  5.000e-07


Diagonalization of the overlap matrix:
Smallest eigenvalue                        ... 4.195e-06
Time for diagonalization                   ...    0.125 sec
Threshold for overlap eigenvalues          ... 1.000e-08
Number of eigenvalues below threshold      ... 0
Time for construction of square roots      ...    0.112 sec
Total time needed                          ...    0.239 sec

Time for model grid setup =    0.212 sec

------------------------------
INITIAL GUESS: MODEL POTENTIAL
------------------------------
Loading Hartree-Fock densities                     ... done
Calculating cut-offs                               ... done
Initializing the effective Hamiltonian             ... done
Setting up the integral package (SHARK)            ... done
Starting the Coulomb interaction                   ... done (   0.4 sec)
Reading the grid                                   ... done
Mapping shells                                     ... done
Starting the XC term evaluation                    ... done (   0.2 sec)
  promolecular density results
     # of electrons  =    170.003783809
     EX              =   -148.520833454
     EC              =     -1.988147361
     EX+EC           =   -150.508980815
Transforming the Hamiltonian                       ... done (   0.1 sec)
Diagonalizing the Hamiltonian                      ... done (   0.1 sec)
Back transforming the eigenvectors                 ... done (   0.0 sec)
Now organizing SCF variables                       ... done
                      ------------------
                      INITIAL GUESS DONE (   1.0 sec)
                      ------------------
-------------------
DFT GRID GENERATION
-------------------

General Integration Accuracy     IntAcc      ... 4.388
Radial Grid Type                 RadialGrid  ... OptM3 with GC (2021)
Angular Grid (max. ang.)         AngularGrid ... 4 (Lebedev-302)
Angular grid pruning method      GridPruning ... 4 (adaptive)
Weight generation scheme         WeightScheme... Becke
Basis function cutoff            BFCut       ... 1.0000e-11
Integration weight cutoff        WCut        ... 1.0000e-14
Angular grids for H and He will be reduced by one unit
Partially contracted basis set               ... off
Rotationally invariant grid construction     ... off

Total number of grid points                  ...   191904
Total number of batches                      ...     3019
Average number of points per batch           ...       63
Average number of grid points per atom       ...     4921
Time for grid setup =    0.969 sec

--------------------
COSX GRID GENERATION
--------------------

GRIDX 1
-------
General Integration Accuracy     IntAcc      ... 3.816
Radial Grid Type                 RadialGrid  ... OptM3 with GC (2021)
Angular Grid (max. ang.)         AngularGrid ... 1 (Lebedev-50)
Angular grid pruning method      GridPruning ... 4 (adaptive)
Weight generation scheme         WeightScheme... Becke
Basis function cutoff            BFCut       ... 1.0000e-11
Integration weight cutoff        WCut        ... 1.0000e-14
Angular grids for H and He will be reduced by one unit
Partially contracted basis set               ... on
Rotationally invariant grid construction     ... off

Total number of grid points                  ...    24340
Total number of batches                      ...      397
Average number of points per batch           ...       61
Average number of grid points per atom       ...      624
UseSFitting                                  ... on

GRIDX 2
-------
General Integration Accuracy     IntAcc      ... 4.020
Radial Grid Type                 RadialGrid  ... OptM3 with GC (2021)
Angular Grid (max. ang.)         AngularGrid ... 2 (Lebedev-110)
Angular grid pruning method      GridPruning ... 4 (adaptive)
Weight generation scheme         WeightScheme... Becke
Basis function cutoff            BFCut       ... 1.0000e-11
Integration weight cutoff        WCut        ... 1.0000e-14
Angular grids for H and He will be reduced by one unit
Partially contracted basis set               ... on
Rotationally invariant grid construction     ... off

Total number of grid points                  ...    53147
Total number of batches                      ...      853
Average number of points per batch           ...       62
Average number of grid points per atom       ...     1363
UseSFitting                                  ... on

GRIDX 3
-------
General Integration Accuracy     IntAcc      ... 4.338
Radial Grid Type                 RadialGrid  ... OptM3 with GC (2021)
Angular Grid (max. ang.)         AngularGrid ... 3 (Lebedev-194)
Angular grid pruning method      GridPruning ... 4 (adaptive)
Weight generation scheme         WeightScheme... Becke
Basis function cutoff            BFCut       ... 1.0000e-11
Integration weight cutoff        WCut        ... 1.0000e-14
Angular grids for H and He will be reduced by one unit
Partially contracted basis set               ... on
Rotationally invariant grid construction     ... off

Total number of grid points                  ...   116902
Total number of batches                      ...     1847
Average number of points per batch           ...       63
Average number of grid points per atom       ...     2997
UseSFitting                                  ... on

Time for X-Grid setup             =    1.200 sec


--------------------
CPCM SOLVATION MODEL
--------------------
CPCM parameters:
  Epsilon                                         ...      37.7810
  Refrac                                          ...       1.4380
  Rsolv                                           ...       1.3000
  Surface type                                    ... GAUSSIAN VDW
  Epsilon function type                           ...         CPCM
Solvent:                                     ... N,N-DIMETHYLACETAMIDE
SMD-CDS solvent descriptors:
  Soln                                       ...    1.4380
  Soln25                                     ...    1.4358
  Sola                                       ...    0.0000
  Solb                                       ...    0.7800
  Solg                                       ...   47.6200
  Solc                                       ...    0.0000
  Solh                                       ...    0.0000
Radii:
 Radius for C  used is    3.4960 Bohr (=   1.8500 Ang.)
 Radius for H  used is    2.2677 Bohr (=   1.2000 Ang.)
 Radius for N  used is    3.5716 Bohr (=   1.8900 Ang.)
 Radius for S  used is    4.7054 Bohr (=   2.4900 Ang.)
Calculating surface                               ...        done! (  0.0s)
GEPOL surface points                              ...         2138
GEPOL Volume                                      ...    2262.6738
GEPOL Surface-area                                ...    1182.5527
Calculating surface distance matrix               ...        done! (  0.0s)
Performing Cholesky decomposition & store         ...        done! (  0.1s)
Overall time for CPCM initialization              ...                 0.1s
--------------
SCF ITERATIONS
--------------
ITER       Energy         Delta-E        Max-DP      RMS-DP      [F,P]     Damp
               ***  Starting incremental Fock matrix formation  ***
  0  -1296.8414115783   0.000000000000 0.06291848  0.00075341  0.1547619 0.7000
  1  -1297.0764418556  -0.235030277315 0.05288694  0.00062990  0.1011562 0.7000
                               ***Turning on DIIS***
  2  -1297.2150730829  -0.138631227300 0.12332436  0.00146110  0.0612999 0.0000
  3  -1297.4702944237  -0.255221340749 0.03789327  0.00031932  0.0307879 0.0000
  4  -1297.4922182539  -0.021923830195 0.02064039  0.00020201  0.0067665 0.0000
  5  -1297.4935071214  -0.001288867514 0.01147191  0.00011834  0.0031933 0.0000
  6  -1297.4939242791  -0.000417157665 0.00811149  0.00007845  0.0019728 0.0000
                      *** Initiating the SOSCF procedure ***
                           *** Shutting down DIIS ***
                      *** Re-Reading the Fockian *** 
                      *** Removing any level shift *** 
ITER      Energy       Delta-E        Grad      Rot      Max-DP    RMS-DP
  7  -1297.49408927  -0.0001649893  0.002608  0.002608  0.005729  0.000053
               *** Restarting incremental Fock matrix formation ***
  8  -1297.49411025  -0.0000209852  0.001240  0.003928  0.017307  0.000177
  9  -1297.49413816  -0.0000279089  0.000560  0.004308  0.006377  0.000078
 10  -1297.49414870  -0.0000105377  0.000158  0.000416  0.005238  0.000053
 11  -1297.49414998  -0.0000012758  0.000067  0.000259  0.000501  0.000006
 12  -1297.49415032  -0.0000003392  0.000035  0.000153  0.000306  0.000005
 13  -1297.49415038  -0.0000000604  0.000011  0.000066  0.000226  0.000002
 14  -1297.49415039  -0.0000000165  0.000004  0.000016  0.000129  0.000002
                  ***Gradient check signals convergence***
              ***Rediagonalizing the Fockian in SOSCF/NRSCF***

               *****************************************************
               *                     SUCCESS                       *
               *           SCF CONVERGED AFTER  15 CYCLES          *
               *****************************************************

Old exchange energy                            =    -92.693583606 Eh
New exchange energy                            =    -92.693615297 Eh
Exchange energy change after final integration =     -0.000031692 Eh
Total energy after final integration           =  -1297.494182045 Eh
Final COS-X integration done in                =    41.498 sec

SMD CDS free energy correction energy :                -4.25921     Kcal/mol
Total Energy after SMD CDS correction =             -1297.500969523 Eh

----------------
TOTAL SCF ENERGY
----------------

Total Energy       :        -1297.50096952 Eh          -35306.79634 eV

Components:
Nuclear Repulsion  :         2012.24058907 Eh           54755.85016 eV
Electronic Energy  :        -3309.74155860 Eh          -90062.64651 eV
One Electron Energy:        -5768.97833369 Eh         -156981.88126 eV
Two Electron Energy:         2459.23677509 Eh           66919.23476 eV
Max COSX asymmetry :            0.00000629 Eh               0.00017 eV
CPCM Dielectric    :           -0.02055981 Eh              -0.55946 eV
SMD CDS (Gcds)     :           -0.00678748 Eh              -0.18470 eV

Virial components:
Potential Energy   :        -2591.60136923 Eh          -70521.05848 eV
Kinetic Energy     :         1294.10039971 Eh           35214.26213 eV
Virial Ratio       :            2.00262775


DFT components:
N(Alpha)           :       85.000063067644 electrons
N(Beta)            :       85.000063067644 electrons
N(Total)           :      170.000126135287 electrons
E(X)               :      -57.700828366519 Eh       
E(C)               :       -4.313733278159 Eh       
E(XC)              :      -62.014561644677 Eh       
DFET-embed. en.    :        0.000000000000 Eh       
CPCM Solvation Model Properties:
Surface-charge          :           -0.06491913
Charge-correction       :            0.00033688 Eh               0.00917 eV
Free-energy (cav+disp)  :           -0.00678748 Eh              -0.18470 eV

---------------
SCF CONVERGENCE
---------------

  Last Energy change         ...    3.8600e-08  Tolerance :   1.0000e-08
  Last MAX-Density change    ...    3.5527e-15  Tolerance :   1.0000e-07
  Last RMS-Density change    ...    1.3333e-17  Tolerance :   5.0000e-09
  Last Orbital Gradient      ...    1.6912e-06  Tolerance :   1.0000e-05
  Last Orbital Rotation      ...    6.0712e-06  Tolerance :   1.0000e-05

             **** THE GBW FILE WAS UPDATED (PTZ_3_M06L_def2TZVP_coords.gbw) ****
             **** DENSITY PTZ_3_M06L_def2TZVP_coords.scfp WAS UPDATED ****
             **** ENERGY FILE WAS UPDATED (PTZ_3_M06L_def2TZVP_coords.en.tmp) ****
             **** THE GBW FILE WAS UPDATED (PTZ_3_M06L_def2TZVP_coords.gbw) ****
             **** DENSITY PTZ_3_M06L_def2TZVP_coords.scfp WAS UPDATED ****
----------------
ORBITAL ENERGIES
----------------

  NO   OCC          E(Eh)            E(eV) 
   0   2.0000     -90.238840     -2455.5237 
   1   2.0000     -14.948992      -406.7827 
   2   2.0000     -10.750686      -292.5410 
   3   2.0000     -10.748420      -292.4794 
   4   2.0000     -10.730183      -291.9831 
   5   2.0000     -10.729196      -291.9563 
   6   2.0000     -10.724445      -291.8270 
   7   2.0000     -10.700681      -291.1803 
   8   2.0000     -10.697432      -291.0919 
   9   2.0000     -10.696666      -291.0711 
  10   2.0000     -10.694849      -291.0216 
  11   2.0000     -10.691281      -290.9246 
  12   2.0000     -10.691227      -290.9231 
  13   2.0000     -10.690549      -290.9046 
  14   2.0000     -10.690169      -290.8943 
  15   2.0000     -10.689445      -290.8746 
  16   2.0000     -10.689046      -290.8637 
  17   2.0000     -10.688352      -290.8448 
  18   2.0000     -10.686963      -290.8070 
  19   2.0000     -10.686905      -290.8055 
  20   2.0000     -10.685788      -290.7751 
  21   2.0000     -10.685062      -290.7553 
  22   2.0000     -10.684270      -290.7338 
  23   2.0000     -10.683024      -290.6999 
  24   2.0000      -8.450175      -229.9410 
  25   2.0000      -6.296914      -171.3477 
  26   2.0000      -6.294172      -171.2731 
  27   2.0000      -6.291211      -171.1925 
  28   2.0000      -1.200250       -32.6605 
  29   2.0000      -1.094546       -29.7841 
  30   2.0000      -1.081792       -29.4371 
  31   2.0000      -1.062033       -28.8994 
  32   2.0000      -1.041741       -28.3472 
  33   2.0000      -0.997489       -27.1431 
  34   2.0000      -0.975229       -26.5373 
  35   2.0000      -0.953224       -25.9385 
  36   2.0000      -0.947014       -25.7696 
  37   2.0000      -0.945755       -25.7353 
  38   2.0000      -0.935689       -25.4614 
  39   2.0000      -0.899799       -24.4848 
  40   2.0000      -0.871520       -23.7153 
  41   2.0000      -0.815694       -22.1962 
  42   2.0000      -0.805433       -21.9170 
  43   2.0000      -0.784999       -21.3609 
  44   2.0000      -0.782568       -21.2948 
  45   2.0000      -0.766678       -20.8624 
  46   2.0000      -0.753111       -20.4932 
  47   2.0000      -0.740750       -20.1568 
  48   2.0000      -0.700832       -19.0706 
  49   2.0000      -0.689117       -18.7518 
  50   2.0000      -0.660133       -17.9631 
  51   2.0000      -0.649751       -17.6806 
  52   2.0000      -0.645233       -17.5577 
  53   2.0000      -0.621810       -16.9203 
  54   2.0000      -0.612157       -16.6576 
  55   2.0000      -0.607886       -16.5414 
  56   2.0000      -0.595883       -16.2148 
  57   2.0000      -0.589561       -16.0428 
  58   2.0000      -0.581420       -15.8212 
  59   2.0000      -0.572106       -15.5678 
  60   2.0000      -0.568257       -15.4631 
  61   2.0000      -0.565024       -15.3751 
  62   2.0000      -0.558936       -15.2094 
  63   2.0000      -0.553475       -15.0608 
  64   2.0000      -0.547765       -14.9054 
  65   2.0000      -0.529921       -14.4199 
  66   2.0000      -0.526071       -14.3151 
  67   2.0000      -0.505948       -13.7675 
  68   2.0000      -0.499557       -13.5936 
  69   2.0000      -0.492527       -13.4023 
  70   2.0000      -0.488555       -13.2943 
  71   2.0000      -0.486139       -13.2285 
  72   2.0000      -0.476228       -12.9588 
  73   2.0000      -0.468616       -12.7517 
  74   2.0000      -0.459488       -12.5033 
  75   2.0000      -0.449517       -12.2320 
  76   2.0000      -0.440731       -11.9929 
  77   2.0000      -0.412894       -11.2354 
  78   2.0000      -0.393526       -10.7084 
  79   2.0000      -0.358721        -9.7613 
  80   2.0000      -0.353549        -9.6206 
  81   2.0000      -0.349037        -9.4978 
  82   2.0000      -0.342336        -9.3154 
  83   2.0000      -0.294438        -8.0121 
  84   2.0000      -0.272943        -7.4272 
  85   0.0000       0.042871         1.1666 
  86   0.0000       0.058211         1.5840 
  87   0.0000       0.073686         2.0051 
  88   0.0000       0.079102         2.1525 
  89   0.0000       0.088191         2.3998 
  90   0.0000       0.103740         2.8229 
  91   0.0000       0.117699         3.2027 
  92   0.0000       0.128039         3.4841 
  93   0.0000       0.133133         3.6227 
  94   0.0000       0.141641         3.8542 
  95   0.0000       0.150391         4.0923 
  96   0.0000       0.153750         4.1838 
  97   0.0000       0.156167         4.2495 
  98   0.0000       0.165879         4.5138 
  99   0.0000       0.171272         4.6606 
 100   0.0000       0.173543         4.7224 
 101   0.0000       0.183962         5.0059 
 102   0.0000       0.189980         5.1696 
 103   0.0000       0.192641         5.2420 
 104   0.0000       0.195065         5.3080 
 105   0.0000       0.198312         5.3963 
 106   0.0000       0.201431         5.4812 
 107   0.0000       0.208612         5.6766 
 108   0.0000       0.214512         5.8372 
 109   0.0000       0.218645         5.9496 
 110   0.0000       0.225011         6.1229 
 111   0.0000       0.229607         6.2479 
 112   0.0000       0.235076         6.3967 
 113   0.0000       0.244154         6.6438 
 114   0.0000       0.252462         6.8698 
 115   0.0000       0.263485         7.1698 
 116   0.0000       0.264809         7.2058 
 117   0.0000       0.270483         7.3602 
 118   0.0000       0.273051         7.4301 
 119   0.0000       0.281711         7.6657 
 120   0.0000       0.283802         7.7226 
 121   0.0000       0.287976         7.8362 
 122   0.0000       0.295034         8.0283 
 123   0.0000       0.299142         8.1401 
 124   0.0000       0.302953         8.2438 
 125   0.0000       0.305925         8.3246 
 126   0.0000       0.308380         8.3914 
 127   0.0000       0.313752         8.5376 
 128   0.0000       0.318614         8.6699 
 129   0.0000       0.324253         8.8234 
 130   0.0000       0.325770         8.8646 
 131   0.0000       0.331916         9.0319 
 132   0.0000       0.332663         9.0522 
 133   0.0000       0.335731         9.1357 
 134   0.0000       0.342705         9.3255 
 135   0.0000       0.349496         9.5103 
 136   0.0000       0.351974         9.5777 
 137   0.0000       0.356153         9.6914 
 138   0.0000       0.357305         9.7228 
 139   0.0000       0.365957         9.9582 
 140   0.0000       0.371522        10.1096 
 141   0.0000       0.375339        10.2135 
 142   0.0000       0.377018        10.2592 
 143   0.0000       0.381374        10.3777 
 144   0.0000       0.386801        10.5254 
 145   0.0000       0.391286        10.6474 
 146   0.0000       0.395559        10.7637 
 147   0.0000       0.397804        10.8248 
 148   0.0000       0.405655        11.0384 
 149   0.0000       0.409416        11.1408 
 150   0.0000       0.411094        11.1864 
 151   0.0000       0.421286        11.4638 
 152   0.0000       0.422279        11.4908 
 153   0.0000       0.434351        11.8193 
 154   0.0000       0.436352        11.8737 
 155   0.0000       0.437600        11.9077 
 156   0.0000       0.445824        12.1315 
 157   0.0000       0.449856        12.2412 
 158   0.0000       0.454080        12.3561 
 159   0.0000       0.455331        12.3902 
 160   0.0000       0.459514        12.5040 
 161   0.0000       0.462685        12.5903 
 162   0.0000       0.470317        12.7980 
 163   0.0000       0.474814        12.9203 
 164   0.0000       0.475515        12.9394 
 165   0.0000       0.480492        13.0748 
 166   0.0000       0.484357        13.1800 
 167   0.0000       0.488008        13.2794 
 168   0.0000       0.500713        13.6251 
 169   0.0000       0.503951        13.7132 
 170   0.0000       0.505354        13.7514 
 171   0.0000       0.508857        13.8467 
 172   0.0000       0.513520        13.9736 
 173   0.0000       0.516433        14.0529 
 174   0.0000       0.519513        14.1367 
 175   0.0000       0.522965        14.2306 
 176   0.0000       0.525805        14.3079 
 177   0.0000       0.527563        14.3557 
 178   0.0000       0.528824        14.3900 
 179   0.0000       0.535667        14.5762 
 180   0.0000       0.537856        14.6358 
 181   0.0000       0.544236        14.8094 
 182   0.0000       0.549179        14.9439 
 183   0.0000       0.551385        15.0040 
 184   0.0000       0.554808        15.0971 
 185   0.0000       0.555964        15.1286 
 186   0.0000       0.564858        15.3706 
 187   0.0000       0.569210        15.4890 
 188   0.0000       0.574874        15.6431 
 189   0.0000       0.576300        15.6819 
 190   0.0000       0.585005        15.9188 
 191   0.0000       0.588592        16.0164 
 192   0.0000       0.589794        16.0491 
 193   0.0000       0.593823        16.1587 
 194   0.0000       0.603153        16.4126 
 195   0.0000       0.607791        16.5388 
 196   0.0000       0.609410        16.5829 
 197   0.0000       0.614757        16.7284 
 198   0.0000       0.616953        16.7881 
 199   0.0000       0.620258        16.8781 
 200   0.0000       0.630078        17.1453 
 201   0.0000       0.633760        17.2455 
 202   0.0000       0.640347        17.4247 
 203   0.0000       0.641525        17.4568 
 204   0.0000       0.645651        17.5690 
 205   0.0000       0.651263        17.7218 
 206   0.0000       0.658127        17.9085 
 207   0.0000       0.663433        18.0529 
 208   0.0000       0.671311        18.2673 
 209   0.0000       0.673041        18.3144 
 210   0.0000       0.683241        18.5919 
 211   0.0000       0.697381        18.9767 
 212   0.0000       0.699558        19.0360 
 213   0.0000       0.705355        19.1937 
 214   0.0000       0.717091        19.5130 
 215   0.0000       0.724170        19.7057 
 216   0.0000       0.726714        19.7749 
 217   0.0000       0.734939        19.9987 
 218   0.0000       0.741088        20.1660 
 219   0.0000       0.746077        20.3018 
 220   0.0000       0.752228        20.4692 
 221   0.0000       0.765640        20.8341 
 222   0.0000       0.773317        21.0430 
 223   0.0000       0.777558        21.1584 
 224   0.0000       0.780187        21.2300 
 225   0.0000       0.782124        21.2827 
 226   0.0000       0.791584        21.5401 
 227   0.0000       0.801551        21.8113 
 228   0.0000       0.805853        21.9284 
 229   0.0000       0.808813        22.0089 
 230   0.0000       0.811008        22.0686 
 231   0.0000       0.815904        22.2019 
 232   0.0000       0.823453        22.4073 
 233   0.0000       0.831886        22.6368 
 234   0.0000       0.837012        22.7763 
 235   0.0000       0.840011        22.8578 
 236   0.0000       0.841830        22.9074 
 237   0.0000       0.846670        23.0391 
 238   0.0000       0.850047        23.1309 
 239   0.0000       0.853513        23.2253 
 240   0.0000       0.861368        23.4390 
 241   0.0000       0.861822        23.4514 
 242   0.0000       0.866828        23.5876 
 243   0.0000       0.869739        23.6668 
 244   0.0000       0.874895        23.8071 
 245   0.0000       0.883065        24.0294 
 246   0.0000       0.889950        24.2168 
 247   0.0000       0.891959        24.2714 
 248   0.0000       0.894654        24.3448 
 249   0.0000       0.901698        24.5365 
 250   0.0000       0.906912        24.6783 
 251   0.0000       0.913279        24.8516 
 252   0.0000       0.921617        25.0785 
 253   0.0000       0.927887        25.2491 
 254   0.0000       0.937807        25.5190 
 255   0.0000       0.939521        25.5657 
 256   0.0000       0.941679        25.6244 
 257   0.0000       0.953366        25.9424 
 258   0.0000       0.956484        26.0272 
 259   0.0000       0.962803        26.1992 
 260   0.0000       0.963829        26.2271 
 261   0.0000       0.978388        26.6233 
 262   0.0000       0.981099        26.6971 
 263   0.0000       0.993510        27.0348 
 264   0.0000       0.994824        27.0705 
 265   0.0000       0.998642        27.1744 
 266   0.0000       1.002687        27.2845 
 267   0.0000       1.004138        27.3240 
 268   0.0000       1.013739        27.5852 
 269   0.0000       1.017440        27.6859 
 270   0.0000       1.018460        27.7137 
 271   0.0000       1.040388        28.3104 
 272   0.0000       1.042060        28.3559 
 273   0.0000       1.046195        28.4684 
 274   0.0000       1.046981        28.4898 
 275   0.0000       1.053365        28.6635 
 276   0.0000       1.062343        28.9078 
 277   0.0000       1.067298        29.0426 
 278   0.0000       1.072651        29.1883 
 279   0.0000       1.082658        29.4606 
 280   0.0000       1.086014        29.5519 
 281   0.0000       1.096928        29.8489 
 282   0.0000       1.103093        30.0167 
 283   0.0000       1.111279        30.2394 
 284   0.0000       1.123605        30.5749 
 285   0.0000       1.132119        30.8065 
 286   0.0000       1.142302        31.0836 
 287   0.0000       1.152067        31.3493 
 288   0.0000       1.157353        31.4932 
 289   0.0000       1.170488        31.8506 
 290   0.0000       1.175977        31.9999 
 291   0.0000       1.181743        32.1568 
 292   0.0000       1.190953        32.4075 
 293   0.0000       1.206663        32.8350 
 294   0.0000       1.216732        33.1090 
 295   0.0000       1.224341        33.3160 
 296   0.0000       1.225678        33.3524 
 297   0.0000       1.232594        33.5406 
 298   0.0000       1.249221        33.9930 
 299   0.0000       1.257667        34.2229 
 300   0.0000       1.269298        34.5393 
 301   0.0000       1.275191        34.6997 
 302   0.0000       1.278162        34.7806 
 303   0.0000       1.290571        35.1182 
 304   0.0000       1.296655        35.2838 
 305   0.0000       1.305610        35.5275 
 306   0.0000       1.309044        35.6209 
 307   0.0000       1.311289        35.6820 
 308   0.0000       1.330999        36.2183 
 309   0.0000       1.334739        36.3201 
 310   0.0000       1.341617        36.5073 
 311   0.0000       1.353333        36.8261 
 312   0.0000       1.356948        36.9244 
 313   0.0000       1.363441        37.1011 
 314   0.0000       1.371594        37.3230 
 315   0.0000       1.375522        37.4299 
 316   0.0000       1.386122        37.7183 
 317   0.0000       1.394307        37.9410 
 318   0.0000       1.395635        37.9772 
 319   0.0000       1.400337        38.1051 
 320   0.0000       1.408805        38.3355 
 321   0.0000       1.413070        38.4516 
 322   0.0000       1.417149        38.5626 
 323   0.0000       1.422459        38.7071 
 324   0.0000       1.433348        39.0034 
 325   0.0000       1.434666        39.0392 
 326   0.0000       1.438997        39.1571 
 327   0.0000       1.450434        39.4683 
 328   0.0000       1.451238        39.4902 
 329   0.0000       1.461809        39.7778 
 330   0.0000       1.463863        39.8337 
 331   0.0000       1.470018        40.0012 
 332   0.0000       1.476434        40.1758 
 333   0.0000       1.490997        40.5721 
 334   0.0000       1.498195        40.7680 
 335   0.0000       1.511218        41.1223 
 336   0.0000       1.517270        41.2870 
 337   0.0000       1.529456        41.6186 
 338   0.0000       1.542669        41.9781 
 339   0.0000       1.546262        42.0759 
 340   0.0000       1.561036        42.4780 
 341   0.0000       1.569448        42.7068 
 342   0.0000       1.572880        42.8002 
 343   0.0000       1.583345        43.0850 
 344   0.0000       1.586834        43.1799 
 345   0.0000       1.593214        43.3536 
 346   0.0000       1.607837        43.7515 
 347   0.0000       1.611994        43.8646 
 348   0.0000       1.614384        43.9296 
 349   0.0000       1.633406        44.4472 
 350   0.0000       1.639804        44.6213 
 351   0.0000       1.643068        44.7102 
 352   0.0000       1.648089        44.8468 
 353   0.0000       1.654148        45.0117 
 354   0.0000       1.661813        45.2202 
 355   0.0000       1.674722        45.5715 
 356   0.0000       1.680410        45.7263 
 357   0.0000       1.684657        45.8419 
 358   0.0000       1.688038        45.9339 
 359   0.0000       1.690809        46.0093 
 360   0.0000       1.695223        46.1294 
 361   0.0000       1.700184        46.2644 
 362   0.0000       1.707344        46.4592 
 363   0.0000       1.708708        46.4963 
 364   0.0000       1.714298        46.6484 
 365   0.0000       1.715214        46.6733 
 366   0.0000       1.729276        47.0560 
 367   0.0000       1.736082        47.2412 
 368   0.0000       1.740039        47.3489 
 369   0.0000       1.750096        47.6225 
 370   0.0000       1.752090        47.6768 
 371   0.0000       1.759549        47.8798 
 372   0.0000       1.764416        48.0122 
 373   0.0000       1.773951        48.2717 
 374   0.0000       1.780709        48.4556 
 375   0.0000       1.787759        48.6474 
 376   0.0000       1.798037        48.9271 
 377   0.0000       1.801434        49.0195 
 378   0.0000       1.809825        49.2478 
 379   0.0000       1.819296        49.5056 
 380   0.0000       1.827091        49.7177 
 381   0.0000       1.830877        49.8207 
 382   0.0000       1.833324        49.8873 
 383   0.0000       1.843235        50.1570 
 384   0.0000       1.846314        50.2408 
 385   0.0000       1.854105        50.4528 
 386   0.0000       1.862997        50.6947 
 387   0.0000       1.867086        50.8060 
 388   0.0000       1.872941        50.9653 
 389   0.0000       1.876608        51.0651 
 390   0.0000       1.882403        51.2228 
 391   0.0000       1.887399        51.3587 
 392   0.0000       1.895167        51.5701 
 393   0.0000       1.898645        51.6648 
 394   0.0000       1.903541        51.7980 
 395   0.0000       1.915026        52.1105 
 396   0.0000       1.916564        52.1524 
 397   0.0000       1.922764        52.3211 
 398   0.0000       1.925954        52.4079 
 399   0.0000       1.931777        52.5663 
 400   0.0000       1.935517        52.6681 
 401   0.0000       1.948296        53.0158 
 402   0.0000       1.954775        53.1921 
 403   0.0000       1.965752        53.4908 
 404   0.0000       1.968793        53.5736 
 405   0.0000       1.979518        53.8654 
 406   0.0000       1.997427        54.3528 
 407   0.0000       1.999987        54.4224 
 408   0.0000       2.014674        54.8221 
 409   0.0000       2.023138        55.0524 
 410   0.0000       2.032647        55.3111 
 411   0.0000       2.039217        55.4899 
 412   0.0000       2.045739        55.6674 
 413   0.0000       2.050346        55.7928 
 414   0.0000       2.057889        55.9980 
 415   0.0000       2.067611        56.2626 
 416   0.0000       2.083706        56.7005 
 417   0.0000       2.089894        56.8689 
 418   0.0000       2.106347        57.3166 
 419   0.0000       2.114148        57.5289 
 420   0.0000       2.115727        57.5718 
 421   0.0000       2.129521        57.9472 
 422   0.0000       2.135985        58.1231 
 423   0.0000       2.148084        58.4523 
 424   0.0000       2.168661        59.0123 
 425   0.0000       2.173858        59.1537 
 426   0.0000       2.176991        59.2389 
 427   0.0000       2.179636        59.3109 
 428   0.0000       2.187023        59.5119 
 429   0.0000       2.198098        59.8133 
 430   0.0000       2.204323        59.9827 
 431   0.0000       2.217663        60.3457 
 432   0.0000       2.227196        60.6051 
 433   0.0000       2.235555        60.8325 
 434   0.0000       2.236538        60.8593 
 435   0.0000       2.245289        61.0974 
 436   0.0000       2.262753        61.5726 
 437   0.0000       2.272856        61.8476 
 438   0.0000       2.276739        61.9532 
 439   0.0000       2.289921        62.3119 
 440   0.0000       2.297793        62.5261 
 441   0.0000       2.303286        62.6756 
 442   0.0000       2.307218        62.7826 
 443   0.0000       2.318079        63.0781 
 444   0.0000       2.321927        63.1829 
 445   0.0000       2.340688        63.6934 
 446   0.0000       2.352289        64.0090 
 447   0.0000       2.356747        64.1304 
 448   0.0000       2.364392        64.3384 
 449   0.0000       2.372085        64.5477 
 450   0.0000       2.373878        64.5965 
 451   0.0000       2.377804        64.7033 
 452   0.0000       2.385020        64.8997 
 453   0.0000       2.386956        64.9524 
 454   0.0000       2.399847        65.3031 
 455   0.0000       2.409174        65.5570 
 456   0.0000       2.412318        65.6425 
 457   0.0000       2.414608        65.7048 
 458   0.0000       2.427424        66.0536 
 459   0.0000       2.437564        66.3295 
 460   0.0000       2.445140        66.5356 
 461   0.0000       2.448831        66.6361 
 462   0.0000       2.452249        66.7291 
 463   0.0000       2.466320        67.1120 
 464   0.0000       2.480919        67.5093 
 465   0.0000       2.486862        67.6710 
 466   0.0000       2.502263        68.0900 
 467   0.0000       2.516755        68.4844 
 468   0.0000       2.527238        68.7696 
 469   0.0000       2.535699        68.9999 
 470   0.0000       2.552618        69.4603 
 471   0.0000       2.569198        69.9114 
 472   0.0000       2.580974        70.2319 
 473   0.0000       2.607956        70.9661 
 474   0.0000       2.619065        71.2684 
 475   0.0000       2.631240        71.5997 
 476   0.0000       2.640383        71.8485 
 477   0.0000       2.643996        71.9468 
 478   0.0000       2.657578        72.3164 
 479   0.0000       2.666122        72.5489 
 480   0.0000       2.683787        73.0295 
 481   0.0000       2.694263        73.3146 
 482   0.0000       2.706986        73.6608 
 483   0.0000       2.714793        73.8733 
 484   0.0000       2.720431        74.0267 
 485   0.0000       2.721429        74.0539 
 486   0.0000       2.735403        74.4341 
 487   0.0000       2.753638        74.9303 
 488   0.0000       2.759691        75.0950 
 489   0.0000       2.764602        75.2287 
 490   0.0000       2.772659        75.4479 
 491   0.0000       2.785323        75.7925 
 492   0.0000       2.789326        75.9014 
 493   0.0000       2.803392        76.2842 
 494   0.0000       2.806785        76.3765 
 495   0.0000       2.812210        76.5241 
 496   0.0000       2.819727        76.7287 
 497   0.0000       2.821120        76.7666 
 498   0.0000       2.828259        76.9608 
 499   0.0000       2.842992        77.3617 
 500   0.0000       2.847532        77.4853 
 501   0.0000       2.855538        77.7031 
 502   0.0000       2.857221        77.7489 
 503   0.0000       2.865236        77.9670 
 504   0.0000       2.868025        78.0429 
 505   0.0000       2.871968        78.1502 
 506   0.0000       2.879548        78.3565 
 507   0.0000       2.885651        78.5226 
 508   0.0000       2.885960        78.5310 
 509   0.0000       2.888810        78.6085 
 510   0.0000       2.897294        78.8394 
 511   0.0000       2.906671        79.0945 
 512   0.0000       2.908087        79.1331 
 513   0.0000       2.915284        79.3289 
 514   0.0000       2.918808        79.4248 
 515   0.0000       2.921890        79.5087 
 516   0.0000       2.925117        79.5965 
 517   0.0000       2.929646        79.7197 
 518   0.0000       2.941897        80.0531 
 519   0.0000       2.946054        80.1662 
 520   0.0000       2.949338        80.2556 
 521   0.0000       2.954785        80.4038 
 522   0.0000       2.961256        80.5799 
 523   0.0000       2.965906        80.7064 
 524   0.0000       2.972738        80.8923 
 525   0.0000       2.977568        81.0238 
 526   0.0000       2.982281        81.1520 
 527   0.0000       2.987087        81.2828 
 528   0.0000       2.991924        81.4144 
 529   0.0000       2.995720        81.5177 
 530   0.0000       3.004792        81.7645 
 531   0.0000       3.010734        81.9262 
 532   0.0000       3.014476        82.0281 
 533   0.0000       3.014897        82.0395 
 534   0.0000       3.026791        82.3632 
 535   0.0000       3.038490        82.6815 
 536   0.0000       3.040342        82.7319 
 537   0.0000       3.047294        82.9211 
 538   0.0000       3.053742        83.0966 
 539   0.0000       3.056117        83.1612 
 540   0.0000       3.060792        83.2884 
 541   0.0000       3.065285        83.4106 
 542   0.0000       3.069881        83.5357 
 543   0.0000       3.070526        83.5533 
 544   0.0000       3.076376        83.7124 
 545   0.0000       3.083695        83.9116 
 546   0.0000       3.090735        84.1032 
 547   0.0000       3.099153        84.3322 
 548   0.0000       3.108339        84.5822 
 549   0.0000       3.114604        84.7527 
 550   0.0000       3.121222        84.9328 
 551   0.0000       3.124217        85.0143 
 552   0.0000       3.128306        85.1255 
 553   0.0000       3.138237        85.3958 
 554   0.0000       3.145192        85.5850 
 555   0.0000       3.146012        85.6073 
 556   0.0000       3.151188        85.7482 
 557   0.0000       3.162545        86.0572 
 558   0.0000       3.166190        86.1564 
 559   0.0000       3.180636        86.5495 
 560   0.0000       3.186683        86.7141 
 561   0.0000       3.190293        86.8123 
 562   0.0000       3.197532        87.0093 
 563   0.0000       3.205977        87.2391 
 564   0.0000       3.216040        87.5129 
 565   0.0000       3.220530        87.6351 
 566   0.0000       3.228412        87.8496 
 567   0.0000       3.237449        88.0955 
 568   0.0000       3.244199        88.2791 
 569   0.0000       3.250386        88.4475 
 570   0.0000       3.254875        88.5697 
 571   0.0000       3.265710        88.8645 
 572   0.0000       3.269124        88.9574 
 573   0.0000       3.273978        89.0895 
 574   0.0000       3.281462        89.2931 
 575   0.0000       3.295597        89.6778 
 576   0.0000       3.297551        89.7309 
 577   0.0000       3.317915        90.2850 
 578   0.0000       3.319999        90.3418 
 579   0.0000       3.324637        90.4680 
 580   0.0000       3.330264        90.6211 
 581   0.0000       3.341433        90.9250 
 582   0.0000       3.345684        91.0407 
 583   0.0000       3.348213        91.1095 
 584   0.0000       3.354972        91.2934 
 585   0.0000       3.358304        91.3841 
 586   0.0000       3.362402        91.4956 
 587   0.0000       3.368425        91.6595 
 588   0.0000       3.373906        91.8086 
 589   0.0000       3.375985        91.8652 
 590   0.0000       3.381007        92.0019 
 591   0.0000       3.383702        92.0752 
 592   0.0000       3.386539        92.1524 
 593   0.0000       3.402514        92.5871 
 594   0.0000       3.405246        92.6614 
 595   0.0000       3.410527        92.8052 
 596   0.0000       3.413519        92.8866 
 597   0.0000       3.419810        93.0578 
 598   0.0000       3.430134        93.3387 
 599   0.0000       3.432261        93.3966 
 600   0.0000       3.439536        93.5945 
 601   0.0000       3.447373        93.8078 
 602   0.0000       3.456038        94.0436 
 603   0.0000       3.462054        94.2073 
 604   0.0000       3.464572        94.2758 
 605   0.0000       3.471837        94.4735 
 606   0.0000       3.483238        94.7837 
 607   0.0000       3.484639        94.8219 
 608   0.0000       3.491340        95.0042 
 609   0.0000       3.494474        95.0895 
 610   0.0000       3.500055        95.2413 
 611   0.0000       3.511245        95.5458 
 612   0.0000       3.516973        95.7017 
 613   0.0000       3.527162        95.9789 
 614   0.0000       3.529708        96.0482 
 615   0.0000       3.532002        96.1107 
 616   0.0000       3.539781        96.3223 
 617   0.0000       3.548771        96.5670 
 618   0.0000       3.550688        96.6191 
 619   0.0000       3.558050        96.8195 
 620   0.0000       3.561733        96.9197 
 621   0.0000       3.570874        97.1684 
 622   0.0000       3.572142        97.2029 
 623   0.0000       3.586627        97.5971 
 624   0.0000       3.588655        97.6523 
 625   0.0000       3.595750        97.8453 
 626   0.0000       3.599335        97.9429 
 627   0.0000       3.606494        98.1377 
 628   0.0000       3.612870        98.3112 
 629   0.0000       3.618592        98.4669 
 630   0.0000       3.626162        98.6729 
 631   0.0000       3.629096        98.7527 
 632   0.0000       3.637052        98.9692 
 633   0.0000       3.642108        99.1068 
 634   0.0000       3.643973        99.1576 
 635   0.0000       3.653830        99.4258 
 636   0.0000       3.659266        99.5737 
 637   0.0000       3.662832        99.6707 
 638   0.0000       3.674229        99.9809 
[...]
    82a ->  85a  :     0.270712 
    82a ->  87a  :     0.011421 
    82a ->  89a  :     0.013551 
    82a ->  91a  :     0.013103 
    83a ->  87a  :     0.020005 
    83a ->  89a  :     0.024151 
    83a ->  91a  :     0.069479 
    84a ->  85a  :     0.012696 
    84a ->  89a  :     0.019118 
    84a ->  90a  :     0.017182 
    84a ->  91a  :     0.022741 

STATE 20:  E=   0.246955 au      6.720 eV    54200.4 cm**-1 <S**2> =   0.000000
    78a ->  85a  :     0.047154 
    79a ->  85a  :     0.040109 
    79a ->  86a  :     0.052787 
    79a ->  87a  :     0.079874 
    79a ->  89a  :     0.081287 
    80a ->  88a  :     0.306895 
    80a ->  89a  :     0.018347 
    81a ->  85a  :     0.010440 
    81a ->  88a  :     0.014218 
    82a ->  85a  :     0.013769 
    82a ->  87a  :     0.047157 
    82a ->  89a  :     0.019487 
    83a ->  87a  :     0.056987 
    83a ->  90a  :     0.011014 
    83a ->  91a  :     0.013708 
    84a ->  90a  :     0.041315 

STATE 21:  E=   0.246588 au      6.710 eV    54119.8 cm**-1 <S**2> =   0.000000
    77a ->  90a  :     0.025164 
    78a ->  86a  :     0.040291 
    79a ->  86a  :     0.010938 
    81a ->  86a  :     0.169099 
    81a ->  87a  :     0.025331 
    81a ->  92a  :     0.015854 
    82a ->  90a  :     0.013364 
    83a ->  90a  :     0.037821 
    83a ->  92a  :     0.055275 
    83a ->  94a  :     0.013350 
    83a ->  96a  :     0.010597 
    83a -> 109a  :     0.018964 
    84a ->  90a  :     0.023075 
    84a ->  91a  :     0.023949 
    84a ->  92a  :     0.080959 
    84a ->  93a  :     0.015785 
    84a ->  94a  :     0.035922 
    84a ->  95a  :     0.010056 
    84a ->  96a  :     0.014031 
    84a -> 101a  :     0.026326 
    84a -> 103a  :     0.010320 
    84a -> 104a  :     0.013832 
    84a -> 108a  :     0.050652 
    84a -> 109a  :     0.033908 

STATE 22:  E=   0.249937 au      6.801 eV    54854.9 cm**-1 <S**2> =   0.000000
    78a ->  85a  :     0.021088 
    78a ->  87a  :     0.017813 
    79a ->  87a  :     0.011613 
    79a ->  88a  :     0.010081 
    80a ->  88a  :     0.016822 
    81a ->  86a  :     0.096491 
    82a ->  85a  :     0.018825 
    82a ->  89a  :     0.015180 
    83a ->  87a  :     0.098539 
    83a ->  88a  :     0.100844 
    83a ->  93a  :     0.045161 
    83a ->  97a  :     0.029915 
    84a ->  88a  :     0.010805 
    84a ->  90a  :     0.042091 
    84a ->  93a  :     0.097633 
    84a ->  94a  :     0.070982 
    84a -> 101a  :     0.031028 
    84a -> 107a  :     0.010233 
    84a -> 109a  :     0.011575 

STATE 23:  E=   0.246196 au      6.699 eV    54033.7 cm**-1 <S**2> =   0.000000
    77a ->  87a  :     0.014318 
    78a ->  85a  :     0.091647 
    78a ->  86a  :     0.037837 
    79a ->  85a  :     0.026908 
    79a ->  86a  :     0.012842 
    81a ->  86a  :     0.151155 
    81a ->  90a  :     0.028393 
    82a ->  85a  :     0.021012 
    82a ->  86a  :     0.032492 
    82a ->  89a  :     0.011679 
    83a ->  86a  :     0.045467 
    83a ->  87a  :     0.061037 
    83a ->  88a  :     0.084262 
    83a ->  90a  :     0.030040 
    83a ->  91a  :     0.017896 
    83a ->  92a  :     0.038871 
    84a ->  88a  :     0.012515 
    84a ->  89a  :     0.025259 
    84a ->  90a  :     0.035101 
    84a ->  92a  :     0.051324 

STATE 24:  E=   0.250481 au      6.816 eV    54974.2 cm**-1 <S**2> =   0.000000
    77a ->  86a  :     0.014013 
    78a ->  87a  :     0.027387 
    81a ->  87a  :     0.010910 
    81a ->  89a  :     0.014297 
    82a ->  85a  :     0.013544 
    82a ->  90a  :     0.013983 
    83a ->  87a  :     0.154718 
    83a ->  88a  :     0.061432 
    83a ->  90a  :     0.018887 
    83a ->  92a  :     0.107799 
    83a ->  93a  :     0.030086 
    84a ->  90a  :     0.014029 
    84a ->  92a  :     0.044760 
    84a ->  93a  :     0.087428 
    84a ->  94a  :     0.082745 
    84a -> 101a  :     0.028756 
    84a -> 109a  :     0.016093 

STATE 25:  E=   0.248782 au      6.770 eV    54601.2 cm**-1 <S**2> =   0.000000
    77a ->  86a  :     0.033839 
    78a ->  87a  :     0.027808 
    78a ->  88a  :     0.012620 
    78a ->  89a  :     0.012689 
    81a ->  87a  :     0.027351 
    81a ->  90a  :     0.021571 
    82a ->  86a  :     0.022854 
    82a ->  87a  :     0.016479 
    82a ->  89a  :     0.016629 
    83a ->  86a  :     0.016831 
    83a ->  87a  :     0.049779 
    83a ->  88a  :     0.527943 
    83a ->  94a  :     0.013131 
    84a ->  88a  :     0.030203 

STATE 26:  E=   0.257195 au      6.999 eV    56447.7 cm**-1 <S**2> =   0.000000
    77a ->  86a  :     0.051513 
    78a ->  85a  :     0.017479 
    78a ->  86a  :     0.102349 
    78a ->  87a  :     0.014329 
    78a ->  90a  :     0.019646 
    79a ->  86a  :     0.016964 
    79a ->  87a  :     0.016820 
    79a ->  90a  :     0.010976 
    81a ->  87a  :     0.040839 
    81a ->  89a  :     0.013331 
    82a ->  85a  :     0.030322 
    82a ->  86a  :     0.017955 
    82a ->  87a  :     0.018892 
    82a ->  89a  :     0.015640 
    82a ->  90a  :     0.024780 
    83a ->  86a  :     0.021505 
    83a ->  87a  :     0.022241 
    83a ->  88a  :     0.023033 
    83a ->  89a  :     0.085195 
    83a ->  92a  :     0.033177 
    83a ->  93a  :     0.024315 
    83a ->  95a  :     0.029104 
    84a ->  89a  :     0.040320 
    84a ->  92a  :     0.052227 
    84a ->  94a  :     0.015765 
    84a ->  95a  :     0.011199 
    84a ->  96a  :     0.018465 

STATE 27:  E=   0.258744 au      7.041 eV    56787.8 cm**-1 <S**2> =   0.000000
    75a ->  85a  :     0.061490 
    77a ->  89a  :     0.012146 
    78a ->  85a  :     0.145084 
    78a ->  86a  :     0.023041 
    79a ->  87a  :     0.011261 
    81a ->  86a  :     0.013920 
    81a ->  87a  :     0.020612 
    81a ->  89a  :     0.013068 
    82a ->  85a  :     0.163758 
    82a ->  91a  :     0.015968 
    82a ->  92a  :     0.010952 
    83a ->  89a  :     0.029288 
    83a ->  90a  :     0.020986 
    83a ->  92a  :     0.063991 
    83a ->  94a  :     0.085197 
    83a ->  95a  :     0.010098 
    84a ->  87a  :     0.014413 
    84a ->  92a  :     0.028259 
    84a ->  94a  :     0.025224 

STATE 28:  E=   0.263799 au      7.178 eV    57897.2 cm**-1 <S**2> =   0.000000
    74a ->  85a  :     0.045244 
    75a ->  85a  :     0.098149 
    76a ->  85a  :     0.012976 
    77a ->  86a  :     0.040625 
    78a ->  85a  :     0.041135 
    80a ->  85a  :     0.108215 
    80a ->  86a  :     0.022690 
    81a ->  85a  :     0.014265 
    81a ->  87a  :     0.024430 
    81a ->  90a  :     0.021978 
    82a ->  85a  :     0.064739 
    83a ->  90a  :     0.017955 
    83a ->  93a  :     0.034126 
    83a ->  94a  :     0.082923 
    83a ->  95a  :     0.049412 
    83a ->  97a  :     0.016126 
    84a ->  91a  :     0.012433 
    84a ->  94a  :     0.017581 
    84a ->  95a  :     0.013011 

STATE 29:  E=   0.260168 au      7.080 eV    57100.4 cm**-1 <S**2> =   0.000000
    74a ->  85a  :     0.072768 
    75a ->  85a  :     0.022582 
    76a ->  85a  :     0.042948 
    77a ->  85a  :     0.030756 
    78a ->  85a  :     0.016562 
    78a ->  86a  :     0.015943 
    79a ->  85a  :     0.019022 
    80a ->  85a  :     0.315733 
    80a ->  86a  :     0.081378 
    80a ->  91a  :     0.017405 
    81a ->  90a  :     0.016070 
    82a ->  85a  :     0.083869 
    83a ->  93a  :     0.010423 
    83a ->  94a  :     0.029701 
    84a ->  91a  :     0.016036 
    84a ->  94a  :     0.018064 

STATE 30:  E=   0.262309 au      7.138 eV    57570.1 cm**-1 <S**2> =   0.000000
    77a ->  86a  :     0.041755 
    78a ->  85a  :     0.042778 
    78a ->  86a  :     0.092149 
    78a ->  87a  :     0.014065 
    78a ->  90a  :     0.020098 
    79a ->  86a  :     0.028708 
    81a ->  90a  :     0.047206 
    82a ->  85a  :     0.014545 
    82a ->  86a  :     0.046061 
    82a ->  90a  :     0.014429 
    83a ->  86a  :     0.016784 
    83a ->  87a  :     0.031630 
    83a ->  88a  :     0.010033 
    83a ->  89a  :     0.056870 
    83a ->  90a  :     0.101520 
    83a ->  91a  :     0.056895 
    83a ->  94a  :     0.075412 
    83a -> 108a  :     0.013455 
    84a ->  91a  :     0.042994 
    84a ->  94a  :     0.015380 


-------------------------
TD-DFT-EXCITATION SPECTRA
-------------------------

Center of mass = (  0.0012, -0.0593,  0.0147)
Calculating the Dipole integrals                  ... done
Transforming integrals                            ... done
Calculating the Linear Momentum integrals         ... done
Transforming integrals                            ... done
Calculating angular momentum integrals            ... done
Transforming integrals                            ... done

-----------------------------------------------------------------------------
         ABSORPTION SPECTRUM VIA TRANSITION ELECTRIC DIPOLE MOMENTS
-----------------------------------------------------------------------------
State   Energy    Wavelength  fosc         T2        TX        TY        TZ  
        (cm-1)      (nm)                 (au**2)    (au)      (au)      (au) 
-----------------------------------------------------------------------------
   1   32630.3    306.5   0.010559280   0.10653   0.13470  -0.29600  -0.02785
   2   31449.4    318.0   0.173145239   1.81248   1.05528   0.82538  -0.13269
   3   36699.6    272.5   0.047875614   0.42947   0.58053  -0.27667  -0.12610
   4   36413.0    274.6   0.106665479   0.96437   0.87966  -0.39244   0.19119
   5   39005.2    256.4   1.652370253  13.94633   3.68221   0.61846  -0.07198
   6   42793.5    233.7   0.074052377   0.56969  -0.71336  -0.22509   0.10069
   7   41446.5    241.3   0.043907001   0.34876   0.58120  -0.08611  -0.05956
   8   42980.1    232.7   0.015304555   0.11723  -0.32599  -0.01605  -0.10345
   9   44900.1    222.7   0.326414492   2.39330  -1.32096   0.78812  -0.16504
  10   46249.9    216.2   0.105247356   0.74916  -0.68548  -0.51453   0.12058
  11   47416.2    210.9   0.299775392   2.08135   0.98027   1.03244   0.23342
  12   48051.1    208.1   0.284778046   1.95110  -1.02426  -0.94275  -0.11492
  13   46331.3    215.8   0.146363180   1.04000   0.41391  -0.92763   0.09039
  14   49029.2    204.0   0.445513526   2.99145   0.71704  -1.56304  -0.18496
  15   49304.0    202.8   0.146998734   0.98154  -0.05996   0.91361  -0.37849
  16   51591.3    193.8   0.041587246   0.26537   0.45136   0.19520  -0.15343
  17   51132.0    195.6   0.121661444   0.78331  -0.86320   0.17597   0.08500
  18   54286.5    184.2   0.605658521   3.67292  -0.04957  -0.28521   1.89450
  19   51660.4    193.6   0.245606535   1.56516   0.26880   1.21555  -0.12381
  20   54200.4    184.5   0.666886469   4.05065  -0.03141   2.00099   0.21375
  21   54119.8    184.8   0.092591369   0.56324  -0.54398   0.51544  -0.04064
  22   54854.9    182.3   0.080379240   0.48240   0.40871  -0.48779  -0.27823
  23   54033.7    185.1   0.038044877   0.23180   0.25348   0.38020  -0.15162
  24   54974.2    181.9   0.004629998   0.02773  -0.15876   0.05022  -0.00035
  25   54601.2    183.1   0.021312541   0.12850   0.28446   0.14635   0.16175
  26   56447.7    177.2   0.000674076   0.00393   0.03253  -0.01946  -0.04994
  27   56787.8    176.1   0.036433703   0.21121  -0.33518   0.15308  -0.27466
  28   57897.2    172.7   0.011693498   0.06649  -0.20007  -0.06587  -0.14874
  29   57100.4    175.1   0.009327331   0.05378  -0.09612  -0.03006   0.20889
  30   57570.1    173.7   0.016535811   0.09456  -0.14848   0.26425  -0.05179

-----------------------------------------------------------------------------
         ABSORPTION SPECTRUM VIA TRANSITION VELOCITY DIPOLE MOMENTS
-----------------------------------------------------------------------------
State   Energy    Wavelength   fosc        P2         PX        PY        PZ  
        (cm-1)      (nm)                 (au**2)     (au)      (au)      (au) 
-----------------------------------------------------------------------------
   1   32630.3    306.5   0.012294619   0.00274  -0.02055   0.04791   0.00489
   2   31449.4    318.0   0.204773094   0.04401  -0.16356  -0.12954   0.02191
   3   36699.6    272.5   0.054284505   0.01362  -0.10192   0.05183   0.02328
   4   36413.0    274.6   0.127718869   0.03178  -0.15951   0.07065  -0.03672
   5   39005.2    256.4   1.856049520   0.49479  -0.69372  -0.11551   0.01400
   6   42793.5    233.7   0.082495102   0.02413   0.14692   0.04592  -0.02080
   7   41446.5    241.3   0.052764761   0.01495  -0.12029   0.01802   0.01231
   8   42980.1    232.7   0.017434816   0.00512   0.06831   0.00315   0.02111
   9   44900.1    222.7   0.355927711   0.10922   0.28112  -0.17015   0.03532
  10   46249.9    216.2   0.112891999   0.03568   0.14844   0.11391  -0.02596
  11   47416.2    210.9   0.319743912   0.10362  -0.21725  -0.23125  -0.05425
  12   48051.1    208.1   0.300051816   0.09854   0.22815   0.21381   0.02775
  13   46331.3    215.8   0.176544336   0.05590  -0.09828   0.21414  -0.01968
  14   49029.2    204.0   0.488154311   0.16358  -0.16501   0.36663   0.04393
  15   49304.0    202.8   0.168800576   0.05688   0.01371  -0.22088   0.08892
  16   51591.3    193.8   0.044937058   0.01584  -0.11176  -0.04550   0.03584
  17   51132.0    195.6   0.138378473   0.04836   0.21452  -0.04233  -0.02335
  18   54286.5    184.2   0.642431294   0.23836   0.01278   0.07179  -0.48274
  19   51660.4    193.6   0.288788263   0.10196  -0.06840  -0.31036   0.03105
  20   54200.4    184.5   0.726069778   0.26896   0.00883  -0.51561  -0.05500
  21   54119.8    184.8   0.102222927   0.03781   0.14135  -0.13274   0.01448
  22   54854.9    182.3   0.090229570   0.03383  -0.10873   0.12974   0.07192
  23   54033.7    185.1   0.045569948   0.01683  -0.06693  -0.10362   0.04016
  24   54974.2    181.9   0.005216336   0.00196   0.04257  -0.01198   0.00210
  25   54601.2    183.1   0.025103205   0.00937  -0.07653  -0.03921  -0.04443
  26   56447.7    177.2   0.000588251   0.00023  -0.00856   0.00360   0.01187
  27   56787.8    176.1   0.041435103   0.01608   0.09354  -0.04504   0.07283
  28   57897.2    172.7   0.012170357   0.00482   0.05846   0.01454   0.03444
  29   57100.4    175.1   0.009631245   0.00376   0.02560   0.00949  -0.05489
  30   57570.1    173.7   0.018286820   0.00720   0.04182  -0.07212   0.01562

-------------------------------------------------------------------
                             CD SPECTRUM
-------------------------------------------------------------------
State  Energy     Wavelength     R         MX        MY        MZ   
       (cm-1)       (nm)     (1e40*cgs)   (au)      (au)      (au)  
-------------------------------------------------------------------
   1   32630.3    306.5    -42.11342  -0.09718   0.17135   0.91620
   2   31449.4    318.0     19.09731   0.04531   0.03444   0.26930
   3   36699.6    272.5    108.69705   0.07223  -0.17340  -1.11541
   4   36413.0    274.6    -29.38096  -0.07298  -0.01963  -0.03050
   5   39005.2    256.4    -25.94778  -0.05184   0.29747   0.66854
   6   42793.5    233.7    -37.12672  -0.01964   0.04152  -0.82844
   7   41446.5    241.3      4.27889   0.00507  -0.18849   0.16962
   8   42980.1    232.7      9.98864  -0.04586   0.05553  -0.06891
   9   44900.1    222.7    -55.34307  -0.00971  -0.04768   0.56134
  10   46249.9    216.2    -32.19643   0.00146  -0.09975  -0.98366
  11   47416.2    210.9    -30.42548  -0.08679   0.05777  -0.16750
  12   48051.1    208.1     96.62651  -0.01171  -0.13467  -0.57427
  13   46331.3    215.8    -21.57191  -0.20371   0.03492   0.78500
  14   49029.2    204.0    -80.04571  -0.13549  -0.01780   0.54314
  15   49304.0    202.8     46.25457   0.33960  -0.05019  -0.43416
  16   51591.3    193.8    -33.61397  -0.04290   0.03337   0.38095
  17   51132.0    195.6    -53.36981   0.06664  -0.03080  -0.59124
  18   54286.5    184.2     67.00468   1.56288   0.74426   0.22795
  19   51660.4    193.6     21.24235  -0.01339   0.01413  -0.25431
  20   54200.4    184.5     52.64713   0.09612   0.08630  -0.27137
  21   54119.8    184.8     37.63077  -0.10042   0.04661  -0.02875
  22   54854.9    182.3    -16.84527  -0.20932  -0.07755  -0.04310
  23   54033.7    185.1    -36.69310  -0.04319  -0.07062   0.26403
  24   54974.2    181.9      5.49173  -0.05151   0.07018   0.15460
  25   54601.2    183.1     22.07551   0.07282   0.05269   0.11375
  26   56447.7    177.2     -4.52366  -0.04226  -0.07819   0.19505
  27   56787.8    176.1     32.50216   0.01826  -0.07623  -0.31578
  28   57897.2    172.7      0.17668   0.15171   0.06446  -0.23513
  29   57100.4    175.1      2.59534   0.02670   0.08997   0.05159
  30   57570.1    173.7      2.64332   0.08001  -0.01311  -0.40453

Total run time:     2019.493 sec

           *** ORCA-CIS/TD-DFT FINISHED WITHOUT ERROR ***

Maximum memory used throughout the entire CIS-calculation: 3970.5 MB

-----------------------
CIS/TD-DFT TOTAL ENERGY
-----------------------

    E(SCF)  =  -1297.500969523 Eh
    DE(CIS) =      0.148674801 Eh (Root  1)
    ----------------------------- ---------
    E(tot)  =  -1297.352294722 Eh


-------------------------   --------------------
FINAL SINGLE POINT ENERGY     -1297.352294722363
-------------------------   --------------------


                            ***************************************
                            *     ORCA property calculations      *
                            ***************************************


  WARNING: The energy has been calculated at the MP2 level but the densities
           used in the property calculations are still SCF densities
           MP2 response densities have not been calculated 
           use %mp2 Density relaxed end
           or  %mp2 Density unrelaxed end

                                    ---------------------
                                    Active property flags
                                    ---------------------
   (+) Dipole Moment


------------------------------------------------------------------------------
                       ORCA ELECTRIC PROPERTIES CALCULATION
------------------------------------------------------------------------------

Dipole Moment Calculation                       ... on
Quadrupole Moment Calculation                   ... off
Polarizability Calculation                      ... off
GBWName                                         ... PTZ_3_M06L_def2TZVP_coords.gbw
Electron density                                ... PTZ_3_M06L_def2TZVP_coords.scfp
The origin for moment calculation is the CENTER OF MASS  = ( 0.001174, -0.059330  0.014734)

-------------
DIPOLE MOMENT
-------------
                                X             Y             Z
Electronic contribution:     -0.19808      -8.87665       2.18467
Nuclear contribution   :     -0.19956      10.08607      -2.50481
                        -----------------------------------------
Total Dipole Moment    :     -0.39764       1.20942      -0.32015
                        -----------------------------------------
Magnitude (a.u.)       :      1.31275
Magnitude (Debye)      :      3.33674



--------------------
Rotational spectrum 
--------------------
 
Rotational constants in cm-1:     0.010608     0.006356     0.004225 
Rotational constants in MHz :   318.005228   190.553560   126.647559 

 Dipole components along the rotational axes: 
x,y,z [a.u.] :    -0.393166     1.211495    -0.317819 
x,y,z [Debye]:    -0.999349     3.079376    -0.807831 

 

Timings for individual modules:

Sum of individual times         ...     2440.226 sec (=  40.670 min)
GTO integral calculation        ...        1.264 sec (=   0.021 min)   0.1 %
SCF iterations                  ...      287.668 sec (=   4.794 min)  11.8 %
MP2 module                      ...      131.106 sec (=   2.185 min)   5.4 %
CIS module                      ...     2020.189 sec (=  33.670 min)  82.8 %
                             ****ORCA TERMINATED NORMALLY****
TOTAL RUN TIME: 0 days 0 hours 40 minutes 42 seconds 15 msec
