 Entering Gaussian System, Link 0=g09
 Input=/home/png4rjv/fotokatalizis/benchmark/OPCs/PTZ_3_B97D3_def2TZVP.gjf
 Output=/home/png4rjv/fotokatalizis/benchmark/OPCs/PTZ_3_B97D3_def2TZVP.log
 Initial command:
 /opt/nce/packages/global/g09/l1.exe "/home/png4rjv/fotokatalizis/benchmark/OPCs/PTZ_3_B97D3_def2TZVP/Gau-65292.inp" -scrdir="/home/png4rjv/fotokatalizis/benchmark/OPCs/PTZ_3_B97D3_def2TZVP/"
 Default is to use a total of  12 processors:
                               12 via shared-memory
                                1 via Linda
 Entering Link 1 = /opt/nce/packages/global/g09/l1.exe PID=     65293.
  
 Copyright (c) 1988,1990,1992,1993,1995,1998,2003,2009,2015,
            Gaussian, Inc.  All Rights Reserved.
  
 This is part of the Gaussian(R) 09 program.  It is based on
 the Gaussian(R) 03 system (copyright 2003, Gaussian, Inc.),
 the Gaussian(R) 98 system (copyright 1998, Gaussian, Inc.),
 the Gaussian(R) 94 system (copyright 1995, Gaussian, Inc.),
 the Gaussian 92(TM) system (copyright 1992, Gaussian, Inc.),
 the Gaussian 90(TM) system (copyright 1990, Gaussian, Inc.),
 the Gaussian 88(TM) system (copyright 1988, Gaussian, Inc.),
 the Gaussian 86(TM) system (copyright 1986, Carnegie Mellon
 University), and the Gaussian 82(TM) system (copyright 1983,
 Carnegie Mellon University). Gaussian is a federally registered
 trademark of Gaussian, Inc.
  
 This software contains proprietary and confidential information,
 including trade secrets, belonging to Gaussian, Inc.
  
 This software is provided under written license and may be
 used, copied, transmitted, or stored only in accord with that
 written license.
  
 The following legend is applicable only to US Government
 contracts under FAR:
  
                    RESTRICTED RIGHTS LEGEND
  
 Use, reproduction and disclosure by the US Government is
 subject to restrictions as set forth in subparagraphs (a)
 and (c) of the Commercial Computer Software - Restricted
 Rights clause in FAR 52.227-19.
  
 Gaussian, Inc.
 340 Quinnipiac St., Bldg. 40, Wallingford CT 06492
  
  
 ---------------------------------------------------------------
 Warning -- This program may not be used in any manner that
 competes with the business of Gaussian, Inc. or will provide
 assistance to any competitor of Gaussian, Inc.  The licensee
 of this program is prohibited from giving any competitor of
 Gaussian, Inc. access to this program.  By using this program,
 the user acknowledges that Gaussian, Inc. is engaged in the
 business of creating and licensing software in the field of
 computational chemistry and represents and warrants to the
 licensee that it is not a competitor of Gaussian, Inc. and that
 it will not use this program in any manner prohibited above.
 ---------------------------------------------------------------
  

 Cite this work as:
 Gaussian 09, Revision E.01,
 M. J. Frisch, G. W. Trucks, H. B. Schlegel, G. E. Scuseria, 
 M. A. Robb, J. R. Cheeseman, G. Scalmani, V. Barone, B. Mennucci, 
 G. A. Petersson, H. Nakatsuji, M. Caricato, X. Li, H. P. Hratchian, 
 A. F. Izmaylov, J. Bloino, G. Zheng, J. L. Sonnenberg, M. Hada, 
 M. Ehara, K. Toyota, R. Fukuda, J. Hasegawa, M. Ishida, T. Nakajima, 
 Y. Honda, O. Kitao, H. Nakai, T. Vreven, J. A. Montgomery, Jr., 
 J. E. Peralta, F. Ogliaro, M. Bearpark, J. J. Heyd, E. Brothers, 
 K. N. Kudin, V. N. Staroverov, T. Keith, R. Kobayashi, J. Normand, 
 K. Raghavachari, A. Rendell, J. C. Burant, S. S. Iyengar, J. Tomasi, 
 M. Cossi, N. Rega, J. M. Millam, M. Klene, J. E. Knox, J. B. Cross, 
 V. Bakken, C. Adamo, J. Jaramillo, R. Gomperts, R. E. Stratmann, 
 O. Yazyev, A. J. Austin, R. Cammi, C. Pomelli, J. W. Ochterski, 
 R. L. Martin, K. Morokuma, V. G. Zakrzewski, G. A. Voth, 
 P. Salvador, J. J. Dannenberg, S. Dapprich, A. D. Daniels, 
 O. Farkas, J. B. Foresman, J. V. Ortiz, J. Cioslowski, 
 and D. J. Fox, Gaussian, Inc., Wallingford CT, 2013.
 
 ******************************************
 Gaussian 09:  ES64L-G09RevE.01 30-Nov-2015
                30-Mar-2021 
 ******************************************
 %chk=cp.chk
 Default route:  MaxDisk=500GB
 ----------------------------------------------------------------------
 #p B97D3/def2TZVP opt freq=noraman nosymm int=ultrafine scrf=(SMD,solv
 ent=n,n-DiMethylAcetamide)
 ----------------------------------------------------------------------
 1/14=-1,18=20,19=15,26=4,38=1/1,3;
 2/9=110,12=2,15=1,17=6,18=5,40=1/2;
 3/5=44,7=101,11=2,16=1,25=1,30=1,70=32201,71=1,72=147,74=-59,75=-5/1,2,3;
 4//1;
 5/5=2,38=5,53=147/2;
 6/7=2,8=2,9=2,10=2,28=1/1;
 7/30=1/1,2,3,16;
 1/14=-1,18=20,19=15,26=4/3(2);
 2/9=110,15=1/2;
 99//99;
 2/9=110,15=1/2;
 3/5=44,7=101,11=2,16=1,25=1,30=1,70=32205,71=1,72=147,74=-59,75=-5/1,2,3;
 4/5=5,16=3,69=1/1;
 5/5=2,38=5,53=147/2;
 7/30=1/1,2,3,16;
 1/14=-1,18=20,19=15,26=4/3(-5);
 2/9=110,15=1/2;
 6/7=2,8=2,9=2,10=2,19=2,28=1/1;
 99/9=1/99;
 Leave Link    1 at Tue Mar 30 05:49:22 2021, MaxMem=           0 cpu:         0.9
 (Enter /opt/nce/packages/global/g09/l101.exe)
 -----
 Title
 -----
 Symbolic Z-matrix:
 Charge =  0 Multiplicity = 1
 C                    -4.19564  -2.38189  -0.50941 
 C                    -2.96572  -2.88317  -0.07943 
 C                    -1.89702  -2.02353   0.19069 
 C                    -2.0238   -0.63188  -0.00946 
 C                    -3.26911  -0.1429   -0.44488 
 C                    -4.34124  -1.00549  -0.68093 
 C                     0.41037  -0.16001   0.16694 
 C                     0.77082  -1.5332    0.36826 
 C                     2.08315  -1.94148   0.26378 
 H                     2.32512  -2.99764   0.40619 
 C                     3.13315  -1.01954   0.01023 
 C                     2.79076   0.36067  -0.14814 
 C                     1.42706   0.7515   -0.07619 
 H                    -2.82602  -3.95659   0.06879 
 H                    -3.40422   0.92687  -0.59258 
 H                    -5.29533  -0.58813  -1.0107 
 C                    -1.20918   1.65135   0.2301 
 C                    -1.42502   2.30435   1.44607 
 C                    -1.25127   2.37076  -0.97052 
 C                    -1.68499   3.6773    1.46336 
 C                    -1.51108   3.74235  -0.95079 
 C                    -1.72821   4.39702   0.26622 
 H                    -1.85396   4.18578   2.41532 
 H                    -1.54426   4.30245  -1.88816 
 H                    -1.38581   1.72408   2.36966 
 H                    -1.07865   1.84601  -1.91224 
 H                    -1.93134   5.47032   0.28031 
 H                    -5.02743  -3.06178  -0.7039 
 N                    -0.94104   0.24261   0.23148 
 H                     1.19072   1.80492  -0.21515 
 S                    -0.43433  -2.70736   0.9201 
 C                     3.8311    1.29818  -0.38901 
 C                     5.14661   0.88807  -0.47321 
 H                     5.93565   1.62053  -0.65997 
 C                     4.4939   -1.41288  -0.08081 
 C                     5.48264  -0.47916  -0.31869 
 H                     6.52714  -0.7918   -0.38784 
 H                     4.74624  -2.46945   0.04176 
 H                     3.5715    2.3533   -0.50875 
 
 NAtoms=     39 NQM=       39 NQMF=       0 NMMI=      0 NMMIF=      0
                NMic=       0 NMicF=      0.
                    Isotopes and Nuclear Properties:
 (Nuclear quadrupole moments (NQMom) in fm**2, nuclear magnetic moments (NMagM)
  in nuclear magnetons)

  Atom         1           2           3           4           5           6           7           8           9          10
 IAtWgt=          12          12          12          12          12          12          12          12          12           1
 AtmWgt=  12.0000000  12.0000000  12.0000000  12.0000000  12.0000000  12.0000000  12.0000000  12.0000000  12.0000000   1.0078250
 NucSpn=           0           0           0           0           0           0           0           0           0           1
 AtZEff=   0.0000000   0.0000000   0.0000000   0.0000000   0.0000000   0.0000000   0.0000000   0.0000000   0.0000000   0.0000000
 NQMom=    0.0000000   0.0000000   0.0000000   0.0000000   0.0000000   0.0000000   0.0000000   0.0000000   0.0000000   0.0000000
 NMagM=    0.0000000   0.0000000   0.0000000   0.0000000   0.0000000   0.0000000   0.0000000   0.0000000   0.0000000   2.7928460
 AtZNuc=   6.0000000   6.0000000   6.0000000   6.0000000   6.0000000   6.0000000   6.0000000   6.0000000   6.0000000   1.0000000

  Atom        11          12          13          14          15          16          17          18          19          20
 IAtWgt=          12          12          12           1           1           1          12          12          12          12
 AtmWgt=  12.0000000  12.0000000  12.0000000   1.0078250   1.0078250   1.0078250  12.0000000  12.0000000  12.0000000  12.0000000
 NucSpn=           0           0           0           1           1           1           0           0           0           0
 AtZEff=   0.0000000   0.0000000   0.0000000   0.0000000   0.0000000   0.0000000   0.0000000   0.0000000   0.0000000   0.0000000
 NQMom=    0.0000000   0.0000000   0.0000000   0.0000000   0.0000000   0.0000000   0.0000000   0.0000000   0.0000000   0.0000000
 NMagM=    0.0000000   0.0000000   0.0000000   2.7928460   2.7928460   2.7928460   0.0000000   0.0000000   0.0000000   0.0000000
 AtZNuc=   6.0000000   6.0000000   6.0000000   1.0000000   1.0000000   1.0000000   6.0000000   6.0000000   6.0000000   6.0000000

  Atom        21          22          23          24          25          26          27          28          29          30
 IAtWgt=          12          12           1           1           1           1           1           1          14           1
 AtmWgt=  12.0000000  12.0000000   1.0078250   1.0078250   1.0078250   1.0078250   1.0078250   1.0078250  14.0030740   1.0078250
 NucSpn=           0           0           1           1           1           1           1           1           2           1
 AtZEff=   0.0000000   0.0000000   0.0000000   0.0000000   0.0000000   0.0000000   0.0000000   0.0000000   0.0000000   0.0000000
 NQMom=    0.0000000   0.0000000   0.0000000   0.0000000   0.0000000   0.0000000   0.0000000   0.0000000   2.0440000   0.0000000
 NMagM=    0.0000000   0.0000000   2.7928460   2.7928460   2.7928460   2.7928460   2.7928460   2.7928460   0.4037610   2.7928460
 AtZNuc=   6.0000000   6.0000000   1.0000000   1.0000000   1.0000000   1.0000000   1.0000000   1.0000000   7.0000000   1.0000000

  Atom        31          32          33          34          35          36          37          38          39
 IAtWgt=          32          12          12           1          12          12           1           1           1
 AtmWgt=  31.9720718  12.0000000  12.0000000   1.0078250  12.0000000  12.0000000   1.0078250   1.0078250   1.0078250
 NucSpn=           0           0           0           1           0           0           1           1           1
 AtZEff=   0.0000000   0.0000000   0.0000000   0.0000000   0.0000000   0.0000000   0.0000000   0.0000000   0.0000000
 NQMom=    0.0000000   0.0000000   0.0000000   0.0000000   0.0000000   0.0000000   0.0000000   0.0000000   0.0000000
 NMagM=    0.0000000   0.0000000   0.0000000   2.7928460   0.0000000   0.0000000   2.7928460   2.7928460   2.7928460
 AtZNuc=  16.0000000   6.0000000   6.0000000   1.0000000   6.0000000   6.0000000   1.0000000   1.0000000   1.0000000
 Leave Link  101 at Tue Mar 30 05:49:22 2021, MaxMem=  5242880000 cpu:         4.2
 (Enter /opt/nce/packages/global/g09/l103.exe)

 GradGradGradGradGradGradGradGradGradGradGradGradGradGradGradGradGradGrad
 Berny optimization.
 Initialization pass.
                           ----------------------------
                           !    Initial Parameters    !
                           ! (Angstroms and Degrees)  !
 --------------------------                            --------------------------
 ! Name  Definition              Value          Derivative Info.                !
 --------------------------------------------------------------------------------
 ! R1    R(1,2)                  1.396          estimate D2E/DX2                !
 ! R2    R(1,6)                  1.3947         estimate D2E/DX2                !
 ! R3    R(1,28)                 1.0918         estimate D2E/DX2                !
 ! R4    R(2,3)                  1.3979         estimate D2E/DX2                !
 ! R5    R(2,14)                 1.0926         estimate D2E/DX2                !
 ! R6    R(3,4)                  1.4117         estimate D2E/DX2                !
 ! R7    R(3,31)                 1.7718         estimate D2E/DX2                !
 ! R8    R(4,5)                  1.4069         estimate D2E/DX2                !
 ! R9    R(4,29)                 1.4125         estimate D2E/DX2                !
 ! R10   R(5,6)                  1.3962         estimate D2E/DX2                !
 ! R11   R(5,15)                 1.0883         estimate D2E/DX2                !
 ! R12   R(6,16)                 1.0923         estimate D2E/DX2                !
 ! R13   R(7,8)                  1.4339         estimate D2E/DX2                !
 ! R14   R(7,13)                 1.3869         estimate D2E/DX2                !
 ! R15   R(7,29)                 1.4116         estimate D2E/DX2                !
 ! R16   R(8,9)                  1.3783         estimate D2E/DX2                !
 ! R17   R(8,31)                 1.7707         estimate D2E/DX2                !
 ! R18   R(9,10)                 1.0928         estimate D2E/DX2                !
 ! R19   R(9,11)                 1.4201         estimate D2E/DX2                !
 ! R20   R(11,12)                1.4308         estimate D2E/DX2                !
 ! R21   R(11,35)                1.4194         estimate D2E/DX2                !
 ! R22   R(12,13)                1.4204         estimate D2E/DX2                !
 ! R23   R(12,32)                1.421          estimate D2E/DX2                !
 ! R24   R(13,30)                1.0885         estimate D2E/DX2                !
 ! R25   R(17,18)                1.397          estimate D2E/DX2                !
 ! R26   R(17,19)                1.4003         estimate D2E/DX2                !
 ! R27   R(17,29)                1.434          estimate D2E/DX2                !
 ! R28   R(18,20)                1.3975         estimate D2E/DX2                !
 ! R29   R(18,25)                1.0914         estimate D2E/DX2                !
 ! R30   R(19,21)                1.3961         estimate D2E/DX2                !
 ! R31   R(19,26)                1.0918         estimate D2E/DX2                !
 ! R32   R(20,22)                1.3975         estimate D2E/DX2                !
 ! R33   R(20,23)                1.0924         estimate D2E/DX2                !
 ! R34   R(21,22)                1.3989         estimate D2E/DX2                !
 ! R35   R(21,24)                1.0925         estimate D2E/DX2                !
 ! R36   R(22,27)                1.0924         estimate D2E/DX2                !
 ! R37   R(32,33)                1.3805         estimate D2E/DX2                !
 ! R38   R(32,39)                1.0932         estimate D2E/DX2                !
 ! R39   R(33,34)                1.0927         estimate D2E/DX2                !
 ! R40   R(33,36)                1.4164         estimate D2E/DX2                !
 ! R41   R(35,36)                1.3806         estimate D2E/DX2                !
 ! R42   R(35,38)                1.0932         estimate D2E/DX2                !
 ! R43   R(36,37)                1.0925         estimate D2E/DX2                !
 ! A1    A(2,1,6)              118.9623         estimate D2E/DX2                !
 ! A2    A(2,1,28)             120.1646         estimate D2E/DX2                !
 ! A3    A(6,1,28)             120.8729         estimate D2E/DX2                !
 ! A4    A(1,2,3)              120.814          estimate D2E/DX2                !
 ! A5    A(1,2,14)             120.4785         estimate D2E/DX2                !
 ! A6    A(3,2,14)             118.6994         estimate D2E/DX2                !
 ! A7    A(2,3,4)              120.6758         estimate D2E/DX2                !
 ! A8    A(2,3,31)             118.2522         estimate D2E/DX2                !
 ! A9    A(4,3,31)             120.8639         estimate D2E/DX2                !
 ! A10   A(3,4,5)              117.7741         estimate D2E/DX2                !
 ! A11   A(3,4,29)             121.1512         estimate D2E/DX2                !
 ! A12   A(5,4,29)             121.072          estimate D2E/DX2                !
 ! A13   A(4,5,6)              121.1512         estimate D2E/DX2                !
 ! A14   A(4,5,15)             119.5707         estimate D2E/DX2                !
 ! A15   A(6,5,15)             119.276          estimate D2E/DX2                !
 ! A16   A(1,6,5)              120.5822         estimate D2E/DX2                !
 ! A17   A(1,6,16)             120.3572         estimate D2E/DX2                !
 ! A18   A(5,6,16)             119.0585         estimate D2E/DX2                !
 ! A19   A(8,7,13)             118.0166         estimate D2E/DX2                !
 ! A20   A(8,7,29)             120.4897         estimate D2E/DX2                !
 ! A21   A(13,7,29)            121.49           estimate D2E/DX2                !
 ! A22   A(7,8,9)              120.8207         estimate D2E/DX2                !
 ! A23   A(7,8,31)             120.5098         estimate D2E/DX2                !
 ! A24   A(9,8,31)             118.3726         estimate D2E/DX2                !
 ! A25   A(8,9,10)             119.1562         estimate D2E/DX2                !
 ! A26   A(8,9,11)             121.6819         estimate D2E/DX2                !
 ! A27   A(10,9,11)            119.1414         estimate D2E/DX2                !
 ! A28   A(9,11,12)            117.9732         estimate D2E/DX2                !
 ! A29   A(9,11,35)            122.7091         estimate D2E/DX2                !
 ! A30   A(12,11,35)           119.3161         estimate D2E/DX2                !
 ! A31   A(11,12,13)           119.3106         estimate D2E/DX2                !
 ! A32   A(11,12,32)           118.6841         estimate D2E/DX2                !
 ! A33   A(13,12,32)           122.0012         estimate D2E/DX2                !
 ! A34   A(7,13,12)            122.1282         estimate D2E/DX2                !
 ! A35   A(7,13,30)            119.95           estimate D2E/DX2                !
 ! A36   A(12,13,30)           117.9215         estimate D2E/DX2                !
 ! A37   A(18,17,19)           120.1002         estimate D2E/DX2                !
 ! A38   A(18,17,29)           119.1597         estimate D2E/DX2                !
 ! A39   A(19,17,29)           120.7397         estimate D2E/DX2                !
 ! A40   A(17,18,20)           119.9172         estimate D2E/DX2                !
 ! A41   A(17,18,25)           118.8481         estimate D2E/DX2                !
 ! A42   A(20,18,25)           121.2346         estimate D2E/DX2                !
 ! A43   A(17,19,21)           119.8815         estimate D2E/DX2                !
 ! A44   A(17,19,26)           119.2006         estimate D2E/DX2                !
 ! A45   A(21,19,26)           120.9179         estimate D2E/DX2                !
 ! A46   A(18,20,22)           120.075          estimate D2E/DX2                !
 ! A47   A(18,20,23)           119.7928         estimate D2E/DX2                !
 ! A48   A(22,20,23)           120.1322         estimate D2E/DX2                !
 ! A49   A(19,21,22)           120.0634         estimate D2E/DX2                !
 ! A50   A(19,21,24)           119.8155         estimate D2E/DX2                !
 ! A51   A(22,21,24)           120.1211         estimate D2E/DX2                !
 ! A52   A(20,22,21)           119.9626         estimate D2E/DX2                !
 ! A53   A(20,22,27)           120.0454         estimate D2E/DX2                !
 ! A54   A(21,22,27)           119.9921         estimate D2E/DX2                !
 ! A55   A(4,29,7)             123.3324         estimate D2E/DX2                !
 ! A56   A(4,29,17)            117.6902         estimate D2E/DX2                !
 ! A57   A(7,29,17)            117.3331         estimate D2E/DX2                !
 ! A58   A(3,31,8)             100.2322         estimate D2E/DX2                !
 ! A59   A(12,32,33)           120.7965         estimate D2E/DX2                !
 ! A60   A(12,32,39)           118.7836         estimate D2E/DX2                !
 ! A61   A(33,32,39)           120.4198         estimate D2E/DX2                !
 ! A62   A(32,33,34)           119.9604         estimate D2E/DX2                !
 ! A63   A(32,33,36)           120.4091         estimate D2E/DX2                !
 ! A64   A(34,33,36)           119.6305         estimate D2E/DX2                !
 ! A65   A(11,35,36)           120.678          estimate D2E/DX2                !
 ! A66   A(11,35,38)           118.8125         estimate D2E/DX2                !
 ! A67   A(36,35,38)           120.5095         estimate D2E/DX2                !
 ! A68   A(33,36,35)           120.1158         estimate D2E/DX2                !
 ! A69   A(33,36,37)           119.7465         estimate D2E/DX2                !
 ! A70   A(35,36,37)           120.1377         estimate D2E/DX2                !
 ! D1    D(6,1,2,3)              0.6868         estimate D2E/DX2                !
 ! D2    D(6,1,2,14)           179.6359         estimate D2E/DX2                !
 ! D3    D(28,1,2,3)          -179.141          estimate D2E/DX2                !
 ! D4    D(28,1,2,14)           -0.1918         estimate D2E/DX2                !
 ! D5    D(2,1,6,5)              0.8949         estimate D2E/DX2                !
 ! D6    D(2,1,6,16)          -179.6307         estimate D2E/DX2                !
 ! D7    D(28,1,6,5)          -179.2786         estimate D2E/DX2                !
 ! D8    D(28,1,6,16)            0.1958         estimate D2E/DX2                !
 ! D9    D(1,2,3,4)             -2.1877         estimate D2E/DX2                !
 ! D10   D(1,2,3,31)           172.6155         estimate D2E/DX2                !
 ! D11   D(14,2,3,4)           178.8447         estimate D2E/DX2                !
 ! D12   D(14,2,3,31)           -6.3521         estimate D2E/DX2                !
 ! D13   D(2,3,4,5)              2.04           estimate D2E/DX2                !
 ! D14   D(2,3,4,29)          -178.5576         estimate D2E/DX2                !
 ! D15   D(31,3,4,5)          -172.6267         estimate D2E/DX2                !
 ! D16   D(31,3,4,29)            6.7757         estimate D2E/DX2                !
 ! D17   D(2,3,31,8)           154.7103         estimate D2E/DX2                !
 ! D18   D(4,3,31,8)           -30.4967         estimate D2E/DX2                !
 ! D19   D(3,4,5,6)             -0.4667         estimate D2E/DX2                !
 ! D20   D(3,4,5,15)           178.9866         estimate D2E/DX2                !
 ! D21   D(29,4,5,6)          -179.8696         estimate D2E/DX2                !
 ! D22   D(29,4,5,15)           -0.4163         estimate D2E/DX2                !
 ! D23   D(3,4,29,7)            25.5814         estimate D2E/DX2                !
 ! D24   D(3,4,29,17)         -169.4462         estimate D2E/DX2                !
 ! D25   D(5,4,29,7)          -155.0359         estimate D2E/DX2                !
 ! D26   D(5,4,29,17)            9.9364         estimate D2E/DX2                !
 ! D27   D(4,5,6,1)             -1.001          estimate D2E/DX2                !
 ! D28   D(4,5,6,16)           179.5179         estimate D2E/DX2                !
 ! D29   D(15,5,6,1)           179.5441         estimate D2E/DX2                !
 ! D30   D(15,5,6,16)            0.063          estimate D2E/DX2                !
 ! D31   D(13,7,8,9)            -2.8201         estimate D2E/DX2                !
 ! D32   D(13,7,8,31)          170.8201         estimate D2E/DX2                !
 ! D33   D(29,7,8,9)           177.8728         estimate D2E/DX2                !
 ! D34   D(29,7,8,31)           -8.487          estimate D2E/DX2                !
 ! D35   D(8,7,13,12)            0.9038         estimate D2E/DX2                !
 ! D36   D(8,7,13,30)         -178.8672         estimate D2E/DX2                !
 ! D37   D(29,7,13,12)        -179.7964         estimate D2E/DX2                !
 ! D38   D(29,7,13,30)           0.4326         estimate D2E/DX2                !
 ! D39   D(8,7,29,4)           -24.5163         estimate D2E/DX2                !
 ! D40   D(8,7,29,17)          170.4615         estimate D2E/DX2                !
 ! D41   D(13,7,29,4)          156.2011         estimate D2E/DX2                !
 ! D42   D(13,7,29,17)          -8.8212         estimate D2E/DX2                !
 ! D43   D(7,8,9,10)          -178.9905         estimate D2E/DX2                !
 ! D44   D(7,8,9,11)             2.6731         estimate D2E/DX2                !
 ! D45   D(31,8,9,10)            7.2363         estimate D2E/DX2                !
 ! D46   D(31,8,9,11)         -171.1001         estimate D2E/DX2                !
 ! D47   D(7,8,31,3)            31.2111         estimate D2E/DX2                !
 ! D48   D(9,8,31,3)          -154.9956         estimate D2E/DX2                !
 ! D49   D(8,9,11,12)           -0.547          estimate D2E/DX2                !
 ! D50   D(8,9,11,35)          178.9908         estimate D2E/DX2                !
 ! D51   D(10,9,11,12)        -178.8837         estimate D2E/DX2                !
 ! D52   D(10,9,11,35)           0.6542         estimate D2E/DX2                !
 ! D53   D(9,11,12,13)          -1.3461         estimate D2E/DX2                !
 ! D54   D(9,11,12,32)         179.3767         estimate D2E/DX2                !
 ! D55   D(35,11,12,13)        179.0998         estimate D2E/DX2                !
 ! D56   D(35,11,12,32)         -0.1774         estimate D2E/DX2                !
 ! D57   D(9,11,35,36)        -179.4931         estimate D2E/DX2                !
 ! D58   D(9,11,35,38)           0.4509         estimate D2E/DX2                !
 ! D59   D(12,11,35,36)          0.0388         estimate D2E/DX2                !
 ! D60   D(12,11,35,38)        179.9828         estimate D2E/DX2                !
 ! D61   D(11,12,13,7)           1.1526         estimate D2E/DX2                !
 ! D62   D(11,12,13,30)       -179.0719         estimate D2E/DX2                !
 ! D63   D(32,12,13,7)        -179.5952         estimate D2E/DX2                !
 ! D64   D(32,12,13,30)          0.1803         estimate D2E/DX2                !
 ! D65   D(11,12,32,33)          0.1972         estimate D2E/DX2                !
 ! D66   D(11,12,32,39)       -179.9081         estimate D2E/DX2                !
 ! D67   D(13,12,32,33)       -179.0596         estimate D2E/DX2                !
 ! D68   D(13,12,32,39)          0.8351         estimate D2E/DX2                !
 ! D69   D(19,17,18,20)          0.0832         estimate D2E/DX2                !
 ! D70   D(19,17,18,25)       -179.894          estimate D2E/DX2                !
 ! D71   D(29,17,18,20)        179.8725         estimate D2E/DX2                !
 ! D72   D(29,17,18,25)         -0.1047         estimate D2E/DX2                !
 ! D73   D(18,17,19,21)         -0.0787         estimate D2E/DX2                !
 ! D74   D(18,17,19,26)        179.8883         estimate D2E/DX2                !
 ! D75   D(29,17,19,21)       -179.8646         estimate D2E/DX2                !
 ! D76   D(29,17,19,26)          0.1025         estimate D2E/DX2                !
 ! D77   D(18,17,29,4)          96.9081         estimate D2E/DX2                !
 ! D78   D(18,17,29,7)         -97.2062         estimate D2E/DX2                !
 ! D79   D(19,17,29,4)         -83.304          estimate D2E/DX2                !
 ! D80   D(19,17,29,7)          82.5816         estimate D2E/DX2                !
 ! D81   D(17,18,20,22)         -0.0463         estimate D2E/DX2                !
 ! D82   D(17,18,20,23)        179.9702         estimate D2E/DX2                !
 ! D83   D(25,18,20,22)        179.9304         estimate D2E/DX2                !
 ! D84   D(25,18,20,23)         -0.0531         estimate D2E/DX2                !
 ! D85   D(17,19,21,22)          0.0372         estimate D2E/DX2                !
 ! D86   D(17,19,21,24)       -179.9635         estimate D2E/DX2                !
 ! D87   D(26,19,21,22)       -179.9293         estimate D2E/DX2                !
 ! D88   D(26,19,21,24)          0.07           estimate D2E/DX2                !
 ! D89   D(18,20,22,21)          0.0049         estimate D2E/DX2                !
 ! D90   D(18,20,22,27)       -179.9911         estimate D2E/DX2                !
 ! D91   D(23,20,22,21)        179.9883         estimate D2E/DX2                !
 ! D92   D(23,20,22,27)         -0.0076         estimate D2E/DX2                !
 ! D93   D(19,21,22,20)         -0.0003         estimate D2E/DX2                !
 ! D94   D(19,21,22,27)        179.9956         estimate D2E/DX2                !
 ! D95   D(24,21,22,20)       -179.9996         estimate D2E/DX2                !
 ! D96   D(24,21,22,27)         -0.0037         estimate D2E/DX2                !
 ! D97   D(12,32,33,34)        179.9338         estimate D2E/DX2                !
 ! D98   D(12,32,33,36)         -0.0763         estimate D2E/DX2                !
 ! D99   D(39,32,33,34)          0.0409         estimate D2E/DX2                !
 ! D100  D(39,32,33,36)       -179.9693         estimate D2E/DX2                !
 ! D101  D(32,33,36,35)         -0.0674         estimate D2E/DX2                !
 ! D102  D(32,33,36,37)        179.9713         estimate D2E/DX2                !
 ! D103  D(34,33,36,35)        179.9225         estimate D2E/DX2                !
 ! D104  D(34,33,36,37)         -0.0388         estimate D2E/DX2                !
 ! D105  D(11,35,36,33)          0.0849         estimate D2E/DX2                !
 ! D106  D(11,35,36,37)       -179.9539         estimate D2E/DX2                !
 ! D107  D(38,35,36,33)       -179.8582         estimate D2E/DX2                !
 ! D108  D(38,35,36,37)          0.103          estimate D2E/DX2                !
 --------------------------------------------------------------------------------
 Trust Radius=3.00D-01 FncErr=1.00D-07 GrdErr=1.00D-06
 Number of steps in this run=    231 maximum allowed number of steps=    234.
 GradGradGradGradGradGradGradGradGradGradGradGradGradGradGradGradGradGrad

 Leave Link  103 at Tue Mar 30 05:49:22 2021, MaxMem=  5242880000 cpu:         0.2
 (Enter /opt/nce/packages/global/g09/l202.exe)
                          Input orientation:                          
 ---------------------------------------------------------------------
 Center     Atomic      Atomic             Coordinates (Angstroms)
 Number     Number       Type             X           Y           Z
 ---------------------------------------------------------------------
      1          6           0       -4.195640   -2.381889   -0.509409
      2          6           0       -2.965719   -2.883167   -0.079432
      3          6           0       -1.897024   -2.023528    0.190694
      4          6           0       -2.023805   -0.631880   -0.009455
      5          6           0       -3.269114   -0.142903   -0.444877
      6          6           0       -4.341245   -1.005492   -0.680932
      7          6           0        0.410374   -0.160012    0.166936
      8          6           0        0.770816   -1.533199    0.368262
      9          6           0        2.083152   -1.941475    0.263775
     10          1           0        2.325117   -2.997641    0.406185
     11          6           0        3.133153   -1.019539    0.010227
     12          6           0        2.790763    0.360674   -0.148140
     13          6           0        1.427059    0.751503   -0.076188
     14          1           0       -2.826023   -3.956585    0.068790
     15          1           0       -3.404222    0.926870   -0.592576
     16          1           0       -5.295333   -0.588129   -1.010701
     17          6           0       -1.209177    1.651351    0.230103
     18          6           0       -1.425016    2.304349    1.446070
     19          6           0       -1.251269    2.370763   -0.970518
     20          6           0       -1.684993    3.677298    1.463358
     21          6           0       -1.511081    3.742351   -0.950786
     22          6           0       -1.728209    4.397023    0.266220
     23          1           0       -1.853956    4.185776    2.415315
     24          1           0       -1.544263    4.302451   -1.888163
     25          1           0       -1.385807    1.724078    2.369655
     26          1           0       -1.078654    1.846005   -1.912236
     27          1           0       -1.931338    5.470316    0.280309
     28          1           0       -5.027429   -3.061776   -0.703902
     29          7           0       -0.941038    0.242611    0.231476
     30          1           0        1.190722    1.804919   -0.215152
     31         16           0       -0.434327   -2.707364    0.920097
     32          6           0        3.831095    1.298177   -0.389013
     33          6           0        5.146614    0.888074   -0.473214
     34          1           0        5.935646    1.620526   -0.659970
     35          6           0        4.493900   -1.412883   -0.080814
     36          6           0        5.482637   -0.479160   -0.318692
     37          1           0        6.527138   -0.791798   -0.387838
     38          1           0        4.746237   -2.469452    0.041762
     39          1           0        3.571500    2.353304   -0.508745
 ---------------------------------------------------------------------
                    Distance matrix (angstroms):
                    1          2          3          4          5
     1  C    0.000000
     2  C    1.396018   0.000000
     3  C    2.429445   1.397876   0.000000
     4  C    2.833611   2.441391   1.411672   0.000000
     5  C    2.423979   2.781123   2.413158   1.406942   0.000000
     6  C    1.394665   2.404067   2.787534   2.441515   1.396154
     7  C    5.158444   4.344453   2.966031   2.485760   3.730046
     8  C    5.114320   3.998067   2.718331   2.960566   4.349155
     9  C    6.341530   5.147395   3.981692   4.319351   5.690677
    10  H    6.613451   5.314308   4.338411   4.968169   6.337922
    11  C    7.472431   6.377883   5.132567   5.171545   6.478012
    12  C    7.514120   6.607898   5.270159   4.917770   6.088001
    13  C    6.451401   5.701520   4.338381   3.718422   4.794782
    14  H    2.165602   1.092571   2.148164   3.421014   3.873545
    15  H    3.403108   3.869365   3.404410   2.162240   1.088340
    16  H    2.162913   3.400230   3.879720   3.421594   2.150336
    17  C    5.072757   4.872690   3.738907   2.436011   2.813945
    18  C    5.784555   5.622388   4.530925   3.331447   3.600753
    19  C    5.609781   5.597960   4.590774   3.245970   3.265963
    20  C    6.849008   6.860041   5.845002   4.566507   4.554639
    21  C    6.701342   6.839058   5.890440   4.503653   4.294394
    22  C    7.255582   7.392704   6.423214   5.045120   4.846749
    23  H    7.561198   7.578241   6.595927   5.396125   5.377809
    24  H    7.321964   7.544876   6.668140   5.301615   4.981903
    25  H    5.748316   5.451684   4.365062   3.408481   3.867047
    26  H    5.436783   5.411585   4.479434   3.264016   3.302577
    27  H    8.210228   8.424965   7.494458   6.109772   5.815820
    28  H    1.091763   2.161599   3.417264   3.925355   3.417395
    29  N    4.246098   3.737176   2.459870   1.412504   2.454794
    30  H    6.828532   6.266783   4.935169   4.038995   4.872055
    31  S    4.036942   2.727253   1.771763   2.774552   4.059019
    32  C    8.830960   7.985998   6.646889   6.176491   7.245192
    33  C    9.898064   8.954734   7.650558   7.344402   8.478691
    34  H   10.894262   9.992726   8.680638   8.297552   9.374623
    35  C    8.753900   7.603134   6.425769   6.564719   7.874629
    36  C    9.865384   8.786991   7.556715   7.514361   8.759117
    37  H   10.840717   9.725393   8.533368   8.560804   9.817885
    38  H    8.959276   7.723996   6.659876   7.015181   8.360353
    39  H    9.096731   8.386905   7.039221   6.361450   7.282110
                    6          7          8          9         10
     6  C    0.000000
     7  C    4.900163   0.000000
     8  C    5.245231   1.433908   0.000000
     9  C    6.560595   2.445644   1.378344   0.000000
    10  H    7.042078   3.431562   2.135856   1.092847   0.000000
    11  C    7.506299   2.859523   2.443905   1.420125   2.173153
    12  C    7.281196   2.456957   2.816667   2.443415   3.435460
    13  C    6.060204   1.386945   2.418275   2.792519   3.885264
    14  H    3.401019   4.989776   4.347382   5.310244   5.250491
    15  H    2.149382   4.038479   4.940252   6.250761   7.016027
    16  H    1.092348   5.841678   6.292286   7.609065   8.116931
    17  C    4.206976   2.430632   3.752442   4.873291   5.842548
    18  C    4.897303   3.328350   4.550838   5.633124   6.576926
    19  C    4.585947   3.234143   4.595876   5.589028   6.595878
    20  C    5.795013   4.560287   5.863404   6.870846   7.858334
    21  C    5.533955   4.491072   5.897319   6.833707   7.873073
    22  C    6.075543   5.034875   6.436076   7.396150   8.433866
    23  H    6.536254   5.391500   6.617139   7.594284   8.550014
    24  H    6.120031   5.287496   6.671271   7.534958   8.574816
    25  H    5.048886   3.409990   4.389356   5.468518   6.318291
    26  H    4.504625   3.250271   4.476632   5.392314   6.357801
    27  H    6.976226   6.098939   7.507236   8.429178   9.478373
    28  H    2.167875   6.224813   6.091447   7.263046   7.436151
    29  N    3.735192   1.411590   2.470355   3.730550   4.604077
    30  H    6.222381   2.148462   3.414634   3.880885   4.973680
    31  S    4.552326   2.787431   1.770750   2.712019   2.821861
    32  C    8.495837   3.759884   4.237389   3.738553   4.621078
    33  C    9.677200   4.892877   5.071317   4.234891   4.881902
    34  H   10.607115   5.863678   6.138299   5.327557   5.958194
    35  C    8.864869   4.278580   3.751999   2.491958   2.729880
    36  C    9.844638   5.105442   4.876901   3.746216   4.103429
    37  H   10.874434   6.174280   5.852914   4.636310   4.811777
    38  H    9.232973   4.914152   4.097212   2.723981   2.504718
    39  H    8.597831   4.094633   4.870100   4.610542   5.569846
                   11         12         13         14         15
    11  C    0.000000
    12  C    1.430839   0.000000
    13  C    2.460653   1.420427   0.000000
    14  H    6.643903   7.087600   6.346323   0.000000
    15  H    6.847565   6.236661   4.861963   4.961840   0.000000
    16  H    8.501046   8.187135   6.917983   4.313848   2.458933
    17  C    5.102728   4.220004   2.802371   5.838592   2.453548
    18  C    5.821235   4.908378   3.586493   6.561937   3.157655
    19  C    5.628425   4.588549   3.255038   6.602677   2.619709
    20  C    6.883778   5.799079   4.540413   7.843656   3.840243
    21  C    6.720718   5.530447   4.282845   7.876689   3.411632
    22  C    7.282686   6.073295   4.833506   8.427748   3.948229
    23  H    7.599408   6.540346   5.363476   8.529310   4.698000
    24  H    7.335236   6.112098   4.972046   8.583953   4.066023
    25  H    5.789243   5.063783   3.852306   6.295882   3.672105
    26  H    5.444862   4.504512   3.293570   6.375564   2.827469
    27  H    8.236518   6.970671   5.802854   9.471624   4.855329
    28  H    8.442500   8.552553   7.523001   2.498785   4.307725
    29  N    4.270949   3.752917   2.441621   4.605744   2.685991
    30  H    3.435316   2.156494   1.088509   7.029210   4.693286
    31  S    4.050127   4.577684   4.052296   2.829397   4.931137
    32  C    2.453227   1.420993   2.485176   8.493487   7.247697
    33  C    2.815445   2.435951   3.743177   9.344915   8.551757
    34  H    3.908078   3.426293   4.628537  10.411633   9.365833
    35  C    1.419380   2.459820   3.753678   7.750747   8.253283
    36  C    2.433161   2.824995   4.245121   9.015346   9.001566
    37  H    3.424829   3.917416   5.337575   9.884635  10.081054
    38  H    2.169166   3.445222   4.626598   7.716956   8.852535
    39  H    3.440574   2.170290   2.711365   9.004252   7.120565
                   16         17         18         19         20
    16  H    0.000000
    17  C    4.821985   0.000000
    18  C    5.420471   1.396986   0.000000
    19  C    5.011099   1.400291   2.423736   0.000000
    20  C    6.111415   2.419045   1.397453   2.796230   0.000000
    21  C    5.751279   2.420315   2.796458   1.396118   2.421274
    22  C    6.261521   2.794533   2.421416   2.421306   1.397502
    23  H    6.809613   3.407961   2.159443   3.888620   1.092392
    24  H    6.225611   3.409936   3.888925   2.158550   3.412230
    25  H    5.661934   2.148062   1.091449   3.404858   2.173926
    26  H    4.951581   2.155120   3.407090   1.091787   3.887919
    27  H    7.048966   3.886969   3.411555   3.410908   2.162222
    28  H    2.506956   6.137180   6.811392   6.621401   7.828411
    29  N    4.603587   1.434032   2.441360   2.463750   3.723987
    30  H    6.959058   2.445680   3.138658   2.618029   3.820070
    31  S    5.643449   4.480500   5.135697   5.479890   6.528645
    32  C    9.340039   5.090420   5.657439   5.226759   6.286392
    33  C   10.559466   6.439979   6.991123   6.586242   7.628954
    34  H   11.451465   7.200116   7.686505   7.232637   8.173920
    35  C    9.867826   6.481611   7.154212   6.936463   8.153105
    36  C   10.800712   7.044191   7.653625   7.341146   8.475067
    37  H   11.840619   8.136424   8.728465   8.416943   9.530941
    38  H   10.270355   7.244546   7.927523   7.773189   9.009117
    39  H    9.355464   4.888099   5.365526   4.844857   5.768264
                   21         22         23         24         25
    21  C    0.000000
    22  C    1.398872   0.000000
    23  H    3.412451   2.163110   0.000000
    24  H    1.092469   2.164289   4.316184   0.000000
    25  H    3.887730   3.418525   2.506233   4.980174   0.000000
    26  H    2.169679   3.416912   4.980293   2.500300   4.294625
    27  H    2.162886   1.092437   2.492846   2.493192   4.324034
    28  H    7.663015   8.213384   8.504555   8.232057   6.753707
    29  N    3.737763   4.228473   4.599035   4.619421   2.639010
    30  H    3.405076   3.933304   4.675243   4.064084   3.650516
    31  S    6.801355   7.250793   7.194887   7.632548   4.758593
    32  C    5.901561   6.398284   6.965794   6.337790   5.916731
    33  C    7.259468   7.753881   8.259928   7.643814   7.173098
    34  H    7.748578   8.203745   8.758755   8.040536   7.924205
    35  C    7.961977   8.519981   8.824450   8.508288   7.100442
    36  C    8.193460   8.724424   9.113837   8.643169   7.697856
    37  H    9.245993   9.772533  10.142813   9.661773   8.749177
    38  H    8.872749   9.440197   9.668938   9.442122   7.785033
    39  H    5.287483   5.732737   6.429903   5.645618   5.766802
                   26         27         28         29         30
    26  H    0.000000
    27  H    4.320874   0.000000
    28  H    6.413985   9.129679   0.000000
    29  N    2.680543   5.320900   5.337836   0.000000
    30  H    2.834052   4.840235   7.911321   2.680426   0.000000
    31  S    5.400966   8.338155   4.884626   3.071369   4.928516
    32  C    5.169716   7.145654   9.878350   4.926711   2.694176
    33  C    6.460834   8.465350  10.916304   6.162201   4.068941
    34  H    7.128774   8.808771  11.921195   7.069803   4.769294
    35  C    6.710277   9.422978   9.683119   5.690056   4.613381
    36  C    7.141170   9.524815  10.829579   6.487468   4.862949
    37  H    8.193282  10.545440  11.779674   7.564866   5.937179
    38  H    7.508038  10.377226   9.819950   6.303679   5.565783
    39  H    4.883756   6.373350  10.163796   5.036462   2.460696
                   31         32         33         34         35
    31  S    0.000000
    32  C    5.995995   0.000000
    33  C    6.783465   1.380531   0.000000
    34  H    7.861539   2.146267   1.092673   0.000000
    35  C    5.192776   2.807872   2.423720   3.408170   0.000000
    36  C    6.442822   2.427234   1.416375   2.174941   1.380589
    37  H    7.337716   3.411253   2.176030   2.498645   2.148038
    38  H    5.259878   3.901036   3.420304   4.316832   1.093177
    39  H    6.610492   1.093169   2.151545   2.479722   3.901040
                   36         37         38         39
    36  C    0.000000
    37  H    1.092477   0.000000
    38  H    2.152551   2.484087   0.000000
    39  H    3.422195   4.317648   4.994201   0.000000
 Symmetry turned off by external request.
 Stoichiometry    C22H15NS
 Framework group  C1[X(C22H15NS)]
 Deg. of freedom   111
 Full point group                 C1      NOp   1
 Rotational constants (GHZ):      0.3129755      0.1882478      0.1258670
 Leave Link  202 at Tue Mar 30 05:49:22 2021, MaxMem=  5242880000 cpu:         0.1
 (Enter /opt/nce/packages/global/g09/l301.exe)
 Standard basis: def2TZVP (5D, 7F)
 Ernie: Thresh=  0.10000D-02 Tol=  0.10000D-05 Strict=F.
   840 basis functions,  1362 primitive gaussians,   960 cartesian basis functions
    85 alpha electrons       85 beta electrons
       nuclear repulsion energy      1999.4749647159 Hartrees.
 IExCor= 3630 DFT=T Ex+Corr=B97D3 ExCW=0 ScaHFX=  0.000000
 ScaDFX=  1.000000  1.000000  1.000000  1.000000 ScalE2=  1.000000  1.000000
 IRadAn=      5 IRanWt=     -1 IRanGd=            0 ICorTp=0 IEmpDi=141
 NAtoms=   39 NActive=   39 NUniq=   39 SFac= 1.00D+00 NAtFMM=   60 NAOKFM=F Big=F
 Integral buffers will be    131072 words long.
 Raffenetti 2 integral format.
 Two-electron integral symmetry is turned off.
 R6Disp:  Grimme-D3(BJ) Dispersion energy=       -0.1598740696 Hartrees.
 Nuclear repulsion after empirical dispersion term =     1999.3150906463 Hartrees.
 ------------------------------------------------------------------------------
 Polarizable Continuum Model (PCM)
 =================================
 Model                : PCM (using non-symmetric T matrix).
 Atomic radii         : SMD-Coulomb.
 Polarization charges : Total charges.
 Charge compensation  : None.
 Solution method      : On-the-fly selection.
 Cavity type          : VdW (van der Waals Surface) (Alpha=1.000).
 Cavity algorithm     : GePol (No added spheres)
                        Default sphere list used, NSphG=   39.
                        Lebedev-Laikov grids with approx.  5.0 points / Ang**2.
                        Smoothing algorithm: York/Karplus (Gamma=1.0000).
                        Polarization charges: spherical gaussians, with
                                              point-specific exponents (IZeta= 3).
                        Self-potential: point-specific (ISelfS= 7).
                        Self-field    : sphere-specific E.n sum rule (ISelfD= 2).
 1st derivatives      : Analytical E(r).r(x)/FMM algorithm (CHGder, D1EAlg=3).
                        Cavity 1st derivative terms included.
 Solvent              : n,n-DiMethylAcetamide, Eps=  37.781000 Eps(inf)=   2.067844
 ------------------------------------------------------------------------------
 GePol: Number of generator spheres                  =      39
 GePol: Total number of spheres                      =      39
 GePol: Number of exposed spheres                    =      39 (100.00%)
 GePol: Number of points                             =    3047
 GePol: Average weight of points                     =       0.11
 GePol: Minimum weight of points                     =   0.64D-10
 GePol: Maximum weight of points                     =    0.19854
 GePol: Number of points with low weight             =     166
 GePol: Fraction of low-weight points (<1% of avg)   =       5.45%
 GePol: Cavity surface area                          =    340.370 Ang**2
 GePol: Cavity volume                                =    342.163 Ang**3
 ------------------------------------------------------------------------------
 Atomic radii for non-electrostatic terms: SMD-CDS.
 ------------------------------------------------------------------------------
 PCM non-electrostatic energy =        -0.0064338808 Hartrees.
 Nuclear repulsion after PCM non-electrostatic terms =     1999.3086567655 Hartrees.
 Leave Link  301 at Tue Mar 30 05:49:22 2021, MaxMem=  5242880000 cpu:         1.7
 (Enter /opt/nce/packages/global/g09/l302.exe)
 NPDir=0 NMtPBC=     1 NCelOv=     1 NCel=       1 NClECP=     1 NCelD=      1
         NCelK=      1 NCelE2=     1 NClLst=     1 CellRange=     0.0.
 One-electron integrals computed using PRISM.
   1 Symmetry operations used in ECPInt.
 ECPInt:  NShTT=   53301 NPrTT=  167340 LenC2=   45736 LenP2D=  100262.
 LDataN:  DoStor=T MaxTD1= 6 Len=  172
 NBasis=   840 RedAO= T EigKep=  4.60D-06  NBF=   840
 NBsUse=   840 1.00D-06 EigRej= -1.00D+00 NBFU=   840
 Precomputing XC quadrature grid using
 IXCGrd= 4 IRadAn=           5 IRanWt=          -1 IRanGd=           0 AccXCQ= 0.00D+00.
 Generated NRdTot=       0 NPtTot=           0 NUsed=           0 NTot=          32
 NSgBfM=   944   944   944   944   944 MxSgAt=    39 MxSgA2=    39.
 Leave Link  302 at Tue Mar 30 05:49:24 2021, MaxMem=  5242880000 cpu:        18.4
 (Enter /opt/nce/packages/global/g09/l303.exe)
 DipDrv:  MaxL=1.
 Leave Link  303 at Tue Mar 30 05:49:24 2021, MaxMem=  5242880000 cpu:         2.0
 (Enter /opt/nce/packages/global/g09/l401.exe)
 ExpMin= 9.52D-02 ExpMax= 6.07D+04 ExpMxC= 2.07D+03 IAcc=3 IRadAn=         5 AccDes= 0.00D+00
 Harris functional with IExCor= 3630 and IRadAn=       5 diagonalized for initial guess.
 HarFok:  IExCor= 3630 AccDes= 0.00D+00 IRadAn=         5 IDoV= 1 UseB2=F ITyADJ=14
 ICtDFT=  3500011 ScaDFX=  1.000000  1.000000  1.000000  1.000000
 FoFCou: FMM=F IPFlag=           0 FMFlag=      100000 FMFlg1=           0
         NFxFlg=           0 DoJE=T BraDBF=F KetDBF=T FulRan=T
         wScrn=  0.000000 ICntrl=     500 IOpCl=  0 I1Cent=   200000004 NGrid=           0
         NMat0=    1 NMatS0=      1 NMatT0=    0 NMatD0=    1 NMtDS0=    0 NMtDT0=    0
 Symmetry not used in FoFCou.
 Harris En= -1300.35218553627    
 JPrj=0 DoOrth=F DoCkMO=F.
 Leave Link  401 at Tue Mar 30 05:49:32 2021, MaxMem=  5242880000 cpu:        87.6
 (Enter /opt/nce/packages/global/g09/l502.exe)
 Closed shell SCF:
 Using DIIS extrapolation, IDIIS=  1040.
 Two-electron integral symmetry not used.
 IVT=     2800708 IEndB=     2800708 NGot=  5242880000 MDV=  5241018493
 LenX=  5241018493 LenY=  5240095933
 Requested convergence on RMS density matrix=1.00D-08 within 128 cycles.
 Requested convergence on MAX density matrix=1.00D-06.
 Requested convergence on             energy=1.00D-06.
 No special actions if energy rises.
 Fock matrices will be formed incrementally for  20 cycles.

 Cycle   1  Pass 1  IDiag  1:
 FoFJK:  IHMeth= 1 ICntrl=     500 DoSepK=F KAlg= 0 I1Cent=   0 FoldK=F
 IRaf= 750000000 NMat=   1 IRICut=       1 DoRegI=T DoRafI=F ISym2E= 0.
 FoFCou: FMM=F IPFlag=           0 FMFlag=      100000 FMFlg1=           0
         NFxFlg=           0 DoJE=T BraDBF=F KetDBF=F FulRan=T
         wScrn=  0.000000 ICntrl=     500 IOpCl=  0 I1Cent=           0 NGrid=           0
         NMat0=    1 NMatS0=      1 NMatT0=    0 NMatD0=    1 NMtDS0=    0 NMtDT0=    0
 Symmetry not used in FoFCou.
 Inv3:  Mode=1 IEnd=    27852627.
 Iteration    1 A*A^-1 deviation from unit magnitude is 6.66D-15 for   3047.
 Iteration    1 A*A^-1 deviation from orthogonality  is 4.16D-15 for   1379   1250.
 Iteration    1 A^-1*A deviation from unit magnitude is 6.66D-15 for   3047.
 Iteration    1 A^-1*A deviation from orthogonality  is 8.80D-09 for   2066   2059.
 Iteration    2 A*A^-1 deviation from unit magnitude is 3.11D-15 for    267.
 Iteration    2 A*A^-1 deviation from orthogonality  is 3.57D-15 for    136    118.
 Iteration    2 A^-1*A deviation from unit magnitude is 1.22D-15 for   2973.
 Iteration    2 A^-1*A deviation from orthogonality  is 7.48D-16 for   3018    122.
 E= -1299.56869254682    
 DIIS: error= 1.55D-02 at cycle   1 NSaved=   1.
 NSaved= 1 IEnMin= 1 EnMin= -1299.56869254682     IErMin= 1 ErrMin= 1.55D-02
 ErrMax= 1.55D-02  0.00D+00 EMaxC= 1.00D-01 BMatC= 5.04D-01 BMatP= 5.04D-01
 IDIUse=3 WtCom= 8.45D-01 WtEn= 1.55D-01
 Coeff-Com:  0.100D+01
 Coeff-En:   0.100D+01
 Coeff:      0.100D+01
 Gap=     0.195 Goal=   None    Shift=    0.000
 GapD=    0.195 DampG=1.000 DampE=0.500 DampFc=0.5000 IDamp=-1.
 Damping current iteration by 5.00D-01
 RMSDP=2.85D-03 MaxDP=1.49D-01              OVMax= 3.33D-01

 Cycle   2  Pass 1  IDiag  1:
 RMSU=  1.42D-03    CP:  9.78D-01
 E= -1299.68266144776     Delta-E=       -0.113968900939 Rises=F Damp=T
 DIIS: error= 7.10D-03 at cycle   2 NSaved=   2.
 NSaved= 2 IEnMin= 2 EnMin= -1299.68266144776     IErMin= 2 ErrMin= 7.10D-03
 ErrMax= 7.10D-03  0.00D+00 EMaxC= 1.00D-01 BMatC= 8.80D-02 BMatP= 5.04D-01
 IDIUse=3 WtCom= 9.29D-01 WtEn= 7.10D-02
 Coeff-Com:  0.226D+00 0.774D+00
 Coeff-En:   0.393D+00 0.607D+00
 Coeff:      0.238D+00 0.762D+00
 Gap=     0.179 Goal=   None    Shift=    0.000
 RMSDP=1.75D-03 MaxDP=1.16D-01 DE=-1.14D-01 OVMax= 4.26D-01

 Cycle   3  Pass 1  IDiag  1:
 RMSU=  1.61D-03    CP:  9.98D-01  5.19D-01
 E= -1299.97022517098     Delta-E=       -0.287563723225 Rises=F Damp=F
 DIIS: error= 1.13D-02 at cycle   3 NSaved=   3.
 NSaved= 3 IEnMin= 3 EnMin= -1299.97022517098     IErMin= 2 ErrMin= 7.10D-03
 ErrMax= 1.13D-02  0.00D+00 EMaxC= 1.00D-01 BMatC= 1.14D-01 BMatP= 8.80D-02
 IDIUse=2 WtCom= 0.00D+00 WtEn= 1.00D+00
 Coeff-En:   0.000D+00 0.000D+00 0.100D+01
 Coeff:      0.000D+00 0.000D+00 0.100D+01
 Gap=     0.147 Goal=   None    Shift=    0.000
 RMSDP=2.14D-03 MaxDP=1.14D-01 DE=-2.88D-01 OVMax= 3.53D-01

 Cycle   4  Pass 1  IDiag  1:
 RMSU=  1.17D-03    CP:  9.57D-01  7.80D-01 -7.46D-02
 E= -1299.13211533093     Delta-E=        0.838109840054 Rises=F Damp=F
 DIIS: error= 3.02D-02 at cycle   4 NSaved=   4.
 NSaved= 4 IEnMin= 3 EnMin= -1299.97022517098     IErMin= 2 ErrMin= 7.10D-03
 ErrMax= 3.02D-02  0.00D+00 EMaxC= 1.00D-01 BMatC= 8.73D-01 BMatP= 8.80D-02
 IDIUse=2 WtCom= 0.00D+00 WtEn= 1.00D+00
 Coeff-En:   0.000D+00 0.000D+00 0.815D+00 0.185D+00
 Coeff:      0.000D+00 0.000D+00 0.815D+00 0.185D+00
 Gap=     0.130 Goal=   None    Shift=    0.000
 RMSDP=8.56D-04 MaxDP=5.60D-02 DE= 8.38D-01 OVMax= 2.24D-01

 Cycle   5  Pass 1  IDiag  1:
 RMSU=  3.19D-04    CP:  9.69D-01  6.33D-01  2.59D-01  5.37D-01
 E= -1300.01129969337     Delta-E=       -0.879184362442 Rises=F Damp=F
 DIIS: error= 9.66D-03 at cycle   5 NSaved=   5.
 NSaved= 5 IEnMin= 5 EnMin= -1300.01129969337     IErMin= 2 ErrMin= 7.10D-03
 ErrMax= 9.66D-03  0.00D+00 EMaxC= 1.00D-01 BMatC= 8.14D-02 BMatP= 8.80D-02
 IDIUse=3 WtCom= 9.03D-01 WtEn= 9.66D-02
 Coeff-Com:  0.882D-02 0.316D-01 0.369D+00-0.810D-01 0.672D+00
 Coeff-En:   0.000D+00 0.000D+00 0.436D+00 0.000D+00 0.564D+00
 Coeff:      0.797D-02 0.285D-01 0.375D+00-0.732D-01 0.661D+00
 Gap=     0.097 Goal=   None    Shift=    0.000
 RMSDP=5.78D-04 MaxDP=3.12D-02 DE=-8.79D-01 OVMax= 1.28D-01

 Cycle   6  Pass 1  IDiag  1:
 RMSU=  8.98D-05    CP:  9.82D-01  5.70D-01  5.62D-01  3.08D-01  8.46D-01
 E= -1300.10212244863     Delta-E=       -0.090822755265 Rises=F Damp=F
 DIIS: error= 7.57D-04 at cycle   6 NSaved=   6.
 NSaved= 6 IEnMin= 6 EnMin= -1300.10212244863     IErMin= 6 ErrMin= 7.57D-04
 ErrMax= 7.57D-04  0.00D+00 EMaxC= 1.00D-01 BMatC= 9.04D-04 BMatP= 8.14D-02
 IDIUse=3 WtCom= 9.92D-01 WtEn= 7.57D-03
 Coeff-Com:  0.795D-03 0.110D-01 0.178D+00-0.677D-01 0.409D+00 0.469D+00
 Coeff-En:   0.000D+00 0.000D+00 0.000D+00 0.000D+00 0.000D+00 0.100D+01
 Coeff:      0.789D-03 0.109D-01 0.177D+00-0.672D-01 0.406D+00 0.473D+00
 Gap=     0.096 Goal=   None    Shift=    0.000
 RMSDP=4.09D-05 MaxDP=3.21D-03 DE=-9.08D-02 OVMax= 6.09D-03

 Cycle   7  Pass 1  IDiag  1:
 RMSU=  2.48D-05    CP:  9.81D-01  5.74D-01  5.58D-01  3.04D-01  8.63D-01
                    CP:  6.64D-01
 E= -1300.10291626099     Delta-E=       -0.000793812350 Rises=F Damp=F
 DIIS: error= 1.81D-04 at cycle   7 NSaved=   7.
 NSaved= 7 IEnMin= 7 EnMin= -1300.10291626099     IErMin= 7 ErrMin= 1.81D-04
 ErrMax= 1.81D-04  0.00D+00 EMaxC= 1.00D-01 BMatC= 5.38D-05 BMatP= 9.04D-04
 IDIUse=3 WtCom= 9.98D-01 WtEn= 1.81D-03
 Coeff-Com:  0.266D-03 0.234D-02 0.496D-01-0.198D-01 0.109D+00 0.226D+00
 Coeff-Com:  0.633D+00
 Coeff-En:   0.000D+00 0.000D+00 0.000D+00 0.000D+00 0.000D+00 0.000D+00
 Coeff-En:   0.100D+01
 Coeff:      0.265D-03 0.234D-02 0.495D-01-0.197D-01 0.108D+00 0.225D+00
 Coeff:      0.634D+00
 Gap=     0.096 Goal=   None    Shift=    0.000
 RMSDP=1.71D-05 MaxDP=9.49D-04 DE=-7.94D-04 OVMax= 3.07D-03

 Cycle   8  Pass 1  IDiag  1:
 RMSU=  1.37D-05    CP:  9.81D-01  5.74D-01  5.56D-01  3.04D-01  8.73D-01
                    CP:  7.32D-01  7.28D-01
 E= -1300.10294206566     Delta-E=       -0.000025804677 Rises=F Damp=F
 DIIS: error= 1.11D-04 at cycle   8 NSaved=   8.
 NSaved= 8 IEnMin= 8 EnMin= -1300.10294206566     IErMin= 8 ErrMin= 1.11D-04
 ErrMax= 1.11D-04  0.00D+00 EMaxC= 1.00D-01 BMatC= 1.92D-05 BMatP= 5.38D-05
 IDIUse=3 WtCom= 9.99D-01 WtEn= 1.11D-03
 Coeff-Com:  0.291D-03-0.537D-03 0.933D-02-0.258D-02 0.118D-01 0.856D-01
 Coeff-Com:  0.449D+00 0.448D+00
 Coeff-En:   0.000D+00 0.000D+00 0.000D+00 0.000D+00 0.000D+00 0.000D+00
 Coeff-En:   0.314D+00 0.686D+00
 Coeff:      0.291D-03-0.537D-03 0.932D-02-0.257D-02 0.117D-01 0.855D-01
 Coeff:      0.448D+00 0.448D+00
 Gap=     0.096 Goal=   None    Shift=    0.000
 RMSDP=9.91D-06 MaxDP=5.56D-04 DE=-2.58D-05 OVMax= 1.79D-03

 Cycle   9  Pass 1  IDiag  1:
 RMSU=  3.44D-06    CP:  9.81D-01  5.73D-01  5.60D-01  3.04D-01  8.67D-01
                    CP:  7.30D-01  8.27D-01  5.58D-01
 E= -1300.10296295639     Delta-E=       -0.000020890733 Rises=F Damp=F
 DIIS: error= 2.56D-05 at cycle   9 NSaved=   9.
 NSaved= 9 IEnMin= 9 EnMin= -1300.10296295639     IErMin= 9 ErrMin= 2.56D-05
 ErrMax= 2.56D-05  0.00D+00 EMaxC= 1.00D-01 BMatC= 9.66D-07 BMatP= 1.92D-05
 IDIUse=1 WtCom= 1.00D+00 WtEn= 0.00D+00
 Coeff-Com:  0.187D-03-0.522D-03 0.239D-02-0.142D-03-0.692D-03 0.352D-01
 Coeff-Com:  0.223D+00 0.268D+00 0.473D+00
 Coeff:      0.187D-03-0.522D-03 0.239D-02-0.142D-03-0.692D-03 0.352D-01
 Coeff:      0.223D+00 0.268D+00 0.473D+00
 Gap=     0.096 Goal=   None    Shift=    0.000
 RMSDP=2.27D-06 MaxDP=1.70D-04 DE=-2.09D-05 OVMax= 3.64D-04

 Cycle  10  Pass 1  IDiag  1:
 RMSU=  1.29D-06    CP:  9.81D-01  5.73D-01  5.61D-01  3.03D-01  8.65D-01
                    CP:  7.34D-01  8.30D-01  5.49D-01  8.34D-01
 E= -1300.10296388882     Delta-E=       -0.000000932421 Rises=F Damp=F
 DIIS: error= 9.46D-06 at cycle  10 NSaved=  10.
 NSaved=10 IEnMin=10 EnMin= -1300.10296388882     IErMin=10 ErrMin= 9.46D-06
 ErrMax= 9.46D-06  0.00D+00 EMaxC= 1.00D-01 BMatC= 8.35D-08 BMatP= 9.66D-07
 IDIUse=1 WtCom= 1.00D+00 WtEn= 0.00D+00
 Coeff-Com:  0.916D-04-0.203D-03 0.638D-03 0.867D-04-0.151D-02 0.145D-01
 Coeff-Com:  0.100D+00 0.129D+00 0.294D+00 0.463D+00
 Coeff:      0.916D-04-0.203D-03 0.638D-03 0.867D-04-0.151D-02 0.145D-01
 Coeff:      0.100D+00 0.129D+00 0.294D+00 0.463D+00
 Gap=     0.096 Goal=   None    Shift=    0.000
 RMSDP=3.97D-07 MaxDP=2.05D-05 DE=-9.32D-07 OVMax= 9.35D-05

 Cycle  11  Pass 1  IDiag  1:
 RMSU=  3.37D-07    CP:  9.81D-01  5.73D-01  5.61D-01  3.03D-01  8.65D-01
                    CP:  7.34D-01  8.33D-01  5.47D-01  8.44D-01  8.60D-01
 E= -1300.10296396806     Delta-E=       -0.000000079243 Rises=F Damp=F
 DIIS: error= 3.32D-06 at cycle  11 NSaved=  11.
 NSaved=11 IEnMin=11 EnMin= -1300.10296396806     IErMin=11 ErrMin= 3.32D-06
 ErrMax= 3.32D-06  0.00D+00 EMaxC= 1.00D-01 BMatC= 7.95D-09 BMatP= 8.35D-08
 IDIUse=1 WtCom= 1.00D+00 WtEn= 0.00D+00
 Coeff-Com:  0.341D-04-0.336D-04 0.128D-03 0.490D-04-0.809D-03 0.480D-02
 Coeff-Com:  0.351D-01 0.479D-01 0.127D+00 0.286D+00 0.500D+00
 Coeff:      0.341D-04-0.336D-04 0.128D-03 0.490D-04-0.809D-03 0.480D-02
 Coeff:      0.351D-01 0.479D-01 0.127D+00 0.286D+00 0.500D+00
 Gap=     0.096 Goal=   None    Shift=    0.000
 RMSDP=2.09D-07 MaxDP=1.50D-05 DE=-7.92D-08 OVMax= 2.93D-05

 Cycle  12  Pass 1  IDiag  1:
 RMSU=  1.07D-07    CP:  9.81D-01  5.73D-01  5.61D-01  3.03D-01  8.65D-01
                    CP:  7.34D-01  8.33D-01  5.53D-01  8.42D-01  8.47D-01
                    CP:  7.49D-01
 E= -1300.10296397626     Delta-E=       -0.000000008200 Rises=F Damp=F
 DIIS: error= 5.80D-07 at cycle  12 NSaved=  12.
 NSaved=12 IEnMin=12 EnMin= -1300.10296397626     IErMin=12 ErrMin= 5.80D-07
 ErrMax= 5.80D-07  0.00D+00 EMaxC= 1.00D-01 BMatC= 5.67D-10 BMatP= 7.95D-09
 IDIUse=1 WtCom= 1.00D+00 WtEn= 0.00D+00
 Coeff-Com:  0.726D-05-0.154D-05 0.106D-04 0.171D-04-0.226D-03 0.888D-03
 Coeff-Com:  0.690D-02 0.101D-01 0.323D-01 0.943D-01 0.262D+00 0.593D+00
 Coeff:      0.726D-05-0.154D-05 0.106D-04 0.171D-04-0.226D-03 0.888D-03
 Coeff:      0.690D-02 0.101D-01 0.323D-01 0.943D-01 0.262D+00 0.593D+00
 Gap=     0.096 Goal=   None    Shift=    0.000
 RMSDP=5.97D-08 MaxDP=3.46D-06 DE=-8.20D-09 OVMax= 8.66D-06

 Cycle  13  Pass 1  IDiag  1:
 RMSU=  3.50D-08    CP:  9.81D-01  5.73D-01  5.61D-01  3.03D-01  8.65D-01
                    CP:  7.34D-01  8.33D-01  5.53D-01  8.47D-01  8.61D-01
                    CP:  7.90D-01  8.45D-01
 E= -1300.10296397673     Delta-E=       -0.000000000470 Rises=F Damp=F
 DIIS: error= 3.26D-07 at cycle  13 NSaved=  13.
 NSaved=13 IEnMin=13 EnMin= -1300.10296397673     IErMin=13 ErrMin= 3.26D-07
 ErrMax= 3.26D-07  0.00D+00 EMaxC= 1.00D-01 BMatC= 1.51D-10 BMatP= 5.67D-10
 IDIUse=1 WtCom= 1.00D+00 WtEn= 0.00D+00
 Coeff-Com:  0.755D-06-0.193D-06-0.630D-05 0.604D-05-0.511D-04 0.502D-04
 Coeff-Com:  0.545D-03 0.113D-02 0.654D-02 0.285D-01 0.114D+00 0.390D+00
 Coeff-Com:  0.460D+00
 Coeff:      0.755D-06-0.193D-06-0.630D-05 0.604D-05-0.511D-04 0.502D-04
 Coeff:      0.545D-03 0.113D-02 0.654D-02 0.285D-01 0.114D+00 0.390D+00
 Coeff:      0.460D+00
 Gap=     0.096 Goal=   None    Shift=    0.000
 RMSDP=2.58D-08 MaxDP=1.35D-06 DE=-4.70D-10 OVMax= 4.22D-06

 Cycle  14  Pass 1  IDiag  1:
 RMSU=  1.25D-08    CP:  9.81D-01  5.73D-01  5.61D-01  3.03D-01  8.65D-01
                    CP:  7.34D-01  8.33D-01  5.53D-01  8.48D-01  8.64D-01
                    CP:  7.91D-01  8.87D-01  6.91D-01
 E= -1300.10296397689     Delta-E=       -0.000000000157 Rises=F Damp=F
 DIIS: error= 7.77D-08 at cycle  14 NSaved=  14.
 NSaved=14 IEnMin=14 EnMin= -1300.10296397689     IErMin=14 ErrMin= 7.77D-08
 ErrMax= 7.77D-08  0.00D+00 EMaxC= 1.00D-01 BMatC= 1.27D-11 BMatP= 1.51D-10
 IDIUse=1 WtCom= 1.00D+00 WtEn= 0.00D+00
 Coeff-Com: -0.276D-06-0.777D-07-0.379D-05 0.153D-05-0.411D-05-0.534D-04
 Coeff-Com: -0.360D-03-0.345D-03 0.682D-03 0.751D-02 0.420D-01 0.174D+00
 Coeff-Com:  0.282D+00 0.495D+00
 Coeff:     -0.276D-06-0.777D-07-0.379D-05 0.153D-05-0.411D-05-0.534D-04
 Coeff:     -0.360D-03-0.345D-03 0.682D-03 0.751D-02 0.420D-01 0.174D+00
 Coeff:      0.282D+00 0.495D+00
 Gap=     0.096 Goal=   None    Shift=    0.000
 RMSDP=7.16D-09 MaxDP=3.56D-07 DE=-1.57D-10 OVMax= 1.56D-06

 Error on total polarization charges =  0.06191
 SCF Done:  E(RB97D3) =  -1300.10296398     A.U. after   14 cycles
            NFock= 14  Conv=0.72D-08     -V/T= 2.0036
 KE= 1.295381963851D+03 PE=-7.041157699107D+03 EE= 2.446364114513D+03
 SMD-CDS (non-electrostatic) energy       (kcal/mol) =      -4.04
 (included in total energy above)
 Leave Link  502 at Tue Mar 30 05:57:39 2021, MaxMem=  5242880000 cpu:      5815.7
 (Enter /opt/nce/packages/global/g09/l601.exe)
 Copying SCF densities to generalized density rwf, IOpCl= 0 IROHF=0.

 **********************************************************************

            Population analysis using the SCF density.

 **********************************************************************

 Alpha  occ. eigenvalues --  -88.02591 -14.04191  -9.95923  -9.95747  -9.94507
 Alpha  occ. eigenvalues --   -9.94360  -9.93931  -9.91486  -9.91304  -9.90959
 Alpha  occ. eigenvalues --   -9.90905  -9.90905  -9.90888  -9.90842  -9.90830
 Alpha  occ. eigenvalues --   -9.90759  -9.90424  -9.90364  -9.90270  -9.90206
 Alpha  occ. eigenvalues --   -9.90181  -9.90134  -9.90036  -9.90026  -7.72781
 Alpha  occ. eigenvalues --   -5.75961  -5.75551  -5.74916  -0.90202  -0.80256
 Alpha  occ. eigenvalues --   -0.79345  -0.77670  -0.76086  -0.72472  -0.70427
 Alpha  occ. eigenvalues --   -0.68910  -0.68266  -0.68230  -0.67347  -0.64446
 Alpha  occ. eigenvalues --   -0.62482  -0.58251  -0.57291  -0.55432  -0.55192
 Alpha  occ. eigenvalues --   -0.53833  -0.52967  -0.51886  -0.49205  -0.48234
 Alpha  occ. eigenvalues --   -0.45489  -0.44714  -0.44371  -0.42209  -0.41503
 Alpha  occ. eigenvalues --   -0.41418  -0.40267  -0.39702  -0.39133  -0.38532
 Alpha  occ. eigenvalues --   -0.38101  -0.37720  -0.37246  -0.36839  -0.36455
 Alpha  occ. eigenvalues --   -0.34945  -0.34765  -0.33192  -0.32588  -0.32056
 Alpha  occ. eigenvalues --   -0.31744  -0.31677  -0.30760  -0.30105  -0.29515
 Alpha  occ. eigenvalues --   -0.28679  -0.28233  -0.26410  -0.25324  -0.23489
 Alpha  occ. eigenvalues --   -0.23140  -0.22837  -0.21966  -0.18612  -0.16567
 Alpha virt. eigenvalues --   -0.06956  -0.05707  -0.04776  -0.04578  -0.03878
 Alpha virt. eigenvalues --   -0.02257  -0.01272  -0.00401   0.03218   0.03912
 Alpha virt. eigenvalues --    0.05126   0.05287   0.05934   0.06040   0.06966
 Alpha virt. eigenvalues --    0.07319   0.07561   0.08225   0.08824   0.09367
 Alpha virt. eigenvalues --    0.09638   0.09748   0.10147   0.10545   0.10912
 Alpha virt. eigenvalues --    0.11116   0.11605   0.12149   0.12434   0.13299
 Alpha virt. eigenvalues --    0.13728   0.13859   0.15604   0.16538   0.16821
 Alpha virt. eigenvalues --    0.17162   0.17631   0.17809   0.18198   0.18463
 Alpha virt. eigenvalues --    0.18758   0.19373   0.19847   0.20159   0.20395
 Alpha virt. eigenvalues --    0.20695   0.20996   0.21311   0.21857   0.21955
 Alpha virt. eigenvalues --    0.22196   0.22736   0.23153   0.23213   0.23850
 Alpha virt. eigenvalues --    0.24155   0.24364   0.24484   0.25156   0.25459
 Alpha virt. eigenvalues --    0.25628   0.26140   0.26875   0.27224   0.27366
 Alpha virt. eigenvalues --    0.27599   0.27965   0.28337   0.28697   0.29629
 Alpha virt. eigenvalues --    0.29717   0.30497   0.30806   0.31212   0.31436
 Alpha virt. eigenvalues --    0.31935   0.32327   0.32483   0.33318   0.33484
 Alpha virt. eigenvalues --    0.33761   0.34247   0.34614   0.35129   0.35235
 Alpha virt. eigenvalues --    0.35710   0.36062   0.36317   0.36891   0.37343
 Alpha virt. eigenvalues --    0.38311   0.38598   0.39280   0.39315   0.39595
 Alpha virt. eigenvalues --    0.39787   0.40245   0.40570   0.40917   0.41147
 Alpha virt. eigenvalues --    0.41691   0.42164   0.42693   0.42720   0.43347
 Alpha virt. eigenvalues --    0.43543   0.44175   0.44695   0.44826   0.45289
 Alpha virt. eigenvalues --    0.45547   0.46233   0.46361   0.46627   0.46950
 Alpha virt. eigenvalues --    0.47575   0.47920   0.48437   0.48957   0.49350
 Alpha virt. eigenvalues --    0.50135   0.50243   0.51137   0.51558   0.51892
 Alpha virt. eigenvalues --    0.52263   0.52634   0.53536   0.55067   0.55337
 Alpha virt. eigenvalues --    0.56061   0.56724   0.57514   0.58017   0.58266
 Alpha virt. eigenvalues --    0.58590   0.59770   0.60688   0.61296   0.61601
 Alpha virt. eigenvalues --    0.62001   0.62420   0.62661   0.63222   0.63998
 Alpha virt. eigenvalues --    0.64504   0.64929   0.65297   0.65767   0.65822
 Alpha virt. eigenvalues --    0.66282   0.66591   0.66944   0.67574   0.68342
 Alpha virt. eigenvalues --    0.68633   0.68722   0.69218   0.69944   0.70476
 Alpha virt. eigenvalues --    0.70974   0.71559   0.72071   0.72316   0.73140
 Alpha virt. eigenvalues --    0.73214   0.73692   0.74941   0.75744   0.76056
 Alpha virt. eigenvalues --    0.76367   0.77384   0.77757   0.78095   0.78762
 Alpha virt. eigenvalues --    0.78991   0.79669   0.80886   0.81045   0.81653
 Alpha virt. eigenvalues --    0.81865   0.82557   0.82896   0.83124   0.84182
 Alpha virt. eigenvalues --    0.84751   0.85227   0.85741   0.86097   0.87258
 Alpha virt. eigenvalues --    0.87545   0.87902   0.88596   0.89294   0.89955
 Alpha virt. eigenvalues --    0.90042   0.91013   0.92319   0.93220   0.94153
 Alpha virt. eigenvalues --    0.94854   0.95762   0.96355   0.97615   0.98214
 Alpha virt. eigenvalues --    0.98746   0.99754   1.00645   1.01185   1.01720
 Alpha virt. eigenvalues --    1.02945   1.03579   1.04020   1.05066   1.06095
 Alpha virt. eigenvalues --    1.07081   1.07195   1.07845   1.08935   1.09153
 Alpha virt. eigenvalues --    1.09739   1.10259   1.10619   1.12490   1.13675
 Alpha virt. eigenvalues --    1.14226   1.14756   1.14966   1.15634   1.17103
 Alpha virt. eigenvalues --    1.17525   1.18180   1.18525   1.19107   1.19611
 Alpha virt. eigenvalues --    1.19805   1.20434   1.20850   1.21281   1.22079
 Alpha virt. eigenvalues --    1.22254   1.22652   1.23411   1.23631   1.24610
 Alpha virt. eigenvalues --    1.25290   1.25506   1.26363   1.27479   1.27880
 Alpha virt. eigenvalues --    1.29306   1.29635   1.30779   1.32136   1.32450
 Alpha virt. eigenvalues --    1.33273   1.34380   1.35090   1.35610   1.35722
 Alpha virt. eigenvalues --    1.36249   1.38111   1.38561   1.39414   1.40214
 Alpha virt. eigenvalues --    1.40479   1.41642   1.42438   1.42855   1.43434
 Alpha virt. eigenvalues --    1.44038   1.44604   1.45114   1.45309   1.46154
 Alpha virt. eigenvalues --    1.46245   1.46839   1.47874   1.48254   1.48374
 Alpha virt. eigenvalues --    1.48852   1.49635   1.50579   1.50903   1.51140
 Alpha virt. eigenvalues --    1.51893   1.52844   1.53707   1.53960   1.54577
 Alpha virt. eigenvalues --    1.55245   1.56418   1.56738   1.57730   1.58570
 Alpha virt. eigenvalues --    1.58889   1.59726   1.60114   1.60263   1.60848
 Alpha virt. eigenvalues --    1.61189   1.61306   1.62479   1.62598   1.63125
 Alpha virt. eigenvalues --    1.63232   1.63801   1.64701   1.65070   1.65788
 Alpha virt. eigenvalues --    1.66591   1.66894   1.67609   1.67809   1.68373
 Alpha virt. eigenvalues --    1.68698   1.70284   1.71004   1.71821   1.71989
 Alpha virt. eigenvalues --    1.72699   1.74775   1.75926   1.76321   1.77251
 Alpha virt. eigenvalues --    1.77741   1.78738   1.79281   1.79710   1.79952
 Alpha virt. eigenvalues --    1.81683   1.82750   1.83133   1.85152   1.85795
 Alpha virt. eigenvalues --    1.86221   1.87597   1.88028   1.89205   1.90827
 Alpha virt. eigenvalues --    1.91784   1.91987   1.92702   1.93324   1.94507
 Alpha virt. eigenvalues --    1.95027   1.96178   1.96366   1.97249   1.98006
 Alpha virt. eigenvalues --    1.98943   1.99939   2.01039   2.01890   2.02433
 Alpha virt. eigenvalues --    2.03163   2.04009   2.04392   2.05355   2.05913
 Alpha virt. eigenvalues --    2.06364   2.07944   2.08735   2.09042   2.09357
 Alpha virt. eigenvalues --    2.10037   2.10855   2.10986   2.11947   2.12490
 Alpha virt. eigenvalues --    2.12923   2.13817   2.14164   2.14685   2.16252
 Alpha virt. eigenvalues --    2.17437   2.17822   2.18219   2.19011   2.20240
 Alpha virt. eigenvalues --    2.21561   2.22194   2.23963   2.25217   2.26071
 Alpha virt. eigenvalues --    2.27249   2.28650   2.29786   2.32645   2.34171
 Alpha virt. eigenvalues --    2.36506   2.37374   2.37781   2.39179   2.39839
 Alpha virt. eigenvalues --    2.41171   2.41465   2.43635   2.44515   2.44659
 Alpha virt. eigenvalues --    2.45371   2.46390   2.47580   2.47827   2.48888
 Alpha virt. eigenvalues --    2.49588   2.50439   2.50726   2.52116   2.52193
 Alpha virt. eigenvalues --    2.52620   2.53824   2.54024   2.54302   2.55882
 Alpha virt. eigenvalues --    2.56287   2.56569   2.57524   2.57714   2.58070
 Alpha virt. eigenvalues --    2.58315   2.59457   2.59874   2.60135   2.60651
 Alpha virt. eigenvalues --    2.61050   2.61908   2.62602   2.62948   2.63315
 Alpha virt. eigenvalues --    2.63667   2.64060   2.64606   2.65831   2.66396
 Alpha virt. eigenvalues --    2.66724   2.67050   2.67868   2.68758   2.69189
 Alpha virt. eigenvalues --    2.69744   2.69953   2.70444   2.70828   2.71332
 Alpha virt. eigenvalues --    2.72360   2.72972   2.73243   2.73893   2.74291
 Alpha virt. eigenvalues --    2.75485   2.75813   2.75830   2.76727   2.76900
 Alpha virt. eigenvalues --    2.77869   2.78062   2.78678   2.79040   2.79192
 Alpha virt. eigenvalues --    2.80051   2.80233   2.80946   2.82357   2.82823
 Alpha virt. eigenvalues --    2.83389   2.84020   2.84287   2.85585   2.85987
 Alpha virt. eigenvalues --    2.86143   2.86637   2.87498   2.88211   2.88963
 Alpha virt. eigenvalues --    2.89858   2.90901   2.91358   2.91857   2.92634
 Alpha virt. eigenvalues --    2.93167   2.94327   2.94491   2.96009   2.96858
 Alpha virt. eigenvalues --    2.97252   2.98022   2.98631   2.99324   3.00140
 Alpha virt. eigenvalues --    3.01166   3.01542   3.03481   3.03788   3.04608
 Alpha virt. eigenvalues --    3.04880   3.05140   3.06219   3.06397   3.06749
 Alpha virt. eigenvalues --    3.07996   3.08240   3.08564   3.09017   3.09287
 Alpha virt. eigenvalues --    3.09851   3.10155   3.10685   3.11319   3.11544
 Alpha virt. eigenvalues --    3.12423   3.12821   3.13121   3.13749   3.13999
 Alpha virt. eigenvalues --    3.14855   3.15605   3.16670   3.16835   3.17642
 Alpha virt. eigenvalues --    3.18298   3.19176   3.19863   3.20181   3.20972
 Alpha virt. eigenvalues --    3.21010   3.21694   3.22380   3.23395   3.23773
 Alpha virt. eigenvalues --    3.24027   3.24729   3.25630   3.25725   3.26536
 Alpha virt. eigenvalues --    3.26620   3.27530   3.27614   3.28695   3.28875
 Alpha virt. eigenvalues --    3.29708   3.30219   3.30748   3.31133   3.31694
 Alpha virt. eigenvalues --    3.32358   3.32437   3.32911   3.34070   3.34413
 Alpha virt. eigenvalues --    3.35299   3.36544   3.36770   3.37784   3.38532
 Alpha virt. eigenvalues --    3.38646   3.39640   3.39783   3.40719   3.40878
 Alpha virt. eigenvalues --    3.41405   3.41950   3.42162   3.42963   3.43155
 Alpha virt. eigenvalues --    3.43893   3.44472   3.45115   3.45553   3.46508
 Alpha virt. eigenvalues --    3.46799   3.47631   3.48380   3.48842   3.49483
 Alpha virt. eigenvalues --    3.50455   3.51004   3.51700   3.52460   3.52765
 Alpha virt. eigenvalues --    3.54578   3.56194   3.57479   3.58325   3.59816
 Alpha virt. eigenvalues --    3.60384   3.60463   3.62404   3.64021   3.64558
 Alpha virt. eigenvalues --    3.64898   3.65903   3.66402   3.68177   3.69630
 Alpha virt. eigenvalues --    3.70627   3.72306   3.72908   3.75117   3.75760
 Alpha virt. eigenvalues --    3.78487   3.79817   3.81398   3.82224   3.82764
 Alpha virt. eigenvalues --    3.83771   3.84737   3.85524   3.86802   3.87652
 Alpha virt. eigenvalues --    3.88453   3.89568   3.90062   3.91225   3.92679
 Alpha virt. eigenvalues --    3.94157   3.96351   3.96728   3.97131   3.98905
 Alpha virt. eigenvalues --    3.99851   4.01140   4.02477   4.03650   4.04293
 Alpha virt. eigenvalues --    4.05047   4.05531   4.05812   4.07234   4.07280
 Alpha virt. eigenvalues --    4.08896   4.09287   4.09945   4.10257   4.11189
 Alpha virt. eigenvalues --    4.11648   4.11905   4.12809   4.13252   4.13584
 Alpha virt. eigenvalues --    4.13955   4.15024   4.15439   4.15925   4.16714
 Alpha virt. eigenvalues --    4.18190   4.18342   4.19344   4.20261   4.20422
 Alpha virt. eigenvalues --    4.22095   4.22519   4.23950   4.24740   4.25942
 Alpha virt. eigenvalues --    4.26928   4.28559   4.31100   4.31789   4.33513
 Alpha virt. eigenvalues --    4.36310   4.38441   4.40073   4.43755   4.45219
 Alpha virt. eigenvalues --    4.46356   4.49848   4.51229   4.52729   4.53643
 Alpha virt. eigenvalues --    4.54734   4.56552   4.57748   4.61984   4.62907
 Alpha virt. eigenvalues --    4.63894   4.65564   4.65723   4.67499   4.68693
 Alpha virt. eigenvalues --    4.69033   4.69379   4.71299   4.73232   4.74649
 Alpha virt. eigenvalues --    4.75125   4.76664   4.81403   4.83072   4.87268
 Alpha virt. eigenvalues --    4.87723   4.88095   4.92090   4.92511   4.95371
 Alpha virt. eigenvalues --    4.98768   5.00224   5.03683   5.04220   5.06435
 Alpha virt. eigenvalues --    5.08557   5.09819   5.12825   5.14289   5.14803
 Alpha virt. eigenvalues --    5.16355   5.18872   5.20555   5.21038   5.24630
 Alpha virt. eigenvalues --    5.26952   5.28918   5.35850   5.37735   5.42382
 Alpha virt. eigenvalues --    5.44569   5.46241   5.49398   5.53705   5.57157
 Alpha virt. eigenvalues --    5.58071   5.65188   5.70592   5.78425   5.83935
 Alpha virt. eigenvalues --    5.96975   6.01778   6.09230   8.77003   9.21282
 Alpha virt. eigenvalues --    9.41385  20.15269  21.93881  22.00378  22.12899
 Alpha virt. eigenvalues --   22.39554  22.40186  22.41665  22.43771  22.45563
 Alpha virt. eigenvalues --   22.46047  22.48439  22.57404  22.62717  22.63104
 Alpha virt. eigenvalues --   22.65097  22.66201  22.69566  22.72737  22.88722
 Alpha virt. eigenvalues --   22.92955  23.02432  23.07998  23.44209  33.02978
          Condensed to atoms (all electrons):
               1          2          3          4          5          6
     1  C    5.146708   0.271174   0.160364  -0.180666   0.100331   0.335340
     2  C    0.271174   5.333245   0.191375   0.112968  -0.176931   0.099726
     3  C    0.160364   0.191375   5.376331   0.102859   0.114407  -0.150387
     4  C   -0.180666   0.112968   0.102859   5.251809   0.276984   0.085002
     5  C    0.100331  -0.176931   0.114407   0.276984   5.315417   0.310689
     6  C    0.335340   0.099726  -0.150387   0.085002   0.310689   5.125315
     7  C   -0.001943   0.005872  -0.041758  -0.053175   0.008826   0.000970
     8  C   -0.000062   0.000304   0.020044  -0.056035  -0.005195  -0.000003
     9  C   -0.000075   0.000696   0.000022   0.006579  -0.000962   0.000113
    10  H   -0.000011   0.000111   0.000125   0.000221  -0.000028   0.000005
    11  C    0.000022  -0.000120  -0.000391  -0.002329   0.000120  -0.000012
    12  C   -0.000011   0.000099   0.000131   0.001613  -0.000069   0.000021
    13  C    0.000067  -0.000713  -0.005086   0.015121   0.004191  -0.000037
    14  H   -0.077257   0.474061  -0.109265   0.027460  -0.008618   0.019787
    15  H    0.010859  -0.001928   0.009164  -0.055899   0.440310  -0.049002
    16  H   -0.064615   0.015852  -0.004143   0.014749  -0.070233   0.449063
    17  C   -0.000525   0.000472   0.000209  -0.069922  -0.023665  -0.006601
    18  C   -0.000085   0.000159  -0.007136  -0.003439   0.003580   0.000429
    19  C   -0.000176  -0.000026   0.000687  -0.004062   0.000934   0.003246
    20  C    0.000007  -0.000001   0.000063  -0.000126  -0.000103  -0.000102
    21  C    0.000024  -0.000031   0.000929   0.002670  -0.003801   0.000038
    22  C   -0.000002   0.000007  -0.000259  -0.001031   0.001001   0.000051
    23  H   -0.000000  -0.000000   0.000019   0.000048   0.000014  -0.000002
    24  H    0.000000   0.000000  -0.000006  -0.000040  -0.000048  -0.000008
    25  H   -0.000001   0.000022  -0.002255   0.001110  -0.000175   0.000071
    26  H   -0.000104   0.000075  -0.000569   0.001165   0.003409   0.000686
    27  H    0.000000  -0.000000  -0.000000   0.000001  -0.000010  -0.000001
    28  H    0.457725  -0.076326   0.019407  -0.006381   0.019019  -0.072788
    29  N   -0.000563   0.007102  -0.060608   0.450602  -0.094891   0.005457
    30  H   -0.000002   0.000019   0.000121  -0.001324  -0.000077   0.000009
    31  S    0.015019  -0.081823   0.397788  -0.083412   0.023990  -0.003517
    32  C   -0.000000   0.000001   0.000012  -0.000007  -0.000010   0.000000
    33  C    0.000000  -0.000000  -0.000001   0.000002   0.000000  -0.000000
    34  H    0.000000  -0.000000  -0.000000   0.000000   0.000000  -0.000000
    35  C    0.000000  -0.000005  -0.000012   0.000031   0.000003  -0.000000
[...]
    37  H   -0.000015   0.000030  -0.001142  -0.000056   0.013909  -0.002661
    38  H    0.000055   0.000399  -0.006164   0.005280  -0.081706   0.013414
    39  H    0.001720  -0.000512   0.000483   0.000034   0.012814  -0.079940
              13         14         15         16         17         18
     1  C    0.000070  -0.077837   0.011026  -0.065247  -0.000474  -0.000092
     2  C   -0.000699   0.476046  -0.002038   0.016058   0.000415   0.000185
     3  C   -0.004988  -0.109933   0.009357  -0.004239   0.002034  -0.007269
     4  C    0.015222   0.027635  -0.056341   0.015042  -0.067784  -0.002912
     5  C    0.003950  -0.008764   0.441928  -0.070970  -0.025360   0.003589
     6  C   -0.000033   0.019998  -0.049437   0.450812  -0.006824   0.000452
     7  C    0.224593   0.000195  -0.001328   0.000034  -0.047575  -0.007338
     8  C    0.114567   0.000091   0.000121  -0.000008   0.005048  -0.008936
     9  C   -0.203379   0.000152   0.000022  -0.000000   0.000373   0.000102
    10  H   -0.010835   0.000044   0.000000   0.000000   0.000019   0.000001
    11  C    0.050015  -0.000016  -0.000002   0.000000  -0.000125   0.000197
    12  C    0.230406   0.000006   0.000004  -0.000000  -0.007170   0.001756
    13  C    5.676318  -0.000030  -0.000123  -0.000002  -0.041382   0.007160
    14  H   -0.000030   0.551517   0.000040  -0.000223   0.000039   0.000000
    15  H   -0.000123   0.000040   0.514302  -0.008327   0.004255   0.000103
    16  H   -0.000002  -0.000223  -0.008327   0.542141   0.000023   0.000005
    17  C   -0.041382   0.000039   0.004255   0.000023   5.513366   0.295309
    18  C    0.007160   0.000000   0.000103   0.000005   0.295309   5.103873
    19  C    0.011509   0.000002  -0.005764   0.000040   0.264222   0.105007
    20  C   -0.000883   0.000000   0.000839  -0.000002   0.065189   0.369291
    21  C   -0.004581   0.000000   0.002086  -0.000006   0.102671  -0.142632
    22  C    0.001840   0.000000   0.000113   0.000001  -0.191251   0.096692
    23  H   -0.000002  -0.000000  -0.000012   0.000000   0.022270  -0.068650
    24  H   -0.000050  -0.000000   0.000030   0.000000   0.017087  -0.002971
    25  H   -0.000026  -0.000001  -0.000164   0.000002  -0.098170   0.468655
    26  H    0.004832  -0.000000  -0.001804   0.000020  -0.081922   0.016405
    27  H   -0.000012   0.000000   0.000007   0.000000  -0.004172   0.013342
    28  H    0.000001  -0.010492  -0.000169  -0.009302   0.000002   0.000002
    29  N   -0.113722  -0.000009  -0.007378  -0.000160   0.108975  -0.025401
    30  H    0.457817   0.000000   0.000042  -0.000000  -0.000349   0.001423
    31  S    0.026581   0.000544  -0.000334   0.000030  -0.004993   0.001237
    32  C   -0.127404   0.000000  -0.000000  -0.000000  -0.000450  -0.000139
    33  C    0.005517  -0.000000   0.000000   0.000000  -0.000006   0.000004
    34  H   -0.001025  -0.000000   0.000000  -0.000000   0.000001   0.000000
    35  C    0.023566  -0.000000  -0.000000   0.000000   0.000019   0.000009
    36  C   -0.003573   0.000000  -0.000000  -0.000000  -0.000008  -0.000002
    37  H    0.000281   0.000000   0.000000   0.000000   0.000000  -0.000000
    38  H   -0.000335  -0.000000   0.000000  -0.000000  -0.000000  -0.000000
    39  H   -0.012519   0.000000  -0.000000  -0.000000  -0.000182  -0.000011
              19         20         21         22         23         24
     1  C   -0.000181   0.000005   0.000029  -0.000002  -0.000000   0.000000
     2  C   -0.000017   0.000001  -0.000036   0.000008  -0.000000   0.000000
     3  C    0.000840   0.000030   0.000911  -0.000252   0.000019  -0.000006
     4  C   -0.002781  -0.000320   0.002309  -0.000924   0.000044  -0.000041
     5  C    0.000269  -0.000266  -0.003866   0.001062   0.000016  -0.000048
     6  C    0.003178  -0.000086   0.000024   0.000051  -0.000002  -0.000008
     7  C   -0.013365   0.000022   0.002996  -0.001494   0.000074  -0.000035
     8  C   -0.000130   0.000093   0.001119  -0.000312   0.000021  -0.000006
     9  C    0.000098   0.000005  -0.000033   0.000008  -0.000000   0.000000
    10  H    0.000004   0.000000   0.000000   0.000000  -0.000000  -0.000000
    11  C   -0.000373  -0.000005  -0.000029   0.000001  -0.000000   0.000000
    12  C    0.006586  -0.000301  -0.000227   0.000191  -0.000009  -0.000011
    13  C    0.011509  -0.000883  -0.004581   0.001840  -0.000002  -0.000050
    14  H    0.000002   0.000000   0.000000   0.000000  -0.000000  -0.000000
    15  H   -0.005764   0.000839   0.002086   0.000113  -0.000012   0.000030
    16  H    0.000040  -0.000002  -0.000006   0.000001   0.000000   0.000000
    17  C    0.264222   0.065189   0.102671  -0.191251   0.022270   0.017087
    18  C    0.105007   0.369291  -0.142632   0.096692  -0.068650  -0.002971
    19  C    5.215639  -0.131823   0.255193   0.123241  -0.005667  -0.065285
    20  C   -0.131823   5.034991   0.077487   0.344994   0.449805   0.013273
    21  C    0.255193   0.077487   5.152697   0.315641   0.016208   0.444885
    22  C    0.123241   0.344994   0.315641   5.088383  -0.071612  -0.064628
    23  H   -0.005667   0.449805   0.016208  -0.071612   0.543471  -0.000269
    24  H   -0.065285   0.013273   0.444885  -0.064628  -0.000269   0.540541
    25  H    0.016048  -0.061628  -0.006625   0.018430  -0.011164   0.000068
    26  H    0.467706  -0.004266  -0.073874   0.015871   0.000038  -0.009834
    27  H    0.014795  -0.061313  -0.061942   0.441372  -0.009198  -0.008732
    28  H    0.000000  -0.000000  -0.000000   0.000000  -0.000000   0.000000
    29  N   -0.027340   0.005928   0.011665   0.002382  -0.000504  -0.000363
    30  H   -0.005210   0.000871   0.001094  -0.000067  -0.000018   0.000014
    31  S    0.000082  -0.000033  -0.000031   0.000014  -0.000002   0.000000
    32  C    0.000346   0.000020   0.000131  -0.000001   0.000000  -0.000000
    33  C    0.000022  -0.000002  -0.000002  -0.000000   0.000000  -0.000000
    34  H   -0.000000  -0.000000  -0.000000  -0.000000  -0.000000  -0.000000
    35  C   -0.000012  -0.000000  -0.000001  -0.000000  -0.000000  -0.000000
    36  C    0.000002   0.000000   0.000001   0.000000   0.000000   0.000000
    37  H    0.000000  -0.000000  -0.000000   0.000000   0.000000  -0.000000
    38  H    0.000000   0.000000   0.000000  -0.000000   0.000000  -0.000000
    39  H    0.000167  -0.000004   0.000126   0.000030  -0.000000   0.000001
              25         26         27         28         29         30
     1  C   -0.000003  -0.000107   0.000000   0.459142  -0.000604  -0.000002
     2  C    0.000026   0.000079  -0.000000  -0.076845   0.007263   0.000018
     3  C   -0.002125  -0.000583  -0.000000   0.019561  -0.060501   0.000128
     4  C    0.001152   0.001349   0.000002  -0.006440   0.451334  -0.001355
     5  C   -0.000186   0.003514  -0.000010   0.019122  -0.096186  -0.000076
     6  C    0.000080   0.000664  -0.000001  -0.073173   0.005621   0.000008
     7  C    0.001467   0.000797   0.000002   0.000003   0.461625  -0.072681
     8  C   -0.002283  -0.000834  -0.000000   0.000005  -0.049346   0.009527
     9  C   -0.000011   0.000073  -0.000000  -0.000002   0.007537  -0.002607
    10  H   -0.000001  -0.000000   0.000000  -0.000000  -0.000027   0.000047
    11  C    0.000023  -0.000080   0.000000   0.000000  -0.000585   0.012168
    12  C    0.000133   0.001098   0.000000  -0.000000   0.001879  -0.054074
    13  C   -0.000026   0.004832  -0.000012   0.000001  -0.113722   0.457817
    14  H   -0.000001  -0.000000   0.000000  -0.010492  -0.000009   0.000000
    15  H   -0.000164  -0.001804   0.000007  -0.000169  -0.007378   0.000042
    16  H    0.000002   0.000020   0.000000  -0.009302  -0.000160  -0.000000
    17  C   -0.098170  -0.081922  -0.004172   0.000002   0.108975  -0.000349
    18  C    0.468655   0.016405   0.013342   0.000002  -0.025401   0.001423
    19  C    0.016048   0.467706   0.014795   0.000000  -0.027340  -0.005210
    20  C   -0.061628  -0.004266  -0.061313  -0.000000   0.005928   0.000871
    21  C   -0.006625  -0.073874  -0.061942  -0.000000   0.011665   0.001094
    22  C    0.018430   0.015871   0.441372   0.000000   0.002382  -0.000067
    23  H   -0.011164   0.000038  -0.009198  -0.000000  -0.000504  -0.000018
    24  H    0.000068  -0.009834  -0.008732   0.000000  -0.000363   0.000014
    25  H    0.540059  -0.000114  -0.000154   0.000000   0.006987  -0.000166
    26  H   -0.000114   0.541324  -0.000179   0.000000  -0.002592  -0.001940
    27  H   -0.000154  -0.000179   0.538416  -0.000000   0.000003   0.000008
    28  H    0.000000   0.000000  -0.000000   0.545889   0.000022  -0.000000
    29  N    0.006987  -0.002592   0.000003   0.000022   6.233590  -0.007619
    30  H   -0.000166  -0.001940   0.000008  -0.000000  -0.007619   0.512367
    31  S    0.001039  -0.000021   0.000000  -0.000357  -0.017811  -0.000280
    32  C    0.000002   0.000022  -0.000000  -0.000000  -0.000345  -0.004289
    33  C   -0.000000   0.000001  -0.000000   0.000000  -0.000000   0.001114
    34  H    0.000000   0.000000   0.000000   0.000000  -0.000000  -0.000058
    35  C    0.000002  -0.000000  -0.000000   0.000000   0.000040  -0.000314
    36  C   -0.000000   0.000000   0.000000  -0.000000   0.000002  -0.000058
    37  H   -0.000000  -0.000000   0.000000  -0.000000   0.000000  -0.000003
    38  H   -0.000000  -0.000000  -0.000000  -0.000000   0.000000   0.000023
    39  H    0.000001   0.000006   0.000000  -0.000000  -0.000013   0.004897
              31         32         33         34         35         36
     1  C    0.015146  -0.000000   0.000000   0.000000   0.000000  -0.000000
     2  C   -0.083493   0.000001  -0.000000  -0.000000  -0.000005   0.000000
     3  C    0.402475   0.000014  -0.000001  -0.000000  -0.000014   0.000001
     4  C   -0.086397  -0.000013   0.000002   0.000000   0.000033  -0.000003
     5  C    0.024722  -0.000011   0.000000   0.000000   0.000003  -0.000000
     6  C   -0.003574   0.000000  -0.000000  -0.000000  -0.000000   0.000000
     7  C   -0.067630   0.014405  -0.004090   0.000017  -0.003074   0.001425
     8  C    0.396452  -0.000261   0.001807  -0.000008   0.017598  -0.002861
     9  C   -0.098520   0.019955  -0.001665   0.000167  -0.113966   0.010204
    10  H    0.001896   0.000024  -0.000149  -0.000004  -0.009885   0.001120
    11  C    0.015145   0.016046  -0.087783  -0.002919   0.351668   0.048594
    12  C   -0.003046   0.351177   0.044917   0.015063  -0.013166  -0.099579
    13  C    0.026581  -0.127404   0.005517  -0.001025   0.023566  -0.003573
    14  H    0.000544   0.000000  -0.000000  -0.000000  -0.000000   0.000000
    15  H   -0.000334  -0.000000   0.000000   0.000000  -0.000000  -0.000000
    16  H    0.000030  -0.000000   0.000000  -0.000000   0.000000  -0.000000
    17  C   -0.004993  -0.000450  -0.000006   0.000001   0.000019  -0.000008
    18  C    0.001237  -0.000139   0.000004   0.000000   0.000009  -0.000002
    19  C    0.000082   0.000346   0.000022  -0.000000  -0.000012   0.000002
    20  C   -0.000033   0.000020  -0.000002  -0.000000  -0.000000   0.000000
    21  C   -0.000031   0.000131  -0.000002  -0.000000  -0.000001   0.000001
    22  C    0.000014  -0.000001  -0.000000  -0.000000  -0.000000   0.000000
    23  H   -0.000002   0.000000   0.000000  -0.000000  -0.000000   0.000000
    24  H    0.000000  -0.000000  -0.000000  -0.000000  -0.000000   0.000000
    25  H    0.001039   0.000002  -0.000000   0.000000   0.000002  -0.000000
    26  H   -0.000021   0.000022   0.000001   0.000000  -0.000000   0.000000
    27  H    0.000000  -0.000000  -0.000000   0.000000  -0.000000   0.000000
    28  H   -0.000357  -0.000000   0.000000   0.000000   0.000000  -0.000000
    29  N   -0.017811  -0.000345  -0.000000  -0.000000   0.000040   0.000002
    30  H   -0.000280  -0.004289   0.001114  -0.000058  -0.000314  -0.000058
    31  S   15.554507  -0.000043   0.000008   0.000000  -0.001281   0.000003
    32  C   -0.000043   5.242088   0.390167  -0.070037  -0.110316   0.066029
    33  C    0.000008   0.390167   5.061873   0.450250   0.062330   0.322598
    34  H    0.000000  -0.070037   0.450250   0.548350   0.014815  -0.066038
    35  C   -0.001281  -0.110316   0.062330   0.014815   5.235224   0.388213
    36  C    0.000003   0.066029   0.322598  -0.066038   0.388213   5.064747
    37  H   -0.000000   0.014469  -0.066011  -0.009147  -0.069515   0.450322
    38  H   -0.000047  -0.004710   0.015579  -0.000252   0.464345  -0.069773
    39  H   -0.000003   0.469253  -0.069842  -0.010280  -0.005121   0.016000
              37         38         39
     1  C   -0.000000   0.000000  -0.000000
     2  C   -0.000000  -0.000000   0.000000
     3  C    0.000000  -0.000001  -0.000000
     4  C   -0.000000  -0.000001   0.000001
     5  C   -0.000000   0.000000   0.000000
     6  C    0.000000  -0.000000   0.000000
     7  C   -0.000015   0.000055   0.001720
     8  C    0.000030   0.000399  -0.000512
     9  C   -0.001142  -0.006164   0.000483
    10  H   -0.000056   0.005280   0.000034
    11  C    0.013909  -0.081706   0.012814
    12  C   -0.002661   0.013414  -0.079940
    13  C    0.000281  -0.000335  -0.012519
    14  H    0.000000  -0.000000   0.000000
    15  H    0.000000   0.000000  -0.000000
    16  H    0.000000  -0.000000  -0.000000
    17  C    0.000000  -0.000000  -0.000182
    18  C   -0.000000  -0.000000  -0.000011
    19  C    0.000000   0.000000   0.000167
    20  C   -0.000000   0.000000  -0.000004
    21  C   -0.000000   0.000000   0.000126
    22  C    0.000000  -0.000000   0.000030
    23  H    0.000000   0.000000  -0.000000
    24  H   -0.000000  -0.000000   0.000001
    25  H   -0.000000  -0.000000   0.000001
    26  H   -0.000000  -0.000000   0.000006
    27  H    0.000000  -0.000000   0.000000
    28  H   -0.000000  -0.000000  -0.000000
    29  N    0.000000   0.000000  -0.000013
    30  H   -0.000003   0.000023   0.004897
    31  S   -0.000000  -0.000047  -0.000003
    32  C    0.014469  -0.004710   0.469253
    33  C   -0.066011   0.015579  -0.069842
    34  H   -0.009147  -0.000252  -0.010280
    35  C   -0.069515   0.464345  -0.005121
    36  C    0.450322  -0.069773   0.016000
    37  H    0.547691  -0.010095  -0.000245
    38  H   -0.010095   0.548148   0.000080
    39  H   -0.000245   0.000080   0.551881
 Mulliken charges:
               1
     1  C   -0.169782
     2  C   -0.178634
     3  C   -0.011819
     4  C    0.169594
     5  C   -0.237056
     6  C   -0.156307
     7  C    0.137384
     8  C    0.087431
     9  C   -0.323158
    10  H    0.117791
    11  C    0.151645
    12  C    0.173529
    13  C   -0.328640
    14  H    0.130995
    15  H    0.148945
    16  H    0.134279
    17  C    0.176883
    18  C   -0.218445
    19  C   -0.227048
    20  C   -0.101912
    21  C   -0.093387
    22  C   -0.119780
    23  H    0.135142
    24  H    0.136387
    25  H    0.128646
    26  H    0.124350
    27  H    0.137765
    28  H    0.133029
    29  N    0.105651
    30  H    0.149598
    31  S   -0.071981
    32  C   -0.266130
    33  C   -0.126637
    34  H    0.131105
    35  C   -0.231194
    36  C   -0.127365
    37  H    0.132188
    38  H    0.125761
    39  H    0.121177
 Sum of Mulliken charges =  -0.00000
 Mulliken charges with hydrogens summed into heavy atoms:
               1
     1  C   -0.036754
     2  C   -0.047639
     3  C   -0.011819
     4  C    0.169594
     5  C   -0.088111
     6  C   -0.022027
     7  C    0.137384
     8  C    0.087431
     9  C   -0.205367
    11  C    0.151645
    12  C    0.173529
    13  C   -0.179042
    17  C    0.176883
    18  C   -0.089799
    19  C   -0.102698
    20  C    0.033230
    21  C    0.042999
    22  C    0.017985
    29  N    0.105651
    31  S   -0.071981
    32  C   -0.144953
    33  C    0.004468
    35  C   -0.105432
    36  C    0.004823
 Electronic spatial extent (au):  <R**2>=           8333.5795
 Charge=              0.0000 electrons
 Dipole moment (field-independent basis, Debye):
    X=             -1.4591    Y=              3.1624    Z=             -0.6511  Tot=              3.5431
 Quadrupole moment (field-independent basis, Debye-Ang):
   XX=           -134.4170   YY=           -126.6825   ZZ=           -146.3485
   XY=             -4.6476   XZ=              1.1442   YZ=             -0.6557
 Traceless Quadrupole moment (field-independent basis, Debye-Ang):
   XX=              1.3990   YY=              9.1335   ZZ=            -10.5325
   XY=             -4.6476   XZ=              1.1442   YZ=             -0.6557
 Octapole moment (field-independent basis, Debye-Ang**2):
  XXX=             21.2138  YYY=             43.6188  ZZZ=              9.3270  XYY=            -20.2235
  XXY=            -15.6273  XXZ=            -18.8791  XZZ=            -20.1569  YZZ=             25.3136
  YYZ=             -2.0740  XYZ=            -10.3195
 Hexadecapole moment (field-independent basis, Debye-Ang**3):
 XXXX=          -6446.3199 YYYY=          -3685.6584 ZZZZ=           -529.3832 XXXY=             75.7242
 XXXZ=             41.3214 YYYX=            -83.7539 YYYZ=             -3.2845 ZZZX=            -12.0730
 ZZZY=              5.3087 XXYY=          -1668.1657 XXZZ=          -1364.5570 YYZZ=           -748.4868
 XXYZ=              1.3626 YYXZ=             -4.0280 ZZXY=            -47.0413
 N-N= 2.001976088617D+03 E-N=-7.046633680888D+03  KE= 1.295571615754D+03
 Leave Link  601 at Tue Mar 30 10:43:29 2021, MaxMem=  5242880000 cpu:         4.1
 (Enter /opt/nce/packages/global/g09/l9999.exe)
 1\1\GINC-CN016\SP\RB97D3 TD-FC\Gen\C22H15N1S1\PNG4RJV\30-Mar-2021\0\\#
 p B97D3 chkbasis geom=allcheck Guess=Read int=ultrafine scrf=(SMD,solv
 ent=n,n-DiMethylAcetamide) td=(NStates=30)\\Title\\0,1\C,0,-4.20559197
 05,-2.3736531077,-0.4851942815\C,0,-2.9709099317,-2.8830966312,-0.0832
 429151\C,0,-1.8960902485,-2.0282831761,0.174206444\C,0,-2.0207445572,-
 0.6354330904,-0.0135727604\C,0,-3.2709803807,-0.1395222957,-0.42293928
 7\C,0,-4.3491544284,-0.9959789395,-0.6444638178\C,0,0.4096321393,-0.16
 69906465,0.1528289693\C,0,0.7728072191,-1.5397301373,0.3389319477\C,0,
 2.0860901365,-1.946454459,0.2350969183\H,0,2.333689593,-2.9976543789,0
 .3672143784\C,0,3.1323466111,-1.0189497957,0.0023299962\C,0,2.78673802
 99,0.36447158,-0.1394810316\C,0,1.4249979176,0.7511281441,-0.072392878
 7\H,0,-2.8383730356,-3.95351905,0.0562150244\H,0,-3.4046072131,0.92660
 12773,-0.562157395\H,0,-5.3025057897,-0.5742308374,-0.9525061009\C,0,-
 1.2060215595,1.651400596,0.2164375581\C,0,-1.4173141089,2.299580538,1.
 4319627599\C,0,-1.2480382709,2.3604749544,-0.9856610754\C,0,-1.6750054
 875,3.6719748244,1.4460445724\C,0,-1.5052591656,3.7312740793,-0.967415
 4998\C,0,-1.718709409,4.3877054961,0.2477210356\H,0,-1.8408342548,4.18
 00569778,2.3926490122\H,0,-1.538940394,4.2864966251,-1.9013695263\H,0,
 -1.3787204225,1.726324035,2.3543237162\H,0,-1.0792139987,1.8362522881,
 -1.9221467687\H,0,-1.918983699,5.4561661762,0.2597699969\H,0,-5.038714
 8453,-3.0467984012,-0.6671859463\N,0,-0.9378735224,0.2351431053,0.2236
 462591\H,0,1.1886258459,1.8012500439,-0.1999762792\S,0,-0.4267843723,-
 2.7216985731,0.8625978234\C,0,3.8248160697,1.3068095467,-0.3601856009\
 C,0,5.1419579171,0.8993097856,-0.4413203771\H,0,5.9269629393,1.6322558
 903,-0.6123875017\C,0,4.4923731578,-1.4077696661,-0.0844892728\C,0,5.4
 800133981,-0.4671165171,-0.3034527974\H,0,6.5208394818,-0.7744691287,-
 0.3700931364\H,0,4.7445230811,-2.4606068133,0.0252803848\H,0,3.5641985
 283,2.3578266813,-0.467141547\\Version=ES64L-G09RevE.01\State=1-A\HF=-
 1300.1034166\RMSD=4.126e-09\PG=C01 [X(C22H15N1S1)]\\@


 ORIGINALITY CONSISTS NOT IN SAYING WHAT NO ONE HAS EVER SAID BEFORE, 
 BUT IN SAYING WHAT YOU THINK YOUR SELF.

                                    -- JAMES F. STEPHEN
 Job cpu time:       0 days 19 hours 10 minutes 58.6 seconds.
 File lengths (MBytes):  RWF=   2716 Int=      0 D2E=      0 Chk=    629 Scr=      1
 Normal termination of Gaussian 09 at Tue Mar 30 10:43:30 2021.
