
                                 *****************
                                 * O   R   C   A *
                                 *****************

                                            #,                                       
                                            ###                                      
                                            ####                                     
                                            #####                                    
                                            ######                                   
                                           ########,                                 
                                     ,,################,,,,,                         
                               ,,#################################,,                 
                          ,,##########################################,,             
                       ,#########################################, ''#####,          
                    ,#############################################,,   '####,        
                  ,##################################################,,,,####,       
                ,###########''''           ''''###############################       
              ,#####''   ,,,,##########,,,,          '''####'''          '####       
            ,##' ,,,,###########################,,,                        '##       
           ' ,,###''''                  '''############,,,                           
         ,,##''                                '''############,,,,        ,,,,,,###''
      ,#''                                            '''#######################'''  
     '                                                          ''''####''''         
             ,#######,   #######,   ,#######,      ##                                
            ,#'     '#,  ##    ##  ,#'     '#,    #''#        ######   ,####,        
            ##       ##  ##   ,#'  ##            #'  '#       #        #'  '#        
            ##       ##  #######   ##           ,######,      #####,   #    #        
            '#,     ,#'  ##    ##  '#,     ,#' ,#      #,         ##   #,  ,#        
             '#######'   ##     ##  '#######'  #'      '#     #####' # '####'        



                  #######################################################
                  #                        -***-                        #
                  #          Department of theory and spectroscopy      #
                  #    Directorship and core code : Frank Neese         #
                  #        Max Planck Institute fuer Kohlenforschung    #
                  #                Kaiser Wilhelm Platz 1               #
                  #                 D-45470 Muelheim/Ruhr               #
                  #                      Germany                        #
                  #                                                     #
                  #                  All rights reserved                #
                  #                        -***-                        #
                  #######################################################


                         Program Version 5.0.2 -  RELEASE  -


 With contributions from (in alphabetic order):
   Daniel Aravena         : Magnetic Suceptibility
   Michael Atanasov       : Ab Initio Ligand Field Theory (pilot matlab implementation)
   Alexander A. Auer      : GIAO ZORA, VPT2 properties, NMR spectrum
   Ute Becker             : Parallelization
   Giovanni Bistoni       : ED, misc. LED, open-shell LED, HFLD
   Martin Brehm           : Molecular dynamics
   Dmytro Bykov           : SCF Hessian
   Vijay G. Chilkuri      : MRCI spin determinant printing, contributions to CSF-ICE
   Dipayan Datta          : RHF DLPNO-CCSD density
   Achintya Kumar Dutta   : EOM-CC, STEOM-CC
   Dmitry Ganyushin       : Spin-Orbit,Spin-Spin,Magnetic field MRCI
   Miquel Garcia          : C-PCM and meta-GGA Hessian, CC/C-PCM, Gaussian charge scheme
   Yang Guo               : DLPNO-NEVPT2, F12-NEVPT2, CIM, IAO-localization
   Andreas Hansen         : Spin unrestricted coupled pair/coupled cluster methods
   Benjamin Helmich-Paris : MC-RPA, TRAH-SCF, COSX integrals
   Lee Huntington         : MR-EOM, pCC
   Robert Izsak           : Overlap fitted RIJCOSX, COSX-SCS-MP3, EOM
   Marcus Kettner         : VPT2
   Christian Kollmar      : KDIIS, OOCD, Brueckner-CCSD(T), CCSD density, CASPT2, CASPT2-K
   Simone Kossmann        : Meta GGA functionals, TD-DFT gradient, OOMP2, MP2 Hessian
   Martin Krupicka        : Initial AUTO-CI
   Lucas Lang             : DCDCAS
   Marvin Lechner         : AUTO-CI (C++ implementation), FIC-MRCC
   Dagmar Lenk            : GEPOL surface, SMD
   Dimitrios Liakos       : Extrapolation schemes; Compound Job, initial MDCI parallelization
   Dimitrios Manganas     : Further ROCIS development; embedding schemes
   Dimitrios Pantazis     : SARC Basis sets
   Anastasios Papadopoulos: AUTO-CI, single reference methods and gradients
   Taras Petrenko         : DFT Hessian,TD-DFT gradient, ASA, ECA, R-Raman, ABS, FL, XAS/XES, NRVS
   Peter Pinski           : DLPNO-MP2, DLPNO-MP2 Gradient
   Christoph Reimann      : Effective Core Potentials
   Marius Retegan         : Local ZFS, SOC
   Christoph Riplinger    : Optimizer, TS searches, QM/MM, DLPNO-CCSD(T), (RO)-DLPNO pert. Triples
   Tobias Risthaus        : Range-separated hybrids, TD-DFT gradient, RPA, STAB
   Michael Roemelt        : Original ROCIS implementation
   Masaaki Saitow         : Open-shell DLPNO-CCSD energy and density
   Barbara Sandhoefer     : DKH picture change effects
   Avijit Sen             : IP-ROCIS
   Kantharuban Sivalingam : CASSCF convergence, NEVPT2, FIC-MRCI
   Bernardo de Souza      : ESD, SOC TD-DFT
   Georgi Stoychev        : AutoAux, RI-MP2 NMR, DLPNO-MP2 response
   Willem Van den Heuvel  : Paramagnetic NMR
   Boris Wezisla          : Elementary symmetry handling
   Frank Wennmohs         : Technical directorship


 We gratefully acknowledge several colleagues who have allowed us to
 interface, adapt or use parts of their codes:
   Stefan Grimme, W. Hujo, H. Kruse, P. Pracht,  : VdW corrections, initial TS optimization,
                  C. Bannwarth, S. Ehlert          DFT functionals, gCP, sTDA/sTD-DF
   Ed Valeev, F. Pavosevic, A. Kumar             : LibInt (2-el integral package), F12 methods
   Garnet Chan, S. Sharma, J. Yang, R. Olivares  : DMRG
   Ulf Ekstrom                                   : XCFun DFT Library
   Mihaly Kallay                                 : mrcc  (arbitrary order and MRCC methods)
   Jiri Pittner, Ondrej Demel                    : Mk-CCSD
   Frank Weinhold                                : gennbo (NPA and NBO analysis)
   Christopher J. Cramer and Donald G. Truhlar   : smd solvation model
   Lars Goerigk                                  : TD-DFT with DH, B97 family of functionals
   V. Asgeirsson, H. Jonsson                     : NEB implementation
   FAccTs GmbH                                   : IRC, NEB, NEB-TS, DLPNO-Multilevel, CI-OPT
                                                   MM, QMMM, 2- and 3-layer-ONIOM, Crystal-QMMM,
                                                   LR-CPCM, SF, NACMEs, symmetry and pop. for TD-DFT,
                                                   nearIR, NL-DFT gradient (VV10), updates on ESD,
                                                   ML-optimized integration grids
   S Lehtola, MJT Oliveira, MAL Marques          : LibXC Library
   Liviu Ungur et al                             : ANISO software


 Your calculation uses the libint2 library for the computation of 2-el integrals
 For citations please refer to: http://libint.valeyev.net

 Your ORCA version has been built with support for libXC version: 5.1.0
 For citations please refer to: https://tddft.org/programs/libxc/

 This ORCA versions uses:
   CBLAS   interface :  Fast vector & matrix operations
   LAPACKE interface :  Fast linear algebra routines
   SCALAPACK package :  Parallel linear algebra routines
   Shared memory     :  Shared parallel matrices
   BLAS/LAPACK       :  OpenBLAS 0.3.15  USE64BITINT DYNAMIC_ARCH NO_AFFINITY Prescott SINGLE_THREADED
        Core in use  :  Prescott
   Copyright (c) 2011-2014, The OpenBLAS Project


Your calculation utilizes the SMD solvation module
Please cite in your paper:
A.V. Marenich, C.J. Cramer, D.G. Truhlar J. Phys. Chem. B, 113, (2009), 6378 

================================================================================

----- Orbital basis set information -----
Your calculation utilizes the basis: def2-TZVP
   F. Weigend and R. Ahlrichs, Phys. Chem. Chem. Phys. 7, 3297 (2005).

----- AuxJ basis set information -----
Your calculation utilizes the auxiliary basis: def2/J
   F. Weigend, Phys. Chem. Chem. Phys. 8, 1057 (2006).

----- AuxC basis set information -----
Your calculation utilizes the auxiliary basis: def2-TZVP/C
  H-La, Hf-Rn : A. Hellweg, C. Hattig, S. Hofener and W. Klopper, Theor. Chem. Acc. 117, 587 (2007).
        Ce-Lu : J. Chmela and M. E. Harding, Mol. Phys. (2018).

================================================================================
                                        WARNINGS
                       Please study these warnings very carefully!
================================================================================

INFO   : Checking CIS options ...
  ===> : (D) CORRECTION FOUND - SETTING MODE=3
  ===> : JK MODE FOUND - ACTIVATING RI-MP2 CODE
  ===> : MP2 AND CIS FOUND - CHECKING
WARNING: CIS(D) and MP2 runs must have the same orbital window
  ===> : adjusting orbital windows

WARNING: No MP2 level density has been requested!
         To caclulate MP2 level properties use
         %mp2 Density relaxed end
         or
         %mp2 Density unrelaxed end
         Otherwise for double-hybrid DFT only the energy is correct!

WARNING: The frozen-core approximation is turned on by default for 
         the MP2 part of double-hybrid DFT.

WARNING: CIS/ROCIS methods need fully converged wavefunctions
  ===> : Setting SCFConvForced true
         You can overwrite this default with %scf ConvForced false 


INFO   : the flag for use of the SHARK integral package has been found!

================================================================================
                                       INPUT FILE
================================================================================
NAME = PTZ_3_M06L_def2TZVP_coords.inp
|  1> %maxcore 20000
|  2> %pal
|  3>  nprocs= 6
|  4> end
|  5> ! RI-SCS-PBE-QIDH   def2-TZVP def2/J def2-TZVP/C RIJCOSX CPCM TightSCF
|  6> %TDDFT  
|  7>    NROOTS   30
|  8>    dcorr 4
|  9>    doscs true 
| 10>    TDA      FALSE
| 11> END
| 12> 
| 13> %CPCM
| 14>    SMD          TRUE
| 15>    SMDsolvent   "N,N-DIMETHYLACETAMIDE"
| 16> END
| 17>    
| 18> 
| 19> * xyz 0 1
| 20> C                  -4.14164500   -2.46300300   -0.56122300
| 21> C                  -2.89708500   -2.95154600   -0.19768700
| 22> C                  -1.83913000   -2.08903100    0.05976900
| 23> C                  -1.99528000   -0.70233100   -0.08283000
| 24> C                  -3.25710800   -0.22754800   -0.45352000
| 25> C                  -4.31455600   -1.09428700   -0.67966000
| 26> C                   0.41700400   -0.18324600    0.09852000
| 27> C                   0.81220500   -1.54358300    0.24579400
| 28> C                   2.13131000   -1.90558200    0.16175400
| 29> H                   2.40302700   -2.94963600    0.26866100
| 30> C                   3.15250100   -0.95178300   -0.02213500
| 31> C                   2.77399800    0.41534500   -0.13410200
| 32> C                   1.40783600    0.75982700   -0.08143300
| 33> H                  -2.73900100   -4.01780900   -0.08879900
| 34> H                  -3.41728400    0.83556000   -0.55946400
| 35> H                  -5.27746600   -0.68515600   -0.95746300
| 36> C                  -1.23144600    1.58988300    0.16316500
| 37> C                  -1.44230800    2.22989500    1.37461000
| 38> C                  -1.29856100    2.29933200   -1.02962300
| 39> C                  -1.72374300    3.58887100    1.39341800
| 40> C                  -1.58055900    3.65594100   -1.00535400
| 41> C                  -1.79283600    4.30168800    0.20560300
| 42> H                  -1.88892500    4.08963000    2.33891500
| 43> H                  -1.63400600    4.21032700   -1.93372400
| 44> H                  -1.38401700    1.65956000    2.29339900
| 45> H                  -1.12920200    1.78246900   -1.96665700
| 46> H                  -2.01234100    5.36168000    0.22205000
| 47> H                  -4.96006700   -3.14611200   -0.74507900
| 48> N                  -0.93473300    0.18458300    0.16055300
| 49> H                   1.14872200    1.80453300   -0.18323800
| 50> S                  -0.35150300   -2.78066700    0.68072400
| 51> C                   3.78441900    1.38479100   -0.30855900
| 52> C                   5.10510400    1.01852700   -0.37283600
| 53> H                   5.86911900    1.77393600   -0.50867400
| 54> C                   4.51657300   -1.29854500   -0.09042200
| 55> C                   5.47596700   -0.33279500   -0.26364900
| 56> H                   6.52151700   -0.60905100   -0.31653600
| 57> H                   4.79358000   -2.34290800   -0.00327500
| 58> H                   3.49757800    2.42665300   -0.39316800
| 59> *
| 60> 
| 61> 
| 62>                          ****END OF INPUT****
================================================================================

                       ****************************
                       * Single Point Calculation *
                       ****************************

---------------------------------
CARTESIAN COORDINATES (ANGSTROEM)
---------------------------------
  C     -4.141645   -2.463003   -0.561223
  C     -2.897085   -2.951546   -0.197687
  C     -1.839130   -2.089031    0.059769
  C     -1.995280   -0.702331   -0.082830
  C     -3.257108   -0.227548   -0.453520
  C     -4.314556   -1.094287   -0.679660
  C      0.417004   -0.183246    0.098520
  C      0.812205   -1.543583    0.245794
  C      2.131310   -1.905582    0.161754
  H      2.403027   -2.949636    0.268661
  C      3.152501   -0.951783   -0.022135
  C      2.773998    0.415345   -0.134102
  C      1.407836    0.759827   -0.081433
  H     -2.739001   -4.017809   -0.088799
  H     -3.417284    0.835560   -0.559464
  H     -5.277466   -0.685156   -0.957463
  C     -1.231446    1.589883    0.163165
  C     -1.442308    2.229895    1.374610
  C     -1.298561    2.299332   -1.029623
  C     -1.723743    3.588871    1.393418
  C     -1.580559    3.655941   -1.005354
  C     -1.792836    4.301688    0.205603
  H     -1.888925    4.089630    2.338915
  H     -1.634006    4.210327   -1.933724
  H     -1.384017    1.659560    2.293399
  H     -1.129202    1.782469   -1.966657
  H     -2.012341    5.361680    0.222050
  H     -4.960067   -3.146112   -0.745079
  N     -0.934733    0.184583    0.160553
  H      1.148722    1.804533   -0.183238
  S     -0.351503   -2.780667    0.680724
  C      3.784419    1.384791   -0.308559
  C      5.105104    1.018527   -0.372836
  H      5.869119    1.773936   -0.508674
  C      4.516573   -1.298545   -0.090422
  C      5.475967   -0.332795   -0.263649
  H      6.521517   -0.609051   -0.316536
  H      4.793580   -2.342908   -0.003275
  H      3.497578    2.426653   -0.393168

----------------------------
CARTESIAN COORDINATES (A.U.)
----------------------------
  NO LB      ZA    FRAG     MASS         X           Y           Z
   0 C     6.0000    0    12.011   -7.826575   -4.654401   -1.060558
   1 C     6.0000    0    12.011   -5.474697   -5.577614   -0.373574
   2 C     6.0000    0    12.011   -3.475452   -3.947696    0.112947
   3 C     6.0000    0    12.011   -3.770533   -1.327213   -0.156526
   4 C     6.0000    0    12.011   -6.155042   -0.430003   -0.857029
   5 C     6.0000    0    12.011   -8.153329   -2.067903   -1.284371
   6 C     6.0000    0    12.011    0.788023   -0.346285    0.186176
   7 C     6.0000    0    12.011    1.534845   -2.916949    0.464483
   8 C     6.0000    0    12.011    4.027592   -3.601028    0.305671
   9 H     1.0000    0     1.008    4.541063   -5.574004    0.507696
  10 C     6.0000    0    12.011    5.957364   -1.798609   -0.041829
  11 C     6.0000    0    12.011    5.242097    0.784888   -0.253416
  12 C     6.0000    0    12.011    2.660424    1.435865   -0.153886
  13 H     1.0000    0     1.008   -5.175962   -7.592559   -0.167806
  14 H     1.0000    0     1.008   -6.457731    1.578980   -1.057234
  15 H     1.0000    0     1.008   -9.972965   -1.294757   -1.809343
  16 C     6.0000    0    12.011   -2.327096    3.004443    0.308337
  17 C     6.0000    0    12.011   -2.725567    4.213891    2.597636
  18 C     6.0000    0    12.011   -2.453925    4.345108   -1.945705
  19 C     6.0000    0    12.011   -3.257402    6.781983    2.633178
  20 C     6.0000    0    12.011   -2.986824    6.908727   -1.899844
  21 C     6.0000    0    12.011   -3.387969    8.129012    0.388533
  22 H     1.0000    0     1.008   -3.569551    7.728281    4.419909
  23 H     1.0000    0     1.008   -3.087824    7.956365   -3.654209
  24 H     1.0000    0     1.008   -2.615413    3.136114    4.333896
  25 H     1.0000    0     1.008   -2.133883    3.368378   -3.716443
  26 H     1.0000    0     1.008   -3.802773   10.132107    0.419614
  27 H     1.0000    0     1.008   -9.373168   -5.945290   -1.407995
  28 N     7.0000    0    14.007   -1.766389    0.348811    0.303401
  29 H     1.0000    0     1.008    2.170770    3.410073   -0.346270
  30 S    16.0000    0    32.060   -0.664244   -5.254699    1.286382
  31 C     6.0000    0    12.011    7.151515    2.616876   -0.583092
  32 C     6.0000    0    12.011    9.647248    1.924737   -0.704558
  33 H     1.0000    0     1.008   11.091028    3.352253   -0.961255
  34 C     6.0000    0    12.011    8.535086   -2.453894   -0.170873
  35 C     6.0000    0    12.011   10.348078   -0.628891   -0.498224
  36 H     1.0000    0     1.008   12.323881   -1.150940   -0.598166
  37 H     1.0000    0     1.008    9.058553   -4.427454   -0.006189
  38 H     1.0000    0     1.008    6.609465    4.585710   -0.742980

--------------------------------
INTERNAL COORDINATES (ANGSTROEM)
--------------------------------
 C      0   0   0     0.000000000000     0.00000000     0.00000000
 C      1   0   0     1.385554863492     0.00000000     0.00000000
 C      2   1   0     1.389058853752   120.91863199     0.00000000
 C      3   2   1     1.402730974671   120.67799074   358.01004978
 C      4   3   2     1.398227404528   117.58669818     1.77912961
 C      1   2   3     1.384669283817   118.89101361     0.70227111
 C      4   3   2     2.474156655586    95.24524788   191.31380744
 C      7   4   3     1.424215649067    94.45834126     0.62433066
 C      8   7   4     1.370453938893   120.86696689   168.52774174
 H      9   8   7     1.084116225159   119.31302142   180.55758396
 C      9   8   7     1.409389497337   121.77979325     2.41252118
 C     11   9   8     1.422968762300   117.88673586   359.34785434
 C      7   4   3     1.379680331730   146.51708691   165.88844596
 H      2   1   3     1.083403864110   120.29517365   178.69132545
 H      5   4   3     1.080314353221   119.60091369   179.16757562
 H      6   1   2     1.082477875095   120.44003938   180.30115618
 C      7   4   3     2.421890342102    59.46489741   190.53214633
 C     17   7   4     1.386245696553   117.70197885   109.04153747
 C     17   7   4     1.389447919056   112.56835590   256.02379810
 C     18  17   7     1.387939180463   119.65253049   144.35028017
 C     19  17   7     1.385820996827   119.64537039   213.93757499
 C     20  18  17     1.387006269763   120.11229929   359.97542218
 H     20  18  17     1.082593758625   119.71435182   179.97897496
 H     21  19  17     1.082622406800   119.75626386   180.04490178
 H     18  17   7     1.082983416044   119.34592297   324.38169144
 H     19  17   7     1.083449375285   119.42724917    33.93330731
 H     22  20  18     1.082606109764   120.01850035   180.00769941
 H      1   2   3     1.081783483282   120.09937509   180.86493440
 N      7   4   3     1.402262166465    28.16570425   199.63386611
 H     13   7   4     1.081163701507   120.04372149    17.51731650
 S      8   7   4     1.753213403217   121.02624050   343.01662700
 C     12  11   9     1.411102898093   118.64066346   179.53297751
 C     32  12  11     1.372038527028   120.77342159     0.17550355
 H     33  32  12     1.082965207082   119.91722968   179.89816010
 C     11   9   8     1.409112990571   122.76456798   178.98013010
 C     35  11   9     1.372267285650   120.64487255   180.34424838
 H     36  35  11     1.082723055451   120.11445508   180.09882775
 H     35  11   9     1.083984111243   118.72273518     0.33168595
 H     32  12  11     1.083933978251   118.71867361   180.05013868

---------------------------
INTERNAL COORDINATES (A.U.)
---------------------------
 C      0   0   0     0.000000000000     0.00000000     0.00000000
 C      1   0   0     2.618319235522     0.00000000     0.00000000
 C      2   1   0     2.624940817489   120.91863199     0.00000000
 C      3   2   1     2.650777381696   120.67799074   358.01004978
 C      4   3   2     2.642266867501   117.58669818     1.77912961
 C      1   2   3     2.616645732467   118.89101361     0.70227111
 C      4   3   2     4.675478491476    95.24524788   191.31380744
 C      7   4   3     2.691377532381    94.45834126     0.62433066
 C      8   7   4     2.589782623660   120.86696689   168.52774174
 H      9   8   7     2.048682762892   119.31302142   180.55758396
 C      9   8   7     2.663360165991   121.77979325     2.41252118
 C     11   9   8     2.689021257872   117.88673586   359.34785434
 C      7   4   3     2.607217979327   146.51708691   165.88844596
 H      2   1   3     2.047336595600   120.29517365   178.69132545
 H      5   4   3     2.041498266133   119.60091369   179.16757562
 H      6   1   2     2.045586729958   120.44003938   180.30115618
 C      7   4   3     4.576709472961    59.46489741   190.53214633
 C     17   7   4     2.619624720813   117.70197885   109.04153747
 C     17   7   4     2.625676044363   112.56835590   256.02379810
 C     18  17   7     2.622824941615   119.65253049   144.35028017
 C     19  17   7     2.618822154640   119.64537039   213.93757499
 C     20  18  17     2.621061995885   120.11229929   359.97542218
 H     20  18  17     2.045805718094   119.71435182   179.97897496
 H     21  19  17     2.045859855298   119.75626386   180.04490178
 H     18  17   7     2.046542063902   119.34592297   324.38169144
 H     19  17   7     2.047422599257   119.42724917    33.93330731
 H     22  20  18     2.045829058364   120.01850035   180.00769941
 H      1   2   3     2.044274519602   120.09937509   180.86493440
 N      7   4   3     2.649891462578    28.16570425   199.63386611
 H     13   7   4     2.043103301785   120.04372149    17.51731650
 S      8   7   4     3.313093186400   121.02624050   343.01662700
 C     12  11   9     2.666598024178   118.64066346   179.53297751
 C     32  12  11     2.592777061272   120.77342159     0.17550355
 H     33  32  12     2.046507653950   119.91722968   179.89816010
 C     11   9   8     2.662837643931   122.76456798   178.98013010
 C     35  11   9     2.593209352418   120.64487255   180.34424838
 H     36  35  11     2.046050053685   120.11445508   180.09882775
 H     35  11   9     2.048433103771   118.72273518     0.33168595
 H     32  12  11     2.048338366145   118.71867361   180.05013868

---------------------
BASIS SET INFORMATION
---------------------
There are 4 groups of distinct atoms

 Group   1 Type C   : 11s6p2d1f contracted to 5s3p2d1f pattern {62111/411/11/1}
 Group   2 Type H   : 5s1p contracted to 3s1p pattern {311/1}
 Group   3 Type N   : 11s6p2d1f contracted to 5s3p2d1f pattern {62111/411/11/1}
 Group   4 Type S   : 14s9p3d1f contracted to 5s5p2d1f pattern {73211/51111/21/1}

Atom   0C    basis set group =>   1
Atom   1C    basis set group =>   1
Atom   2C    basis set group =>   1
Atom   3C    basis set group =>   1
Atom   4C    basis set group =>   1
Atom   5C    basis set group =>   1
Atom   6C    basis set group =>   1
Atom   7C    basis set group =>   1
Atom   8C    basis set group =>   1
Atom   9H    basis set group =>   2
Atom  10C    basis set group =>   1
Atom  11C    basis set group =>   1
Atom  12C    basis set group =>   1
Atom  13H    basis set group =>   2
Atom  14H    basis set group =>   2
Atom  15H    basis set group =>   2
Atom  16C    basis set group =>   1
Atom  17C    basis set group =>   1
Atom  18C    basis set group =>   1
Atom  19C    basis set group =>   1
Atom  20C    basis set group =>   1
Atom  21C    basis set group =>   1
Atom  22H    basis set group =>   2
Atom  23H    basis set group =>   2
Atom  24H    basis set group =>   2
Atom  25H    basis set group =>   2
Atom  26H    basis set group =>   2
Atom  27H    basis set group =>   2
Atom  28N    basis set group =>   3
Atom  29H    basis set group =>   2
Atom  30S    basis set group =>   4
Atom  31C    basis set group =>   1
Atom  32C    basis set group =>   1
Atom  33H    basis set group =>   2
Atom  34C    basis set group =>   1
Atom  35C    basis set group =>   1
Atom  36H    basis set group =>   2
Atom  37H    basis set group =>   2
Atom  38H    basis set group =>   2
---------------------------------
AUXILIARY/J BASIS SET INFORMATION
---------------------------------
There are 4 groups of distinct atoms

 Group   1 Type C   : 12s5p4d2f1g contracted to 6s4p3d1f1g pattern {711111/2111/211/2/1}
 Group   2 Type H   : 5s2p1d contracted to 3s1p1d pattern {311/2/1}
 Group   3 Type N   : 12s5p4d2f1g contracted to 6s4p3d1f1g pattern {711111/2111/211/2/1}
 Group   4 Type S   : 14s5p5d2f1g contracted to 8s4p3d1f1g pattern {71111111/2111/311/2/1}

Atom   0C    basis set group =>   1
Atom   1C    basis set group =>   1
Atom   2C    basis set group =>   1
Atom   3C    basis set group =>   1
Atom   4C    basis set group =>   1
Atom   5C    basis set group =>   1
Atom   6C    basis set group =>   1
Atom   7C    basis set group =>   1
Atom   8C    basis set group =>   1
Atom   9H    basis set group =>   2
Atom  10C    basis set group =>   1
Atom  11C    basis set group =>   1
Atom  12C    basis set group =>   1
Atom  13H    basis set group =>   2
Atom  14H    basis set group =>   2
Atom  15H    basis set group =>   2
Atom  16C    basis set group =>   1
Atom  17C    basis set group =>   1
Atom  18C    basis set group =>   1
Atom  19C    basis set group =>   1
Atom  20C    basis set group =>   1
Atom  21C    basis set group =>   1
Atom  22H    basis set group =>   2
Atom  23H    basis set group =>   2
Atom  24H    basis set group =>   2
Atom  25H    basis set group =>   2
Atom  26H    basis set group =>   2
Atom  27H    basis set group =>   2
Atom  28N    basis set group =>   3
Atom  29H    basis set group =>   2
Atom  30S    basis set group =>   4
Atom  31C    basis set group =>   1
Atom  32C    basis set group =>   1
Atom  33H    basis set group =>   2
Atom  34C    basis set group =>   1
Atom  35C    basis set group =>   1
Atom  36H    basis set group =>   2
Atom  37H    basis set group =>   2
Atom  38H    basis set group =>   2
---------------------------------
AUXILIARY/C BASIS SET INFORMATION
---------------------------------
There are 4 groups of distinct atoms

 Group   1 Type C   : 8s6p5d3f1g contracted to 8s6p4d3f1g pattern {11111111/111111/2111/111/1}
 Group   2 Type H   : 4s3p2d contracted to 4s2p1d pattern {1111/21/2}
 Group   3 Type N   : 8s6p5d3f1g contracted to 8s6p4d3f1g pattern {11111111/111111/2111/111/1}
 Group   4 Type S   : 10s7p7d5f2g contracted to 9s7p6d5f2g pattern {211111111/1111111/211111/11111/11}

Atom   0C    basis set group =>   1
Atom   1C    basis set group =>   1
Atom   2C    basis set group =>   1
Atom   3C    basis set group =>   1
Atom   4C    basis set group =>   1
Atom   5C    basis set group =>   1
Atom   6C    basis set group =>   1
Atom   7C    basis set group =>   1
Atom   8C    basis set group =>   1
Atom   9H    basis set group =>   2
Atom  10C    basis set group =>   1
Atom  11C    basis set group =>   1
Atom  12C    basis set group =>   1
Atom  13H    basis set group =>   2
Atom  14H    basis set group =>   2
Atom  15H    basis set group =>   2
Atom  16C    basis set group =>   1
Atom  17C    basis set group =>   1
Atom  18C    basis set group =>   1
Atom  19C    basis set group =>   1
Atom  20C    basis set group =>   1
Atom  21C    basis set group =>   1
Atom  22H    basis set group =>   2
Atom  23H    basis set group =>   2
Atom  24H    basis set group =>   2
Atom  25H    basis set group =>   2
Atom  26H    basis set group =>   2
Atom  27H    basis set group =>   2
Atom  28N    basis set group =>   3
Atom  29H    basis set group =>   2
Atom  30S    basis set group =>   4
Atom  31C    basis set group =>   1
Atom  32C    basis set group =>   1
Atom  33H    basis set group =>   2
Atom  34C    basis set group =>   1
Atom  35C    basis set group =>   1
Atom  36H    basis set group =>   2
Atom  37H    basis set group =>   2
Atom  38H    basis set group =>   2


           ************************************************************
           *        Program running with 6 parallel MPI-processes     *
           *              working on a common directory               *
           ************************************************************
------------------------------------------------------------------------------
                           ORCA GTO INTEGRAL CALCULATION
                           -- RI-GTO INTEGRALS CHOSEN --
------------------------------------------------------------------------------
------------------------------------------------------------------------------
                   ___                                                        
                  /   \      - P O W E R E D   B Y -                         
                 /     \                                                     
                 |  |  |   _    _      __       _____    __    __             
                 |  |  |  | |  | |    /  \     |  _  \  |  |  /  |          
                  \  \/   | |  | |   /    \    | | | |  |  | /  /          
                 / \  \   | |__| |  /  /\  \   | |_| |  |  |/  /          
                |  |  |   |  __  | /  /__\  \  |    /   |      \           
                |  |  |   | |  | | |   __   |  |    \   |  |\   \          
                \     /   | |  | | |  |  |  |  | |\  \  |  | \   \       
                 \___/    |_|  |_| |__|  |__|  |_| \__\ |__|  \__/        
                                                                              
                      - O R C A' S   B I G   F R I E N D -                    
                                      &                                       
                       - I N T E G R A L  F E E D E R -                       
                                                                              
 v1 FN, 2020, v2 2021                                                         
------------------------------------------------------------------------------


Reading SHARK input file PTZ_3_M06L_def2TZVP_coords.SHARKINP.tmp ... ok
----------------------
SHARK INTEGRAL PACKAGE
----------------------

Number of atoms                             ...     39
Number of basis functions                   ...    840
Number of shells                            ...    326
Maximum angular momentum                    ...      3
Integral batch strategy                     ... SHARK/LIBINT Hybrid
RI-J (if used) integral strategy            ... SPLIT-RIJ (Revised 2003 algorithm where possible)
Printlevel                                  ...      1
Contraction scheme used                     ... SEGMENTED contraction
Coulomb Range Separation                    ... NOT USED
Exchange Range Separation                   ... NOT USED
Finite Nucleus Model                        ... NOT USED
Auxiliary Coulomb fitting basis             ... AVAILABLE
   # of basis functions in Aux-J            ...   1343
   # of shells in Aux-J                     ...    437
   Maximum angular momentum in Aux-J        ...      4
Auxiliary J/K fitting basis                 ... NOT available
Auxiliary Correlation fitting basis         ... AVAILABLE
   # of basis functions in Aux-C            ...   2086
   # of shells in Aux-C                     ...    640
   Maximum angular momentum in Aux-C        ...      4
Auxiliary 'external' fitting basis          ... NOT available
Integral threshold                          ...     2.500000e-11
Primitive cut-off                           ...     2.500000e-12
Primitive pair pre-selection threshold      ...     2.500000e-12

Calculating pre-screening integrals         ... done (  0.3 sec) Dimension = 326
Organizing shell pair data                  ... done (  1.2 sec)
Shell pair information
Total number of shell pairs                 ...     53301
Shell pairs after pre-screening             ...     37564
Total number of primitive shell pairs       ...    167340
Primitive shell pairs kept                  ...     77639
          la=0 lb=0:   9103 shell pairs
          la=1 lb=0:  10780 shell pairs
          la=1 lb=1:   3164 shell pairs
          la=2 lb=0:   5437 shell pairs
          la=2 lb=1:   3218 shell pairs
          la=2 lb=2:    843 shell pairs
          la=3 lb=0:   2523 shell pairs
          la=3 lb=1:   1530 shell pairs
          la=3 lb=2:    772 shell pairs
          la=3 lb=3:    194 shell pairs

Calculating one electron integrals          ... done (  0.3 sec)
Calculating RI/J V-Matrix + Cholesky decomp.... done (  0.7 sec)
Calculating RI/C V-Matrix + Cholesky decomp.... done (  1.6 sec)
Calculating Nuclear repulsion               ... done (  0.0 sec) ENN=   2012.240589073623 Eh

SHARK setup successfully completed in   5.4 seconds

Maximum memory used throughout the entire GTOINT-calculation: 65.6 MB


           ************************************************************
           *        Program running with 6 parallel MPI-processes     *
           *              working on a common directory               *
           ************************************************************
-------------------------------------------------------------------------------
                                 ORCA SCF
-------------------------------------------------------------------------------

------------
SCF SETTINGS
------------
Hamiltonian:
 Density Functional     Method          .... DFT(GTOs)
 Exchange Functional    Exchange        .... PBE
   PBE kappa parameter   XKappa         ....  0.804000
   PBE mue parameter    XMuePBE         ....  0.219520
 Correlation Functional Correlation     .... PBE
   PBE beta parameter  CBetaPBE         ....  0.066725
 LDA part of GGA corr.  LDAOpt          .... PW91-LDA
 Gradients option       PostSCFGGA      .... off
 Hybrid DFT is turned on
   Fraction HF Exchange ScalHFX         ....  0.690000
   Scaling of DF-GGA-X  ScalDFX         ....  0.310000
   Scaling of DF-GGA-C  ScalDFC         ....  0.670000
   Scaling of DF-LDA-C  ScalLDAC        ....  0.670000
   Perturbative correction              ....  0.330000
   Density functional embedding theory  .... OFF
 RI-approximation to the Coulomb term is turned on
   Number of AuxJ basis functions       .... 1343
   RIJ-COSX (HFX calculated with COS-X)).... on


General Settings:
 Integral files         IntName         .... PTZ_3_M06L_def2TZVP_coords
 Hartree-Fock type      HFTyp           .... RHF
 Total Charge           Charge          ....    0
 Multiplicity           Mult            ....    1
 Number of Electrons    NEL             ....  170
 Basis Dimension        Dim             ....  840
 Nuclear Repulsion      ENuc            ....   2012.2405890736 Eh

Convergence Acceleration:
 DIIS                   CNVDIIS         .... on
   Start iteration      DIISMaxIt       ....    12
   Startup error        DIISStart       ....  0.200000
   # of expansion vecs  DIISMaxEq       ....     5
   Bias factor          DIISBfac        ....   1.050
   Max. coefficient     DIISMaxC        ....  10.000
 Trust-Rad. Augm. Hess. CNVTRAH         .... auto
   Auto Start mean grad. ratio tolernc. ....  1.125000
   Auto Start start iteration           ....    20
   Auto Start num. interpolation iter.  ....    10
   Max. Number of Micro iterations      ....    16
   Max. Number of Macro iterations      .... Maxiter - #DIIS iter
   Number of Davidson start vectors     ....     2
   Converg. threshold I  (grad. norm)   ....   1.000e-05
   Converg. threshold II (energy diff.) ....   1.000e-08
   Grad. Scal. Fac. for Micro threshold ....   0.100
   Minimum threshold for Micro iter.    ....   0.010
   NR start threshold (gradient norm)   ....   0.001
   Initial trust radius                 ....   0.400
   Minimum AH scaling param. (alpha)    ....   1.000
   Maximum AH scaling param. (alpha)    .... 1000.000
   Orbital update algorithm             .... Taylor
   White noise on init. David. guess    .... on
   Maximum white noise                  ....   0.010
   Quad. conv. algorithm                .... NR
 SOSCF                  CNVSOSCF        .... on
   Start iteration      SOSCFMaxIt      ....   150
   Startup grad/error   SOSCFStart      ....  0.003300
 Level Shifting         CNVShift        .... on
   Level shift para.    LevelShift      ....    0.2500
   Turn off err/grad.   ShiftErr        ....    0.0010
 Zerner damping         CNVZerner       .... off
 Static damping         CNVDamp         .... on
   Fraction old density DampFac         ....    0.7000
   Max. Damping (<1)    DampMax         ....    0.9800
   Min. Damping (>=0)   DampMin         ....    0.0000
   Turn off err/grad.   DampErr         ....    0.1000
 Fernandez-Rico         CNVRico         .... off

SCF Procedure:
 Maximum # iterations   MaxIter         ....   125
 SCF integral mode      SCFMode         .... Direct
   Integral package                     .... SHARK and LIBINT hybrid scheme
 Reset frequency        DirectResetFreq ....    20
 Integral Threshold     Thresh          ....  2.500e-11 Eh
 Primitive CutOff       TCut            ....  2.500e-12 Eh

Convergence Tolerance:
 Convergence Check Mode ConvCheckMode   .... Total+1el-Energy
 Convergence forced     ConvForced      .... 1
 Energy Change          TolE            ....  1.000e-08 Eh
 1-El. energy change                    ....  1.000e-05 Eh
 Orbital Gradient       TolG            ....  1.000e-05
 Orbital Rotation angle TolX            ....  1.000e-05
 DIIS Error             TolErr          ....  5.000e-07


Diagonalization of the overlap matrix:
Smallest eigenvalue                        ... 4.195e-06
Time for diagonalization                   ...    1.015 sec
Threshold for overlap eigenvalues          ... 1.000e-08
Number of eigenvalues below threshold      ... 0
Time for construction of square roots      ...    0.833 sec
Total time needed                          ...    1.909 sec

Time for model grid setup =    1.444 sec

------------------------------
INITIAL GUESS: MODEL POTENTIAL
------------------------------
Loading Hartree-Fock densities                     ... done
Calculating cut-offs                               ... done
Initializing the effective Hamiltonian             ... done
Setting up the integral package (SHARK)            ... done
Starting the Coulomb interaction                   ... done (   2.8 sec)
Reading the grid                                   ... done
Mapping shells                                     ... done
Starting the XC term evaluation                    ... done (   1.9 sec)
  promolecular density results
     # of electrons  =    170.003783809
     EX              =   -148.520833454
     EC              =     -2.159576929
     EX+EC           =   -150.680410383
Transforming the Hamiltonian                       ... done (   0.8 sec)
Diagonalizing the Hamiltonian                      ... done (   0.6 sec)
Back transforming the eigenvectors                 ... done (   0.2 sec)
Now organizing SCF variables                       ... done
                      ------------------
                      INITIAL GUESS DONE (   8.0 sec)
                      ------------------
-------------------
DFT GRID GENERATION
-------------------

General Integration Accuracy     IntAcc      ... 4.388
Radial Grid Type                 RadialGrid  ... OptM3 with GC (2021)
Angular Grid (max. ang.)         AngularGrid ... 4 (Lebedev-302)
Angular grid pruning method      GridPruning ... 4 (adaptive)
Weight generation scheme         WeightScheme... Becke
Basis function cutoff            BFCut       ... 1.0000e-11
Integration weight cutoff        WCut        ... 1.0000e-14
Angular grids for H and He will be reduced by one unit
Partially contracted basis set               ... off
Rotationally invariant grid construction     ... off

Total number of grid points                  ...   191904
Total number of batches                      ...     3019
Average number of points per batch           ...       63
Average number of grid points per atom       ...     4921
Time for grid setup =    4.366 sec

--------------------
COSX GRID GENERATION
--------------------

GRIDX 1
-------
General Integration Accuracy     IntAcc      ... 3.816
Radial Grid Type                 RadialGrid  ... OptM3 with GC (2021)
Angular Grid (max. ang.)         AngularGrid ... 1 (Lebedev-50)
Angular grid pruning method      GridPruning ... 4 (adaptive)
Weight generation scheme         WeightScheme... Becke
Basis function cutoff            BFCut       ... 1.0000e-11
Integration weight cutoff        WCut        ... 1.0000e-14
Angular grids for H and He will be reduced by one unit
Partially contracted basis set               ... on
Rotationally invariant grid construction     ... off

Total number of grid points                  ...    24340
Total number of batches                      ...      397
Average number of points per batch           ...       61
Average number of grid points per atom       ...      624
UseSFitting                                  ... on

GRIDX 2
-------
General Integration Accuracy     IntAcc      ... 4.020
Radial Grid Type                 RadialGrid  ... OptM3 with GC (2021)
Angular Grid (max. ang.)         AngularGrid ... 2 (Lebedev-110)
Angular grid pruning method      GridPruning ... 4 (adaptive)
Weight generation scheme         WeightScheme... Becke
Basis function cutoff            BFCut       ... 1.0000e-11
Integration weight cutoff        WCut        ... 1.0000e-14
Angular grids for H and He will be reduced by one unit
Partially contracted basis set               ... on
Rotationally invariant grid construction     ... off

Total number of grid points                  ...    53147
Total number of batches                      ...      853
Average number of points per batch           ...       62
Average number of grid points per atom       ...     1363
UseSFitting                                  ... on

GRIDX 3
-------
General Integration Accuracy     IntAcc      ... 4.338
Radial Grid Type                 RadialGrid  ... OptM3 with GC (2021)
Angular Grid (max. ang.)         AngularGrid ... 3 (Lebedev-194)
Angular grid pruning method      GridPruning ... 4 (adaptive)
Weight generation scheme         WeightScheme... Becke
Basis function cutoff            BFCut       ... 1.0000e-11
Integration weight cutoff        WCut        ... 1.0000e-14
Angular grids for H and He will be reduced by one unit
Partially contracted basis set               ... on
Rotationally invariant grid construction     ... off

Total number of grid points                  ...   116902
Total number of batches                      ...     1847
Average number of points per batch           ...       63
Average number of grid points per atom       ...     2997
UseSFitting                                  ... on

Time for X-Grid setup             =    9.622 sec


--------------------
CPCM SOLVATION MODEL
--------------------
CPCM parameters:
  Epsilon                                         ...      37.7810
  Refrac                                          ...       1.4380
  Rsolv                                           ...       1.3000
  Surface type                                    ... GAUSSIAN VDW
  Epsilon function type                           ...         CPCM
Solvent:                                     ... N,N-DIMETHYLACETAMIDE
SMD-CDS solvent descriptors:
  Soln                                       ...    1.4380
  Soln25                                     ...    1.4358
  Sola                                       ...    0.0000
  Solb                                       ...    0.7800
  Solg                                       ...   47.6200
  Solc                                       ...    0.0000
  Solh                                       ...    0.0000
Radii:
 Radius for C  used is    3.4960 Bohr (=   1.8500 Ang.)
 Radius for H  used is    2.2677 Bohr (=   1.2000 Ang.)
 Radius for N  used is    3.5716 Bohr (=   1.8900 Ang.)
 Radius for S  used is    4.7054 Bohr (=   2.4900 Ang.)
Calculating surface                               ...        done! (  0.0s)
GEPOL surface points                              ...         2138
GEPOL Volume                                      ...    2262.6738
GEPOL Surface-area                                ...    1182.5527
Calculating surface distance matrix               ...        done! (  0.0s)
Performing Cholesky decomposition & store         ...        done! (  0.9s)
Overall time for CPCM initialization              ...                 1.0s
--------------
SCF ITERATIONS
--------------
ITER       Energy         Delta-E        Max-DP      RMS-DP      [F,P]     Damp
               ***  Starting incremental Fock matrix formation  ***
  0  -1297.2384357285   0.000000000000 0.03701057  0.00060311  0.1455345 0.7000
  1  -1297.4514231152  -0.212987386700 0.03257729  0.00051614  0.0942731 0.7000
                               ***Turning on DIIS***
  2  -1297.5743952025  -0.122972087257 0.08154833  0.00120984  0.0564453 0.0000
  3  -1297.7957583459  -0.221363143381 0.03488239  0.00032137  0.0303028 0.0000
  4  -1297.8178470750  -0.022088729142 0.01858181  0.00019019  0.0080896 0.0000
  5  -1297.8188872698  -0.001040194803 0.00816210  0.00009499  0.0033557 0.0000
                      *** Initiating the SOSCF procedure ***
                           *** Shutting down DIIS ***
                      *** Re-Reading the Fockian *** 
                      *** Removing any level shift *** 
ITER      Energy       Delta-E        Grad      Rot      Max-DP    RMS-DP
  6  -1297.81917504  -0.0002877670  0.002435  0.002435  0.005221  0.000055
               *** Restarting incremental Fock matrix formation ***
  7  -1297.81921120  -0.0000361593  0.001466  0.005550  0.012161  0.000137
  8  -1297.81926027  -0.0000490766  0.000596  0.004584  0.004543  0.000050
  9  -1297.81927246  -0.0000121832  0.000199  0.000543  0.002149  0.000023
 10  -1297.81927380  -0.0000013470  0.000054  0.000245  0.000291  0.000004
 11  -1297.81927418  -0.0000003778  0.000027  0.000096  0.000215  0.000003
 12  -1297.81927423  -0.0000000487  0.000015  0.000066  0.000087  0.000001
 13  -1297.81927423   0.0000000039  0.000004  0.000012  0.000137  0.000002
 14  -1297.81927425  -0.0000000240  0.000003  0.000002  0.000108  0.000001
                  ***Gradient check signals convergence***
              ***Rediagonalizing the Fockian in SOSCF/NRSCF***

               *****************************************************
               *                     SUCCESS                       *
               *           SCF CONVERGED AFTER  15 CYCLES          *
               *****************************************************

Old exchange energy                            =   -104.459945967 Eh
New exchange energy                            =   -104.459983414 Eh
Exchange energy change after final integration =     -0.000037447 Eh
Total energy after final integration           =  -1297.819311688 Eh
Final COS-X integration done in                =   116.423 sec

SMD CDS free energy correction energy :                -4.25921     Kcal/mol
Total Energy after SMD CDS correction =             -1297.826099166 Eh

----------------
TOTAL SCF ENERGY
----------------

Total Energy       :        -1297.82609917 Eh          -35315.64357 eV

Components:
Nuclear Repulsion  :         2012.24058907 Eh           54755.85016 eV
Electronic Energy  :        -3310.06668824 Eh          -90071.49373 eV
One Electron Energy:        -5768.94030993 Eh         -156980.84659 eV
Two Electron Energy:         2458.87362169 Eh           66909.35285 eV
Max COSX asymmetry :            0.00000822 Eh               0.00022 eV
CPCM Dielectric    :           -0.02153743 Eh              -0.58606 eV
SMD CDS (Gcds)     :           -0.00678748 Eh              -0.18470 eV

Virial components:
Potential Energy   :        -2591.61504689 Eh          -70521.43067 eV
Kinetic Energy     :         1293.78894772 Eh           35205.78710 eV
Virial Ratio       :            2.00312041


DFT components:
N(Alpha)           :       85.000067163684 electrons
N(Beta)            :       85.000067163684 electrons
N(Total)           :      170.000134327367 electrons
E(X)               :      -46.715772484700 Eh       
E(C)               :       -3.898709253541 Eh       
E(XC)              :      -50.614481738241 Eh       
DFET-embed. en.    :        0.000000000000 Eh       
CPCM Solvation Model Properties:
Surface-charge          :           -0.05920562
Charge-correction       :            0.00026084 Eh               0.00710 eV
Free-energy (cav+disp)  :           -0.00678748 Eh              -0.18470 eV

---------------
SCF CONVERGENCE
---------------

  Last Energy change         ...    8.8094e-09  Tolerance :   1.0000e-08
  Last MAX-Density change    ...    2.8866e-15  Tolerance :   1.0000e-07
  Last RMS-Density change    ...    1.4337e-17  Tolerance :   5.0000e-09
  Last Orbital Gradient      ...    4.7084e-07  Tolerance :   1.0000e-05
  Last Orbital Rotation      ...    1.8364e-06  Tolerance :   1.0000e-05

             **** THE GBW FILE WAS UPDATED (PTZ_3_M06L_def2TZVP_coords.gbw) ****
             **** DENSITY PTZ_3_M06L_def2TZVP_coords.scfp WAS UPDATED ****
             **** ENERGY FILE WAS UPDATED (PTZ_3_M06L_def2TZVP_coords.en.tmp) ****
             **** THE GBW FILE WAS UPDATED (PTZ_3_M06L_def2TZVP_coords.gbw) ****
             **** DENSITY PTZ_3_M06L_def2TZVP_coords.scfp WAS UPDATED ****
----------------
ORBITAL ENERGIES
----------------

  NO   OCC          E(Eh)            E(eV) 
   0   2.0000     -90.759342     -2469.6873 
   1   2.0000     -15.124942      -411.5706 
   2   2.0000     -10.885678      -296.2144 
   3   2.0000     -10.883273      -296.1489 
   4   2.0000     -10.865963      -295.6779 
   5   2.0000     -10.864370      -295.6345 
   6   2.0000     -10.860144      -295.5195 
   7   2.0000     -10.835399      -294.8462 
   8   2.0000     -10.832064      -294.7554 
   9   2.0000     -10.831129      -294.7300 
  10   2.0000     -10.829124      -294.6754 
  11   2.0000     -10.825486      -294.5764 
  12   2.0000     -10.825424      -294.5748 
  13   2.0000     -10.824649      -294.5537 
  14   2.0000     -10.824179      -294.5409 
  15   2.0000     -10.823383      -294.5192 
  16   2.0000     -10.823178      -294.5136 
  17   2.0000     -10.822480      -294.4947 
  18   2.0000     -10.821148      -294.4584 
  19   2.0000     -10.821144      -294.4583 
  20   2.0000     -10.819874      -294.4237 
  21   2.0000     -10.819638      -294.4173 
  22   2.0000     -10.818362      -294.3826 
  23   2.0000     -10.817105      -294.3484 
  24   2.0000      -8.588976      -233.7179 
  25   2.0000      -6.375487      -173.4858 
  26   2.0000      -6.373254      -173.4251 
  27   2.0000      -6.371088      -173.3661 
  28   2.0000      -1.193711       -32.4825 
  29   2.0000      -1.083186       -29.4750 
  30   2.0000      -1.069692       -29.1078 
  31   2.0000      -1.049863       -28.5682 
  32   2.0000      -1.028010       -27.9736 
  33   2.0000      -0.981952       -26.7203 
  34   2.0000      -0.960466       -26.1356 
  35   2.0000      -0.938142       -25.5281 
  36   2.0000      -0.931836       -25.3566 
  37   2.0000      -0.930521       -25.3208 
  38   2.0000      -0.919832       -25.0299 
  39   2.0000      -0.883554       -24.0427 
  40   2.0000      -0.852478       -23.1971 
  41   2.0000      -0.795152       -21.6372 
  42   2.0000      -0.785216       -21.3668 
  43   2.0000      -0.764375       -20.7997 
  44   2.0000      -0.762245       -20.7417 
  45   2.0000      -0.744519       -20.2594 
  46   2.0000      -0.731549       -19.9065 
  47   2.0000      -0.719495       -19.5785 
  48   2.0000      -0.675785       -18.3890 
  49   2.0000      -0.664340       -18.0776 
  50   2.0000      -0.634938       -17.2775 
  51   2.0000      -0.625607       -17.0236 
  52   2.0000      -0.619808       -16.8658 
  53   2.0000      -0.595421       -16.2022 
  54   2.0000      -0.586286       -15.9536 
  55   2.0000      -0.583170       -15.8689 
  56   2.0000      -0.570665       -15.5286 
  57   2.0000      -0.563574       -15.3356 
  58   2.0000      -0.555911       -15.1271 
  59   2.0000      -0.545937       -14.8557 
  60   2.0000      -0.541539       -14.7360 
  61   2.0000      -0.537496       -14.6260 
  62   2.0000      -0.530542       -14.4368 
  63   2.0000      -0.527019       -14.3409 
  64   2.0000      -0.521253       -14.1840 
  65   2.0000      -0.501295       -13.6409 
  66   2.0000      -0.496343       -13.5062 
  67   2.0000      -0.475628       -12.9425 
  68   2.0000      -0.473120       -12.8742 
  69   2.0000      -0.464391       -12.6367 
  70   2.0000      -0.460910       -12.5420 
  71   2.0000      -0.458278       -12.4704 
  72   2.0000      -0.447592       -12.1796 
  73   2.0000      -0.441819       -12.0225 
  74   2.0000      -0.432360       -11.7651 
  75   2.0000      -0.421665       -11.4741 
  76   2.0000      -0.412607       -11.2276 
  77   2.0000      -0.382800       -10.4165 
  78   2.0000      -0.363614        -9.8944 
  79   2.0000      -0.329685        -8.9712 
  80   2.0000      -0.324940        -8.8421 
  81   2.0000      -0.321265        -8.7421 
  82   2.0000      -0.314236        -8.5508 
  83   2.0000      -0.267846        -7.2885 
  84   2.0000      -0.247086        -6.7235 
  85   0.0000       0.017408         0.4737 
  86   0.0000       0.032741         0.8909 
  87   0.0000       0.048226         1.3123 
  88   0.0000       0.053200         1.4476 
  89   0.0000       0.061899         1.6844 
  90   0.0000       0.077839         2.1181 
  91   0.0000       0.091781         2.4975 
  92   0.0000       0.105073         2.8592 
  93   0.0000       0.117044         3.1849 
  94   0.0000       0.124992         3.4012 
  95   0.0000       0.134707         3.6656 
  96   0.0000       0.136855         3.7240 
  97   0.0000       0.140205         3.8152 
  98   0.0000       0.151033         4.1098 
  99   0.0000       0.155687         4.2365 
 100   0.0000       0.158047         4.3007 
 101   0.0000       0.167136         4.5480 
 102   0.0000       0.174087         4.7371 
 103   0.0000       0.175849         4.7851 
 104   0.0000       0.178458         4.8561 
 105   0.0000       0.181633         4.9425 
 106   0.0000       0.183634         4.9969 
 107   0.0000       0.185178         5.0390 
 108   0.0000       0.194144         5.2829 
 109   0.0000       0.199486         5.4283 
 110   0.0000       0.206912         5.6304 
 111   0.0000       0.210871         5.7381 
 112   0.0000       0.217203         5.9104 
 113   0.0000       0.225058         6.1241 
 114   0.0000       0.231731         6.3057 
 115   0.0000       0.241739         6.5781 
 116   0.0000       0.245412         6.6780 
 117   0.0000       0.248576         6.7641 
 118   0.0000       0.254297         6.9198 
 119   0.0000       0.261910         7.1269 
 120   0.0000       0.264269         7.1911 
 121   0.0000       0.269620         7.3367 
 122   0.0000       0.274923         7.4810 
 123   0.0000       0.279439         7.6039 
 124   0.0000       0.283128         7.7043 
 125   0.0000       0.287229         7.8159 
 126   0.0000       0.288254         7.8438 
 127   0.0000       0.294187         8.0052 
 128   0.0000       0.298880         8.1330 
 129   0.0000       0.304025         8.2729 
 130   0.0000       0.305757         8.3201 
 131   0.0000       0.309900         8.4328 
 132   0.0000       0.313806         8.5391 
 133   0.0000       0.315786         8.5930 
 134   0.0000       0.322925         8.7872 
 135   0.0000       0.329052         8.9540 
 136   0.0000       0.332200         9.0396 
 137   0.0000       0.333312         9.0699 
 138   0.0000       0.335703         9.1349 
 139   0.0000       0.344689         9.3795 
 140   0.0000       0.349917         9.5217 
 141   0.0000       0.354128         9.6363 
 142   0.0000       0.356446         9.6994 
 143   0.0000       0.359611         9.7855 
 144   0.0000       0.365074         9.9342 
 145   0.0000       0.369334        10.0501 
 146   0.0000       0.371207        10.1010 
 147   0.0000       0.377770        10.2796 
 148   0.0000       0.384400        10.4601 
 149   0.0000       0.388753        10.5785 
 150   0.0000       0.389553        10.6003 
 151   0.0000       0.395198        10.7539 
 152   0.0000       0.401272        10.9192 
 153   0.0000       0.408664        11.1203 
 154   0.0000       0.411595        11.2001 
 155   0.0000       0.414274        11.2730 
 156   0.0000       0.425250        11.5716 
 157   0.0000       0.428801        11.6683 
 158   0.0000       0.431054        11.7296 
 159   0.0000       0.433933        11.8079 
 160   0.0000       0.438832        11.9412 
 161   0.0000       0.442076        12.0295 
 162   0.0000       0.447432        12.1752 
 163   0.0000       0.453421        12.3382 
 164   0.0000       0.454009        12.3542 
 165   0.0000       0.459680        12.5085 
 166   0.0000       0.463270        12.6062 
 167   0.0000       0.466703        12.6996 
 168   0.0000       0.478666        13.0252 
 169   0.0000       0.480982        13.0882 
 170   0.0000       0.482824        13.1383 
 171   0.0000       0.487160        13.2563 
 172   0.0000       0.492336        13.3971 
 173   0.0000       0.496031        13.4977 
 174   0.0000       0.497886        13.5482 
 175   0.0000       0.500403        13.6167 
 176   0.0000       0.505917        13.7667 
 177   0.0000       0.506732        13.7889 
 178   0.0000       0.508280        13.8310 
 179   0.0000       0.514790        14.0081 
 180   0.0000       0.516737        14.0611 
 181   0.0000       0.522491        14.2177 
 182   0.0000       0.527861        14.3638 
 183   0.0000       0.530313        14.4305 
 184   0.0000       0.534886        14.5550 
 185   0.0000       0.535626        14.5751 
 186   0.0000       0.543267        14.7830 
 187   0.0000       0.547366        14.8946 
 188   0.0000       0.553515        15.0619 
 189   0.0000       0.556278        15.1371 
 190   0.0000       0.564298        15.3553 
 191   0.0000       0.567016        15.4293 
 192   0.0000       0.569557        15.4984 
 193   0.0000       0.572998        15.5921 
 194   0.0000       0.582139        15.8408 
 195   0.0000       0.586264        15.9531 
 196   0.0000       0.589600        16.0438 
 197   0.0000       0.594012        16.1639 
 198   0.0000       0.596240        16.2245 
 199   0.0000       0.599979        16.3263 
 200   0.0000       0.608208        16.5502 
 201   0.0000       0.613319        16.6892 
 202   0.0000       0.618844        16.8396 
 203   0.0000       0.621150        16.9023 
 204   0.0000       0.624632        16.9971 
 205   0.0000       0.630105        17.1460 
 206   0.0000       0.636674        17.3248 
 207   0.0000       0.639876        17.4119 
 208   0.0000       0.648427        17.6446 
 209   0.0000       0.652344        17.7512 
 210   0.0000       0.662121        18.0172 
 211   0.0000       0.674492        18.3538 
 212   0.0000       0.679055        18.4780 
 213   0.0000       0.682270        18.5655 
 214   0.0000       0.692384        18.8407 
 215   0.0000       0.701483        19.0883 
 216   0.0000       0.702887        19.1265 
 217   0.0000       0.715370        19.4662 
 218   0.0000       0.719013        19.5653 
 219   0.0000       0.723877        19.6977 
 220   0.0000       0.731367        19.9015 
 221   0.0000       0.743685        20.2367 
 222   0.0000       0.751700        20.4548 
 223   0.0000       0.757211        20.6048 
 224   0.0000       0.758682        20.6448 
 225   0.0000       0.761079        20.7100 
 226   0.0000       0.770663        20.9708 
 227   0.0000       0.778726        21.1902 
 228   0.0000       0.782951        21.3052 
 229   0.0000       0.787956        21.4414 
 230   0.0000       0.788744        21.4628 
 231   0.0000       0.793743        21.5989 
 232   0.0000       0.801187        21.8014 
 233   0.0000       0.807851        21.9828 
 234   0.0000       0.813648        22.1405 
 235   0.0000       0.818626        22.2759 
 236   0.0000       0.820953        22.3393 
 237   0.0000       0.826210        22.4823 
 238   0.0000       0.827807        22.5258 
 239   0.0000       0.831956        22.6387 
 240   0.0000       0.838155        22.8074 
 241   0.0000       0.842019        22.9125 
 242   0.0000       0.845074        22.9956 
 243   0.0000       0.848622        23.0922 
 244   0.0000       0.852432        23.1959 
 245   0.0000       0.859224        23.3807 
 246   0.0000       0.865052        23.5392 
 247   0.0000       0.866763        23.5858 
 248   0.0000       0.871131        23.7047 
 249   0.0000       0.877686        23.8830 
 250   0.0000       0.885482        24.0952 
 251   0.0000       0.888628        24.1808 
 252   0.0000       0.895627        24.3712 
 253   0.0000       0.902069        24.5465 
 254   0.0000       0.912616        24.8336 
 255   0.0000       0.915891        24.9227 
 256   0.0000       0.919270        25.0146 
 257   0.0000       0.929473        25.2923 
 258   0.0000       0.933078        25.3903 
 259   0.0000       0.935503        25.4563 
 260   0.0000       0.939015        25.5519 
 261   0.0000       0.953156        25.9367 
 262   0.0000       0.957614        26.0580 
 263   0.0000       0.967682        26.3320 
 264   0.0000       0.970562        26.4103 
 265   0.0000       0.972523        26.4637 
 266   0.0000       0.978975        26.6393 
 267   0.0000       0.984083        26.7783 
 268   0.0000       0.988675        26.9032 
 269   0.0000       0.993293        27.0289 
 270   0.0000       0.999411        27.1953 
 271   0.0000       1.013757        27.5857 
 272   0.0000       1.018968        27.7275 
 273   0.0000       1.022297        27.8181 
 274   0.0000       1.025673        27.9100 
 275   0.0000       1.029444        28.0126 
 276   0.0000       1.036766        28.2118 
 277   0.0000       1.043893        28.4058 
 278   0.0000       1.048444        28.5296 
 279   0.0000       1.058977        28.8162 
 280   0.0000       1.060717        28.8636 
 281   0.0000       1.071515        29.1574 
 282   0.0000       1.081398        29.4263 
 283   0.0000       1.085912        29.5492 
 284   0.0000       1.099108        29.9083 
 285   0.0000       1.109081        30.1796 
 286   0.0000       1.118712        30.4417 
 287   0.0000       1.126242        30.6466 
 288   0.0000       1.133774        30.8515 
 289   0.0000       1.147904        31.2361 
 290   0.0000       1.150963        31.3193 
 291   0.0000       1.158284        31.5185 
 292   0.0000       1.167613        31.7724 
 293   0.0000       1.181962        32.1628 
 294   0.0000       1.192501        32.4496 
 295   0.0000       1.199800        32.6482 
 296   0.0000       1.202333        32.7172 
 297   0.0000       1.209930        32.9239 
 298   0.0000       1.226795        33.3828 
 299   0.0000       1.233698        33.5706 
 300   0.0000       1.246535        33.9199 
 301   0.0000       1.252906        34.0933 
 302   0.0000       1.254023        34.1237 
 303   0.0000       1.266446        34.4618 
 304   0.0000       1.273557        34.6552 
 305   0.0000       1.281669        34.8760 
 306   0.0000       1.286316        35.0024 
 307   0.0000       1.288881        35.0722 
 308   0.0000       1.308393        35.6032 
 309   0.0000       1.313031        35.7294 
 310   0.0000       1.319451        35.9041 
 311   0.0000       1.330721        36.2107 
 312   0.0000       1.331716        36.2378 
 313   0.0000       1.341645        36.5080 
 314   0.0000       1.348182        36.6859 
 315   0.0000       1.351638        36.7799 
 316   0.0000       1.362346        37.0713 
 317   0.0000       1.370613        37.2963 
 318   0.0000       1.371307        37.3152 
 319   0.0000       1.376996        37.4700 
 320   0.0000       1.386737        37.7350 
 321   0.0000       1.388941        37.7950 
 322   0.0000       1.393297        37.9135 
 323   0.0000       1.398825        38.0640 
 324   0.0000       1.409020        38.3414 
 325   0.0000       1.410453        38.3804 
 326   0.0000       1.414907        38.5016 
 327   0.0000       1.426962        38.8296 
 328   0.0000       1.428128        38.8613 
 329   0.0000       1.438672        39.1483 
 330   0.0000       1.442470        39.2516 
 331   0.0000       1.447406        39.3859 
 332   0.0000       1.455115        39.5957 
 333   0.0000       1.468576        39.9620 
 334   0.0000       1.475692        40.1556 
 335   0.0000       1.489487        40.5310 
 336   0.0000       1.495824        40.7034 
 337   0.0000       1.509789        41.0834 
 338   0.0000       1.523755        41.4635 
 339   0.0000       1.526101        41.5273 
 340   0.0000       1.541069        41.9346 
 341   0.0000       1.551099        42.2075 
 342   0.0000       1.554890        42.3107 
 343   0.0000       1.563793        42.5530 
 344   0.0000       1.570729        42.7417 
 345   0.0000       1.585119        43.1333 
 346   0.0000       1.589915        43.2638 
 347   0.0000       1.597225        43.4627 
 348   0.0000       1.601982        43.5922 
 349   0.0000       1.616374        43.9838 
 350   0.0000       1.624035        44.1922 
 351   0.0000       1.626610        44.2623 
 352   0.0000       1.630863        44.3780 
 353   0.0000       1.637657        44.5629 
 354   0.0000       1.647017        44.8176 
 355   0.0000       1.663581        45.2683 
 356   0.0000       1.667467        45.3741 
 357   0.0000       1.670335        45.4521 
 358   0.0000       1.673222        45.5307 
 359   0.0000       1.677763        45.6543 
 360   0.0000       1.683403        45.8077 
 361   0.0000       1.686853        45.9016 
 362   0.0000       1.690365        45.9972 
 363   0.0000       1.693980        46.0955 
 364   0.0000       1.700457        46.2718 
 365   0.0000       1.701113        46.2896 
 366   0.0000       1.714938        46.6658 
 367   0.0000       1.720932        46.8289 
 368   0.0000       1.723756        46.9058 
 369   0.0000       1.734923        47.2097 
 370   0.0000       1.740796        47.3695 
 371   0.0000       1.742611        47.4189 
 372   0.0000       1.748522        47.5797 
 373   0.0000       1.760225        47.8982 
 374   0.0000       1.766534        48.0698 
 375   0.0000       1.773832        48.2684 
 376   0.0000       1.781695        48.4824 
 377   0.0000       1.786176        48.6043 
 378   0.0000       1.796437        48.8835 
 379   0.0000       1.802536        49.0495 
 380   0.0000       1.811778        49.3010 
 381   0.0000       1.817330        49.4521 
 382   0.0000       1.818457        49.4827 
 383   0.0000       1.825815        49.6830 
 384   0.0000       1.833897        49.9029 
 385   0.0000       1.842035        50.1243 
 386   0.0000       1.852120        50.3988 
 387   0.0000       1.853213        50.4285 
 388   0.0000       1.859566        50.6014 
 389   0.0000       1.866033        50.7773 
 390   0.0000       1.870489        50.8986 
 391   0.0000       1.876609        51.0651 
 392   0.0000       1.882256        51.2188 
 393   0.0000       1.887926        51.3731 
 394   0.0000       1.891840        51.4796 
 395   0.0000       1.899044        51.6756 
 396   0.0000       1.902738        51.7761 
 397   0.0000       1.907456        51.9045 
 398   0.0000       1.914719        52.1022 
 399   0.0000       1.920117        52.2491 
 400   0.0000       1.923792        52.3490 
 401   0.0000       1.934861        52.6502 
 402   0.0000       1.939117        52.7661 
 403   0.0000       1.950698        53.0812 
 404   0.0000       1.953647        53.1614 
 405   0.0000       1.968430        53.5637 
 406   0.0000       1.980554        53.8936 
 407   0.0000       1.985417        54.0259 
 408   0.0000       1.998816        54.3905 
 409   0.0000       2.006401        54.5969 
 410   0.0000       2.016042        54.8593 
 411   0.0000       2.022939        55.0470 
 412   0.0000       2.027616        55.1742 
 413   0.0000       2.033556        55.3359 
 414   0.0000       2.044767        55.6409 
 415   0.0000       2.052553        55.8528 
 416   0.0000       2.064511        56.1782 
 417   0.0000       2.071174        56.3595 
 418   0.0000       2.084958        56.7346 
 419   0.0000       2.096428        57.0467 
 420   0.0000       2.098075        57.0915 
 421   0.0000       2.108127        57.3651 
 422   0.0000       2.115277        57.5596 
 423   0.0000       2.131096        57.9901 
 424   0.0000       2.152827        58.5814 
 425   0.0000       2.154710        58.6326 
 426   0.0000       2.157848        58.7180 
 427   0.0000       2.159002        58.7494 
 428   0.0000       2.167112        58.9701 
 429   0.0000       2.178891        59.2906 
 430   0.0000       2.186624        59.5011 
 431   0.0000       2.196931        59.7815 
 432   0.0000       2.203510        59.9606 
 433   0.0000       2.212614        60.2083 
 434   0.0000       2.220403        60.4202 
 435   0.0000       2.229323        60.6630 
 436   0.0000       2.245215        61.0954 
 437   0.0000       2.255068        61.3635 
 438   0.0000       2.259523        61.4848 
 439   0.0000       2.272593        61.8404 
 440   0.0000       2.282370        62.1064 
 441   0.0000       2.286423        62.2167 
 442   0.0000       2.291949        62.3671 
 443   0.0000       2.302889        62.6648 
 444   0.0000       2.306905        62.7741 
 445   0.0000       2.325899        63.2909 
 446   0.0000       2.338148        63.6242 
 447   0.0000       2.343595        63.7725 
 448   0.0000       2.350451        63.9590 
 449   0.0000       2.358073        64.1664 
 450   0.0000       2.360075        64.2209 
 451   0.0000       2.364342        64.3370 
 452   0.0000       2.371917        64.5431 
 453   0.0000       2.372861        64.5688 
 454   0.0000       2.386313        64.9349 
 455   0.0000       2.395572        65.1868 
 456   0.0000       2.398763        65.2737 
 457   0.0000       2.401323        65.3433 
 458   0.0000       2.414204        65.6938 
 459   0.0000       2.424134        65.9640 
 460   0.0000       2.431409        66.1620 
 461   0.0000       2.434516        66.2466 
 462   0.0000       2.438713        66.3607 
 463   0.0000       2.453481        66.7626 
 464   0.0000       2.464893        67.0732 
 465   0.0000       2.471388        67.2499 
 466   0.0000       2.488047        67.7032 
 467   0.0000       2.501799        68.0774 
 468   0.0000       2.511275        68.3353 
 469   0.0000       2.520592        68.5888 
 470   0.0000       2.533354        68.9361 
 471   0.0000       2.553113        69.4737 
 472   0.0000       2.562023        69.7162 
 473   0.0000       2.589409        70.4614 
 474   0.0000       2.601404        70.7878 
 475   0.0000       2.613052        71.1048 
 476   0.0000       2.623689        71.3942 
 477   0.0000       2.628190        71.5167 
 478   0.0000       2.640214        71.8439 
 479   0.0000       2.650115        72.1133 
 480   0.0000       2.667473        72.5856 
 481   0.0000       2.675523        72.8047 
 482   0.0000       2.691727        73.2456 
 483   0.0000       2.699547        73.4584 
 484   0.0000       2.705611        73.6234 
 485   0.0000       2.706337        73.6432 
 486   0.0000       2.720494        74.0284 
 487   0.0000       2.739277        74.5395 
 488   0.0000       2.745092        74.6978 
 489   0.0000       2.748699        74.7959 
 490   0.0000       2.757489        75.0351 
 491   0.0000       2.770002        75.3756 
 492   0.0000       2.773726        75.4769 
 493   0.0000       2.787955        75.8641 
 494   0.0000       2.790845        75.9427 
 495   0.0000       2.796038        76.0841 
 496   0.0000       2.803194        76.2788 
 497   0.0000       2.804872        76.3244 
 498   0.0000       2.811299        76.4993 
 499   0.0000       2.825526        76.8865 
 500   0.0000       2.831781        77.0567 
 501   0.0000       2.839712        77.2725 
 502   0.0000       2.841213        77.3133 
 503   0.0000       2.848793        77.5196 
 504   0.0000       2.852595        77.6230 
 505   0.0000       2.856364        77.7256 
 506   0.0000       2.863191        77.9114 
 507   0.0000       2.869965        78.0957 
 508   0.0000       2.870496        78.1102 
 509   0.0000       2.872557        78.1662 
 510   0.0000       2.881374        78.4062 
 511   0.0000       2.891060        78.6697 
 512   0.0000       2.892523        78.7095 
 513   0.0000       2.898962        78.8848 
 514   0.0000       2.903305        79.0029 
 515   0.0000       2.907119        79.1067 
 516   0.0000       2.909902        79.1825 
 517   0.0000       2.914569        79.3094 
 518   0.0000       2.924656        79.5839 
 519   0.0000       2.930674        79.7477 
 520   0.0000       2.933658        79.8289 
 521   0.0000       2.940600        80.0178 
 522   0.0000       2.945308        80.1459 
 523   0.0000       2.950181        80.2785 
 524   0.0000       2.956326        80.4457 
 525   0.0000       2.961707        80.5922 
 526   0.0000       2.966862        80.7324 
 527   0.0000       2.971839        80.8679 
 528   0.0000       2.975401        80.9648 
 529   0.0000       2.980120        81.0932 
 530   0.0000       2.989194        81.3401 
 531   0.0000       2.994442        81.4829 
 532   0.0000       2.996771        81.5463 
 533   0.0000       3.000375        81.6443 
 534   0.0000       3.011698        81.9525 
 535   0.0000       3.023474        82.2729 
 536   0.0000       3.024809        82.3092 
 537   0.0000       3.033426        82.5437 
 538   0.0000       3.038307        82.6765 
 539   0.0000       3.042396        82.7878 
 540   0.0000       3.046391        82.8965 
 541   0.0000       3.049211        82.9733 
 542   0.0000       3.053351        83.0859 
 543   0.0000       3.054797        83.1252 
 544   0.0000       3.061976        83.3206 
 545   0.0000       3.069788        83.5332 
 546   0.0000       3.076678        83.7207 
 547   0.0000       3.084837        83.9427 
 548   0.0000       3.092529        84.1520 
 549   0.0000       3.100948        84.3811 
 550   0.0000       3.106068        84.5204 
 551   0.0000       3.107343        84.5551 
 552   0.0000       3.115106        84.7663 
 553   0.0000       3.122192        84.9592 
 554   0.0000       3.131142        85.2027 
 555   0.0000       3.132816        85.2482 
 556   0.0000       3.138174        85.3940 
 557   0.0000       3.149521        85.7028 
 558   0.0000       3.151437        85.7550 
 559   0.0000       3.166245        86.1579 
 560   0.0000       3.172898        86.3389 
 561   0.0000       3.176237        86.4298 
 562   0.0000       3.183437        86.6257 
 563   0.0000       3.194446        86.9253 
 564   0.0000       3.202750        87.1513 
 565   0.0000       3.206881        87.2637 
 566   0.0000       3.214452        87.4697 
 567   0.0000       3.224640        87.7469 
 568   0.0000       3.229227        87.8717 
 569   0.0000       3.236115        88.0592 
 570   0.0000       3.239648        88.1553 
 571   0.0000       3.251888        88.4884 
 572   0.0000       3.254763        88.5666 
 573   0.0000       3.258737        88.6747 
 574   0.0000       3.267909        88.9243 
 575   0.0000       3.281138        89.2843 
 576   0.0000       3.282041        89.3089 
 577   0.0000       3.302326        89.8609 
 578   0.0000       3.305274        89.9411 
 579   0.0000       3.310299        90.0778 
 580   0.0000       3.315398        90.2166 
 581   0.0000       3.325510        90.4917 
 582   0.0000       3.331706        90.6603 
 583   0.0000       3.333605        90.7120 
 584   0.0000       3.340544        90.9008 
 585   0.0000       3.344633        91.0121 
 586   0.0000       3.347452        91.0888 
 587   0.0000       3.354895        91.2913 
 588   0.0000       3.360524        91.4445 
 589   0.0000       3.362637        91.5020 
 590   0.0000       3.365949        91.5921 
 591   0.0000       3.370047        91.7036 
 592   0.0000       3.372594        91.7730 
 593   0.0000       3.387596        92.1812 
 594   0.0000       3.392103        92.3038 
 595   0.0000       3.396382        92.4203 
 596   0.0000       3.400275        92.5262 
 597   0.0000       3.405980        92.6814 
 598   0.0000       3.416313        92.9626 
 599   0.0000       3.418245        93.0152 
 600   0.0000       3.425691        93.2178 
 601   0.0000       3.434105        93.4467 
 602   0.0000       3.442613        93.6783 
 603   0.0000       3.449987        93.8789 
 604   0.0000       3.451334        93.9156 
 605   0.0000       3.459305        94.1325 
 606   0.0000       3.469852        94.4195 
 607   0.0000       3.472397        94.4887 
 608   0.0000       3.478367        94.6512 
 609   0.0000       3.480973        94.7221 
 610   0.0000       3.487762        94.9068 
 611   0.0000       3.498117        95.1886 
 612   0.0000       3.502896        95.3186 
 613   0.0000       3.513730        95.6134 
 614   0.0000       3.516057        95.6768 
 615   0.0000       3.518523        95.7439 
 616   0.0000       3.527139        95.9783 
 617   0.0000       3.536002        96.2195 
 618   0.0000       3.538731        96.2938 
 619   0.0000       3.546123        96.4949 
 620   0.0000       3.548932        96.5713 
 621   0.0000       3.558958        96.8442 
 622   0.0000       3.560075        96.8746 
 623   0.0000       3.574133        97.2571 
 624   0.0000       3.575526        97.2950 
 625   0.0000       3.583073        97.5004 
 626   0.0000       3.586185        97.5851 
 627   0.0000       3.594944        97.8234 
 628   0.0000       3.600368        97.9710 
 629   0.0000       3.606098        98.1269 
 630   0.0000       3.614459        98.3544 
 631   0.0000       3.617564        98.4389 
 632   0.0000       3.625746        98.6616 
 633   0.0000       3.629207        98.7558 
 634   0.0000       3.632077        98.8338 
 635   0.0000       3.643865        99.1546 
 636   0.0000       3.647014        99.2403 
 637   0.0000       3.652708        99.3952 
 638   0.0000       3.662071        99.6500 
 639   0.0000       3.672046        99.9215 
 640   0.0000       3.677755       100.0768 
 641   0.0000       3.683689       100.2383 
 642   0.0000       3.687714       100.3478 
 643   0.0000       3.693791       100.5132 
 644   0.0000       3.697293       100.6085 
 645   0.0000       3.700981       100.7088 
[...]
STATE 17:  E=   0.207632 au      5.650 eV    45569.9 cm**-1 <S**2> =   0.000000
    78a ->  85a  :     0.091336 
    79a ->  85a  :     0.066796 
    81a ->  86a  :     0.070644 
    82a ->  85a  :     0.412871 
    82a ->  86a  :     0.023086 
    82a ->  91a  :     0.015187 
    83a ->  85a  :     0.014645 
    83a ->  89a  :     0.049986 
    83a ->  91a  :     0.093330 
    84a ->  89a  :     0.015516 
    84a ->  90a  :     0.023116 

STATE 18:  E=   0.212934 au      5.794 eV    46733.7 cm**-1 <S**2> =   0.000000
    80a ->  89a  :     0.017930 
    82a ->  87a  :     0.020764 
    83a ->  86a  :     0.011627 
    83a ->  87a  :     0.143958 
    83a ->  88a  :     0.633719 
    83a ->  91a  :     0.012188 
    84a ->  88a  :     0.041460 

STATE 19:  E=   0.227658 au      6.195 eV    49965.1 cm**-1 <S**2> =   0.000000
    78a ->  86a  :     0.016315 
    78a ->  87a  :     0.010770 
    80a ->  87a  :     0.013698 
    80a ->  88a  :     0.040373 
    81a ->  85a  :     0.019154 
    81a ->  86a  :     0.032656 
    81a ->  89a  :     0.019658 
    82a ->  86a  :     0.016152 
    82a ->  87a  :     0.083155 
    82a ->  88a  :     0.012768 
    82a ->  89a  :     0.010800 
    83a ->  86a  :     0.031369 
    83a ->  87a  :     0.164696 
    83a ->  88a  :     0.093033 
    83a ->  90a  :     0.026870 
    84a ->  89a  :     0.012292 
    84a ->  93a  :     0.102501 
    84a ->  94a  :     0.073236 
    84a ->  95a  :     0.030980 
    84a ->  97a  :     0.049633 

STATE 20:  E=   0.233122 au      6.344 eV    51164.3 cm**-1 <S**2> =   0.000000
    80a ->  88a  :     0.019050 
    82a ->  87a  :     0.039514 
    83a ->  86a  :     0.014813 
    83a ->  87a  :     0.055616 
    83a ->  88a  :     0.070159 
    83a ->  90a  :     0.029108 
    84a ->  93a  :     0.213475 
    84a ->  94a  :     0.196065 
    84a ->  95a  :     0.052475 
    84a ->  97a  :     0.127155 
    84a -> 101a  :     0.012959 

STATE 21:  E=   0.228248 au      6.211 eV    50094.7 cm**-1 <S**2> =   0.000000
    77a ->  90a  :     0.018472 
    78a ->  85a  :     0.015516 
    79a ->  88a  :     0.060774 
    79a ->  89a  :     0.014634 
    80a ->  85a  :     0.014107 
    80a ->  87a  :     0.046366 
    80a ->  88a  :     0.036620 
    80a ->  89a  :     0.016103 
    81a ->  86a  :     0.405451 
    81a ->  87a  :     0.014427 
    82a ->  85a  :     0.053099 
    82a ->  86a  :     0.012556 
    82a ->  88a  :     0.028453 
    83a ->  89a  :     0.036185 
    83a ->  92a  :     0.011015 
    84a ->  90a  :     0.063489 
    84a ->  94a  :     0.014012 

STATE 22:  E=   0.236015 au      6.422 eV    51799.2 cm**-1 <S**2> =   0.000000
    79a ->  88a  :     0.224461 
    80a ->  85a  :     0.062765 
    80a ->  86a  :     0.089345 
    80a ->  87a  :     0.074750 
    80a ->  89a  :     0.086203 
    81a ->  86a  :     0.060326 
    81a ->  87a  :     0.019953 
    81a ->  88a  :     0.017423 
    82a ->  85a  :     0.011424 
    82a ->  86a  :     0.013626 
    82a ->  87a  :     0.018287 
    82a ->  88a  :     0.102468 
    83a ->  88a  :     0.073476 
    84a ->  90a  :     0.012140 

STATE 23:  E=   0.227579 au      6.193 eV    49947.7 cm**-1 <S**2> =   0.000000
    78a ->  85a  :     0.011617 
    78a ->  86a  :     0.024037 
    78a ->  87a  :     0.012445 
    80a ->  88a  :     0.028076 
    81a ->  86a  :     0.011192 
    81a ->  87a  :     0.013187 
    82a ->  85a  :     0.068680 
    82a ->  86a  :     0.036221 
    82a ->  90a  :     0.022117 
    83a ->  87a  :     0.036191 
    83a ->  88a  :     0.010420 
    83a ->  89a  :     0.069788 
    83a ->  90a  :     0.118479 
    83a ->  91a  :     0.055602 
    83a ->  92a  :     0.130113 
    84a ->  90a  :     0.031796 
    84a ->  92a  :     0.110391 
    84a ->  93a  :     0.015925 

STATE 24:  E=   0.236641 au      6.439 eV    51936.7 cm**-1 <S**2> =   0.000000
    77a ->  87a  :     0.012138 
    78a ->  85a  :     0.088677 
    78a ->  86a  :     0.011666 
    79a ->  85a  :     0.083612 
    79a ->  86a  :     0.060603 
    79a ->  87a  :     0.076496 
    79a ->  89a  :     0.044842 
    80a ->  88a  :     0.196464 
    80a ->  89a  :     0.010253 
    81a ->  86a  :     0.020883 
    81a ->  88a  :     0.011741 
    82a ->  86a  :     0.010032 
    82a ->  87a  :     0.013008 
    82a ->  89a  :     0.057954 
    83a ->  86a  :     0.023048 
    83a ->  89a  :     0.050697 
    83a ->  90a  :     0.049664 
    83a ->  92a  :     0.015719 
    84a ->  89a  :     0.011755 
    84a ->  92a  :     0.016824 
    84a ->  93a  :     0.012118 

STATE 25:  E=   0.232828 au      6.336 eV    51099.9 cm**-1 <S**2> =   0.000000
    77a ->  86a  :     0.026408 
    78a ->  87a  :     0.037753 
    78a ->  89a  :     0.018307 
    79a ->  86a  :     0.043055 
    79a ->  87a  :     0.011775 
    80a ->  85a  :     0.016844 
    80a ->  88a  :     0.030572 
    81a ->  87a  :     0.024337 
    82a ->  85a  :     0.013336 
    82a ->  86a  :     0.041656 
    82a ->  87a  :     0.046628 
    82a ->  89a  :     0.015064 
    82a ->  90a  :     0.022367 
    83a ->  89a  :     0.369794 
    83a ->  91a  :     0.075396 
    83a ->  92a  :     0.012465 
    84a ->  87a  :     0.011029 

STATE 26:  E=   0.232095 au      6.316 eV    50938.9 cm**-1 <S**2> =   0.000000
    74a ->  85a  :     0.011628 
    79a ->  85a  :     0.048079 
    79a ->  86a  :     0.017149 
    80a ->  85a  :     0.601743 
    80a ->  86a  :     0.151812 
    80a ->  91a  :     0.020136 
    81a ->  85a  :     0.022335 
    82a ->  85a  :     0.015634 
    83a ->  89a  :     0.011353 

STATE 27:  E=   0.239947 au      6.529 eV    52662.4 cm**-1 <S**2> =   0.000000
    75a ->  85a  :     0.011769 
    78a ->  85a  :     0.088847 
    79a ->  85a  :     0.012408 
    79a ->  86a  :     0.010044 
    80a ->  88a  :     0.011774 
    81a ->  86a  :     0.013334 
    82a ->  85a  :     0.030202 
    83a ->  89a  :     0.028745 
    83a ->  90a  :     0.032796 
    83a ->  91a  :     0.022682 
    83a ->  92a  :     0.037969 
    83a ->  93a  :     0.016789 
    83a ->  97a  :     0.010838 
    84a ->  93a  :     0.198678 
    84a ->  94a  :     0.154687 
    84a ->  96a  :     0.023217 
    84a -> 101a  :     0.060837 
    84a -> 104a  :     0.010748 
    84a -> 108a  :     0.027032 

STATE 28:  E=   0.233857 au      6.364 eV    51325.7 cm**-1 <S**2> =   0.000000
    75a ->  85a  :     0.017039 
    77a ->  85a  :     0.018279 
    78a ->  85a  :     0.226140 
    79a ->  85a  :     0.041863 
    79a ->  86a  :     0.030591 
    79a ->  87a  :     0.012518 
    79a ->  89a  :     0.010657 
    80a ->  85a  :     0.052642 
    80a ->  86a  :     0.014345 
    80a ->  88a  :     0.020496 
    82a ->  85a  :     0.168244 
    83a ->  91a  :     0.057288 
    83a ->  92a  :     0.045283 
    84a ->  92a  :     0.014428 
    84a ->  93a  :     0.057425 
    84a ->  94a  :     0.047306 
    84a -> 101a  :     0.020043 

STATE 29:  E=   0.231298 au      6.294 eV    50764.0 cm**-1 <S**2> =   0.000000
    77a ->  86a  :     0.015815 
    78a ->  86a  :     0.027068 
    78a ->  90a  :     0.022214 
    81a ->  86a  :     0.030572 
    81a ->  90a  :     0.028838 
    82a ->  85a  :     0.017324 
    82a ->  86a  :     0.136202 
    82a ->  87a  :     0.042934 
    82a ->  92a  :     0.021297 
    83a ->  87a  :     0.010205 
    83a ->  90a  :     0.308615 
    83a ->  92a  :     0.114702 
    84a ->  91a  :     0.018789 
    84a ->  92a  :     0.077184 

STATE 30:  E=   0.237327 au      6.458 eV    52087.3 cm**-1 <S**2> =   0.000000
    77a ->  86a  :     0.027561 
    77a ->  87a  :     0.026116 
    77a ->  89a  :     0.026545 
    78a ->  86a  :     0.102234 
    78a ->  87a  :     0.022595 
    78a ->  90a  :     0.014927 
    79a ->  86a  :     0.017123 
    79a ->  87a  :     0.025207 
    81a ->  86a  :     0.014249 
    81a ->  87a  :     0.169865 
    81a ->  89a  :     0.043891 
    82a ->  86a  :     0.038065 
    82a ->  87a  :     0.054479 
    82a ->  90a  :     0.020863 
    83a ->  91a  :     0.034293 
    83a ->  92a  :     0.098357 
    84a ->  87a  :     0.013829 
    84a ->  89a  :     0.015281 
    84a ->  91a  :     0.015475 
    84a ->  92a  :     0.051714 


-------------------------
TD-DFT-EXCITATION SPECTRA
-------------------------

Center of mass = (  0.0012, -0.0593,  0.0147)
Calculating the Dipole integrals                  ... done
Transforming integrals                            ... done
Calculating the Linear Momentum integrals         ... done
Transforming integrals                            ... done
Calculating angular momentum integrals            ... done
Transforming integrals                            ... done

-----------------------------------------------------------------------------
         ABSORPTION SPECTRUM VIA TRANSITION ELECTRIC DIPOLE MOMENTS
-----------------------------------------------------------------------------
State   Energy    Wavelength  fosc         T2        TX        TY        TZ  
        (cm-1)      (nm)                 (au**2)    (au)      (au)      (au) 
-----------------------------------------------------------------------------
   1   29376.0    340.4   0.028426232   0.31857   0.55746   0.04680  -0.07497
   2   29503.0    338.9   0.156837539   1.75009  -0.99721  -0.86122   0.11820
   3   34793.1    287.4   0.067349156   0.63726  -0.73174   0.29779   0.11464
   4   33258.5    300.7   0.091110349   0.90186   0.85222  -0.36631   0.20346
   5   36393.0    274.8   1.512198662  13.67937  -3.64567  -0.62008   0.06276
   6   36956.7    270.6   0.011205361   0.09982   0.30602  -0.07588   0.02021
   7   41263.8    242.3   0.016825533   0.13424   0.30535   0.17858  -0.09544
   8   41416.3    241.5   0.250694568   1.99273   1.31033  -0.52149   0.06189
   9   40535.9    246.7   0.032216800   0.26165  -0.47563   0.10918  -0.15332
  10   42133.4    237.3   0.088563801   0.69200  -0.09395  -0.81126   0.15819
  11   43443.8    230.2   0.460311696   3.48819  -1.33173  -1.29114  -0.21829
  12   48562.7    205.9   0.063558696   0.43087   0.52392   0.39332   0.04103
  13   43957.8    227.5   0.113716274   0.85165  -0.69446   0.60728   0.02414
  14   46459.6    215.2   0.363131847   2.57315  -0.81245   1.37950   0.10025
  15   46136.8    216.7   0.067326143   0.48041   0.11117   0.54702  -0.41088
  16   45194.1    221.3   0.142941248   1.04124  -1.00925  -0.06266   0.13689
  17   45569.9    219.4   0.031641697   0.22859   0.16674   0.43594  -0.10367
  18   46733.7    214.0   0.078979880   0.55637  -0.16576  -0.59679  -0.41562
  19   49965.1    200.1   0.213024179   1.40358   0.55187   1.01800  -0.25041
  20   51164.3    195.4   0.213234438   1.37204  -0.24957  -1.06416   0.42109
  21   50094.7    199.6   0.419962920   2.75991  -0.35466   1.37919  -0.85555
  22   51799.2    193.1   0.476245054   3.02679  -0.20290   0.84781   1.50560
  23   49947.7    200.2   0.079747954   0.52563   0.33723   0.64075   0.03666
  24   51936.7    192.5   0.286683802   1.81721   0.43114  -1.27085  -0.12752
  25   51099.9    195.7   0.011624126   0.07489   0.14555   0.12284   0.19651
  26   50939.0    196.3   0.028685109   0.18539   0.11622   0.17801  -0.37443
  27   52662.4    189.9   0.041813531   0.26139  -0.26369   0.42368   0.11115
  28   51325.7    194.8   0.026351039   0.16902  -0.24026  -0.32225  -0.08630
  29   50764.0    197.0   0.001067702   0.00692   0.07842  -0.00705  -0.02693
  30   52087.3    192.0   0.039704299   0.25095  -0.46225   0.07960  -0.17589

-----------------------------------------------------------------------------
         ABSORPTION SPECTRUM VIA TRANSITION VELOCITY DIPOLE MOMENTS
-----------------------------------------------------------------------------
State   Energy    Wavelength   fosc        P2         PX        PY        PZ  
        (cm-1)      (nm)                 (au**2)     (au)      (au)      (au) 
-----------------------------------------------------------------------------
   1   29376.0    340.4   0.037038396   0.00744  -0.08513  -0.00604   0.01235
   2   29503.0    338.9   0.207618325   0.04186   0.15330   0.13416  -0.01910
   3   34793.1    287.4   0.081761754   0.01944   0.12665  -0.05448  -0.02083
   4   33258.5    300.7   0.129429675   0.02942  -0.15376   0.06546  -0.03862
   5   36393.0    274.8   1.919449805   0.47742   0.68119   0.11514  -0.01204
   6   36956.7    270.6   0.015451699   0.00390  -0.06046   0.01521  -0.00401
   7   41263.8    242.3   0.020944746   0.00591  -0.06460  -0.03667   0.01970
   8   41416.3    241.5   0.308653376   0.08737  -0.27372   0.11077  -0.01316
   9   40535.9    246.7   0.042104219   0.01166   0.10040  -0.02353   0.03212
  10   42133.4    237.3   0.113068636   0.03256   0.01795   0.17642  -0.03339
  11   43443.8    230.2   0.574012382   0.17043   0.29255   0.28684   0.05070
  12   48562.7    205.9   0.064791971   0.02150  -0.11615  -0.08897  -0.00990
  13   43957.8    227.5   0.145757028   0.04379   0.15762  -0.13751  -0.00615
  14   46459.6    215.2   0.435483528   0.13828   0.18615  -0.32101  -0.02416
  15   46136.8    216.7   0.085149515   0.02685  -0.02613  -0.13053   0.09554
  16   45194.1    221.3   0.194056857   0.05994   0.24207   0.01423  -0.03379
  17   45569.9    219.4   0.044151316   0.01375  -0.04078  -0.10700   0.02526
  18   46733.7    214.0   0.108487529   0.03465   0.04092   0.14852   0.10449
  19   49965.1    200.1   0.261911149   0.08944  -0.13763  -0.25784   0.06337
  20   51164.3    195.4   0.247205671   0.08644   0.06352   0.26710  -0.10519
  21   50094.7    199.6   0.527846168   0.18072   0.09041  -0.35178   0.22090
  22   51799.2    193.1   0.560772234   0.19853   0.05218  -0.21682  -0.38573
  23   49947.7    200.2   0.105778035   0.03611  -0.08665  -0.16873  -0.01138
  24   51936.7    192.5   0.343231385   0.12183  -0.11163   0.32916   0.03207
  25   51099.9    195.7   0.014933011   0.00522  -0.03815  -0.03180  -0.05242
  26   50939.0    196.3   0.037693055   0.01312  -0.03106  -0.04681   0.09983
  27   52662.4    189.9   0.052468097   0.01888   0.07085  -0.11403  -0.02938
  28   51325.7    194.8   0.034485633   0.01210   0.06375   0.08656   0.02324
  29   50764.0    197.0   0.001450732   0.00050  -0.02153   0.00202   0.00596
  30   52087.3    192.0   0.051800684   0.01844   0.12540  -0.02188   0.04729

-------------------------------------------------------------------
                             CD SPECTRUM
-------------------------------------------------------------------
State  Energy     Wavelength     R         MX        MY        MZ   
       (cm-1)       (nm)     (1e40*cgs)   (au)      (au)      (au)  
-------------------------------------------------------------------
   1   29376.0    340.4    -51.74727  -0.07718   0.17717   1.00085
   2   29503.0    338.9     30.17987  -0.07548   0.02454   0.08356
   3   34793.1    287.4    102.26606  -0.06240   0.15774   1.08408
   4   33258.5    300.7    -29.21877  -0.07701   0.00070   0.01923
   5   36393.0    274.8    -28.51610   0.05262  -0.28488  -0.72178
   6   36956.7    270.6      5.39239   0.00469  -0.14049  -0.03258
   7   41263.8    242.3    -38.86564   0.02534  -0.14227   0.67864
   8   41416.3    241.5     -0.92902   0.01282   0.02197  -0.11817
   9   40535.9    246.7      3.83652  -0.04550  -0.02864   0.06768
  10   42133.4    237.3    -43.81660  -0.02821  -0.06156  -0.91997
  11   43443.8    230.2     44.71286   0.05335  -0.10797  -0.12132
  12   48562.7    205.9     30.47096   0.04434   0.07296   0.30959
  13   43957.8    227.5    -70.35446   0.12131  -0.06683  -1.01064
  14   46459.6    215.2    -92.31151   0.17421  -0.00011  -0.53985
  15   46136.8    216.7     64.50059   0.30811  -0.05285  -0.31998
  16   45194.1    221.3    -47.55579   0.01616  -0.06555  -0.64774
  17   45569.9    219.4     11.89072   0.03799   0.00621  -0.15606
  18   46733.7    214.0     97.74638  -0.40249  -0.22653  -0.01306
  19   49965.1    200.1    -74.88246  -0.19613  -0.10290  -0.21624
  20   51164.3    195.4    -70.21489   0.30420   0.13715   0.17320
  21   50094.7    199.6    -46.37042  -0.66264  -0.27674  -0.05647
  22   51799.2    193.1    157.29335   1.27097   0.60507   0.05216
  23   49947.7    200.2     -3.48171   0.08869  -0.05475  -0.06034
  24   51936.7    192.5     -0.82312   0.01923  -0.03917   0.46905
  25   51099.9    195.7     48.41497   0.08680   0.10381   0.39341
  26   50939.0    196.3     -5.72464  -0.35105  -0.12019  -0.13367
  27   52662.4    189.9     -6.72835   0.11951   0.04729  -0.02514
  28   51325.7    194.8     -0.27151  -0.03173  -0.02439   0.18609
  29   50764.0    197.0      0.86449   0.01493   0.10825  -0.05295
  30   52087.3    192.0     11.51692   0.10344  -0.00410  -0.41258

Total run time:    17894.181 sec

           *** ORCA-CIS/TD-DFT FINISHED WITHOUT ERROR ***

Maximum memory used throughout the entire CIS-calculation: 3485.4 MB

-----------------------
CIS/TD-DFT TOTAL ENERGY
-----------------------

    E(SCF)  =  -1297.826099166 Eh
    DE(CIS) =      0.133847051 Eh (Root  1)
    ----------------------------- ---------
    E(tot)  =  -1297.692252116 Eh


-------------------------   --------------------
FINAL SINGLE POINT ENERGY     -1297.692252115682
-------------------------   --------------------


                            ***************************************
                            *     ORCA property calculations      *
                            ***************************************


  WARNING: The energy has been calculated at the MP2 level but the densities
           used in the property calculations are still SCF densities
           MP2 response densities have not been calculated 
           use %mp2 Density relaxed end
           or  %mp2 Density unrelaxed end

                                    ---------------------
                                    Active property flags
                                    ---------------------
   (+) Dipole Moment


------------------------------------------------------------------------------
                       ORCA ELECTRIC PROPERTIES CALCULATION
------------------------------------------------------------------------------

Dipole Moment Calculation                       ... on
Quadrupole Moment Calculation                   ... off
Polarizability Calculation                      ... off
GBWName                                         ... PTZ_3_M06L_def2TZVP_coords.gbw
Electron density                                ... PTZ_3_M06L_def2TZVP_coords.scfp
The origin for moment calculation is the CENTER OF MASS  = ( 0.001174, -0.059330  0.014734)

-------------
DIPOLE MOMENT
-------------
                                X             Y             Z
Electronic contribution:     -0.20854      -8.86547       2.18626
Nuclear contribution   :     -0.19956      10.08607      -2.50481
                        -----------------------------------------
Total Dipole Moment    :     -0.40809       1.22060      -0.31856
                        -----------------------------------------
Magnitude (a.u.)       :      1.32585
Magnitude (Debye)      :      3.37005



--------------------
Rotational spectrum 
--------------------
 
Rotational constants in cm-1:     0.010608     0.006356     0.004225 
Rotational constants in MHz :   318.005228   190.553560   126.647559 

 Dipole components along the rotational axes: 
x,y,z [a.u.] :    -0.403580     1.222711    -0.316215 
x,y,z [Debye]:    -1.025818     3.107885    -0.803754 

 

Timings for individual modules:

Sum of individual times         ...    19609.941 sec (= 326.832 min)
GTO integral calculation        ...        9.462 sec (=   0.158 min)   0.0 %
SCF iterations                  ...      953.473 sec (=  15.891 min)   4.9 %
MP2 module                      ...      748.182 sec (=  12.470 min)   3.8 %
CIS module                      ...    17898.824 sec (= 298.314 min)  91.3 %
                             ****ORCA TERMINATED NORMALLY****
TOTAL RUN TIME: 0 days 5 hours 26 minutes 55 seconds 629 msec
