 Entering Gaussian System, Link 0=g09
 Input=/home/png4rjv/fotokatalizis/benchmark/OPCs/PTZ_3_PBE-D3_def2TZVP.gjf
 Output=/home/png4rjv/fotokatalizis/benchmark/OPCs/PTZ_3_PBE-D3_def2TZVP.log
 Initial command:
 /opt/nce/packages/global/g09/l1.exe "/home/png4rjv/fotokatalizis/benchmark/OPCs/PTZ_3_PBE-D3_def2TZVP/Gau-3376.inp" -scrdir="/home/png4rjv/fotokatalizis/benchmark/OPCs/PTZ_3_PBE-D3_def2TZVP/"
 Default is to use a total of  12 processors:
                               12 via shared-memory
                                1 via Linda
 Entering Link 1 = /opt/nce/packages/global/g09/l1.exe PID=      3377.
  
 Copyright (c) 1988,1990,1992,1993,1995,1998,2003,2009,2015,
            Gaussian, Inc.  All Rights Reserved.
  
 This is part of the Gaussian(R) 09 program.  It is based on
 the Gaussian(R) 03 system (copyright 2003, Gaussian, Inc.),
 the Gaussian(R) 98 system (copyright 1998, Gaussian, Inc.),
 the Gaussian(R) 94 system (copyright 1995, Gaussian, Inc.),
 the Gaussian 92(TM) system (copyright 1992, Gaussian, Inc.),
 the Gaussian 90(TM) system (copyright 1990, Gaussian, Inc.),
 the Gaussian 88(TM) system (copyright 1988, Gaussian, Inc.),
 the Gaussian 86(TM) system (copyright 1986, Carnegie Mellon
 University), and the Gaussian 82(TM) system (copyright 1983,
 Carnegie Mellon University). Gaussian is a federally registered
 trademark of Gaussian, Inc.
  
 This software contains proprietary and confidential information,
 including trade secrets, belonging to Gaussian, Inc.
  
 This software is provided under written license and may be
 used, copied, transmitted, or stored only in accord with that
 written license.
  
 The following legend is applicable only to US Government
 contracts under FAR:
  
                    RESTRICTED RIGHTS LEGEND
  
 Use, reproduction and disclosure by the US Government is
 subject to restrictions as set forth in subparagraphs (a)
 and (c) of the Commercial Computer Software - Restricted
 Rights clause in FAR 52.227-19.
  
 Gaussian, Inc.
 340 Quinnipiac St., Bldg. 40, Wallingford CT 06492
  
  
 ---------------------------------------------------------------
 Warning -- This program may not be used in any manner that
 competes with the business of Gaussian, Inc. or will provide
 assistance to any competitor of Gaussian, Inc.  The licensee
 of this program is prohibited from giving any competitor of
 Gaussian, Inc. access to this program.  By using this program,
 the user acknowledges that Gaussian, Inc. is engaged in the
 business of creating and licensing software in the field of
 computational chemistry and represents and warrants to the
 licensee that it is not a competitor of Gaussian, Inc. and that
 it will not use this program in any manner prohibited above.
 ---------------------------------------------------------------
  

 Cite this work as:
 Gaussian 09, Revision E.01,
 M. J. Frisch, G. W. Trucks, H. B. Schlegel, G. E. Scuseria, 
 M. A. Robb, J. R. Cheeseman, G. Scalmani, V. Barone, B. Mennucci, 
 G. A. Petersson, H. Nakatsuji, M. Caricato, X. Li, H. P. Hratchian, 
 A. F. Izmaylov, J. Bloino, G. Zheng, J. L. Sonnenberg, M. Hada, 
 M. Ehara, K. Toyota, R. Fukuda, J. Hasegawa, M. Ishida, T. Nakajima, 
 Y. Honda, O. Kitao, H. Nakai, T. Vreven, J. A. Montgomery, Jr., 
 J. E. Peralta, F. Ogliaro, M. Bearpark, J. J. Heyd, E. Brothers, 
 K. N. Kudin, V. N. Staroverov, T. Keith, R. Kobayashi, J. Normand, 
 K. Raghavachari, A. Rendell, J. C. Burant, S. S. Iyengar, J. Tomasi, 
 M. Cossi, N. Rega, J. M. Millam, M. Klene, J. E. Knox, J. B. Cross, 
 V. Bakken, C. Adamo, J. Jaramillo, R. Gomperts, R. E. Stratmann, 
 O. Yazyev, A. J. Austin, R. Cammi, C. Pomelli, J. W. Ochterski, 
 R. L. Martin, K. Morokuma, V. G. Zakrzewski, G. A. Voth, 
 P. Salvador, J. J. Dannenberg, S. Dapprich, A. D. Daniels, 
 O. Farkas, J. B. Foresman, J. V. Ortiz, J. Cioslowski, 
 and D. J. Fox, Gaussian, Inc., Wallingford CT, 2013.
 
 ******************************************
 Gaussian 09:  ES64L-G09RevE.01 30-Nov-2015
                27-Mar-2021 
 ******************************************
 %chk=cp.chk
 Default route:  MaxDisk=500GB
 ----------------------------------------------------------------------
 #p PBEPBE/def2TZVP opt freq=noraman nosymm int=ultrafine scrf=(SMD,sol
 vent=n,n-DiMethylAcetamide) EmpiricalDispersion=GD3BJ
 ----------------------------------------------------------------------
 1/14=-1,18=20,19=15,26=4,38=1/1,3;
 2/9=110,12=2,15=1,17=6,18=5,40=1/2;
 3/5=44,7=101,11=2,16=1,25=1,30=1,70=32201,71=1,72=147,74=1009,75=-5,124=41/1,2,3;
 4//1;
 5/5=2,38=5,53=147/2;
 6/7=2,8=2,9=2,10=2,28=1/1;
 7/30=1/1,2,3,16;
 1/14=-1,18=20,19=15,26=4/3(2);
 2/9=110,15=1/2;
 99//99;
 2/9=110,15=1/2;
 3/5=44,7=101,11=2,16=1,25=1,30=1,70=32205,71=1,72=147,74=1009,75=-5,124=41/1,2,3;
 4/5=5,16=3,69=1/1;
 5/5=2,38=5,53=147/2;
 7/30=1/1,2,3,16;
 1/14=-1,18=20,19=15,26=4/3(-5);
 2/9=110,15=1/2;
 6/7=2,8=2,9=2,10=2,19=2,28=1/1;
 99/9=1/99;
 Leave Link    1 at Sat Mar 27 20:24:50 2021, MaxMem=           0 cpu:         1.0
 (Enter /opt/nce/packages/global/g09/l101.exe)
 -----
 Title
 -----
 Symbolic Z-matrix:
 Charge =  0 Multiplicity = 1
 C                    -4.19564  -2.38189  -0.50941 
 C                    -2.96572  -2.88317  -0.07943 
 C                    -1.89702  -2.02353   0.19069 
 C                    -2.0238   -0.63188  -0.00946 
 C                    -3.26911  -0.1429   -0.44488 
 C                    -4.34124  -1.00549  -0.68093 
 C                     0.41037  -0.16001   0.16694 
 C                     0.77082  -1.5332    0.36826 
 C                     2.08315  -1.94148   0.26378 
 H                     2.32512  -2.99764   0.40619 
 C                     3.13315  -1.01954   0.01023 
 C                     2.79076   0.36067  -0.14814 
 C                     1.42706   0.7515   -0.07619 
 H                    -2.82602  -3.95659   0.06879 
 H                    -3.40422   0.92687  -0.59258 
 H                    -5.29533  -0.58813  -1.0107 
 C                    -1.20918   1.65135   0.2301 
 C                    -1.42502   2.30435   1.44607 
 C                    -1.25127   2.37076  -0.97052 
 C                    -1.68499   3.6773    1.46336 
 C                    -1.51108   3.74235  -0.95079 
 C                    -1.72821   4.39702   0.26622 
 H                    -1.85396   4.18578   2.41532 
 H                    -1.54426   4.30245  -1.88816 
 H                    -1.38581   1.72408   2.36966 
 H                    -1.07865   1.84601  -1.91224 
 H                    -1.93134   5.47032   0.28031 
 H                    -5.02743  -3.06178  -0.7039 
 N                    -0.94104   0.24261   0.23148 
 H                     1.19072   1.80492  -0.21515 
 S                    -0.43433  -2.70736   0.9201 
 C                     3.8311    1.29818  -0.38901 
 C                     5.14661   0.88807  -0.47321 
 H                     5.93565   1.62053  -0.65997 
 C                     4.4939   -1.41288  -0.08081 
 C                     5.48264  -0.47916  -0.31869 
 H                     6.52714  -0.7918   -0.38784 
 H                     4.74624  -2.46945   0.04176 
 H                     3.5715    2.3533   -0.50875 
 
 NAtoms=     39 NQM=       39 NQMF=       0 NMMI=      0 NMMIF=      0
                NMic=       0 NMicF=      0.
                    Isotopes and Nuclear Properties:
 (Nuclear quadrupole moments (NQMom) in fm**2, nuclear magnetic moments (NMagM)
  in nuclear magnetons)

  Atom         1           2           3           4           5           6           7           8           9          10
 IAtWgt=          12          12          12          12          12          12          12          12          12           1
 AtmWgt=  12.0000000  12.0000000  12.0000000  12.0000000  12.0000000  12.0000000  12.0000000  12.0000000  12.0000000   1.0078250
 NucSpn=           0           0           0           0           0           0           0           0           0           1
 AtZEff=   0.0000000   0.0000000   0.0000000   0.0000000   0.0000000   0.0000000   0.0000000   0.0000000   0.0000000   0.0000000
 NQMom=    0.0000000   0.0000000   0.0000000   0.0000000   0.0000000   0.0000000   0.0000000   0.0000000   0.0000000   0.0000000
 NMagM=    0.0000000   0.0000000   0.0000000   0.0000000   0.0000000   0.0000000   0.0000000   0.0000000   0.0000000   2.7928460
 AtZNuc=   6.0000000   6.0000000   6.0000000   6.0000000   6.0000000   6.0000000   6.0000000   6.0000000   6.0000000   1.0000000

  Atom        11          12          13          14          15          16          17          18          19          20
 IAtWgt=          12          12          12           1           1           1          12          12          12          12
 AtmWgt=  12.0000000  12.0000000  12.0000000   1.0078250   1.0078250   1.0078250  12.0000000  12.0000000  12.0000000  12.0000000
 NucSpn=           0           0           0           1           1           1           0           0           0           0
 AtZEff=   0.0000000   0.0000000   0.0000000   0.0000000   0.0000000   0.0000000   0.0000000   0.0000000   0.0000000   0.0000000
 NQMom=    0.0000000   0.0000000   0.0000000   0.0000000   0.0000000   0.0000000   0.0000000   0.0000000   0.0000000   0.0000000
 NMagM=    0.0000000   0.0000000   0.0000000   2.7928460   2.7928460   2.7928460   0.0000000   0.0000000   0.0000000   0.0000000
 AtZNuc=   6.0000000   6.0000000   6.0000000   1.0000000   1.0000000   1.0000000   6.0000000   6.0000000   6.0000000   6.0000000

  Atom        21          22          23          24          25          26          27          28          29          30
 IAtWgt=          12          12           1           1           1           1           1           1          14           1
 AtmWgt=  12.0000000  12.0000000   1.0078250   1.0078250   1.0078250   1.0078250   1.0078250   1.0078250  14.0030740   1.0078250
 NucSpn=           0           0           1           1           1           1           1           1           2           1
 AtZEff=   0.0000000   0.0000000   0.0000000   0.0000000   0.0000000   0.0000000   0.0000000   0.0000000   0.0000000   0.0000000
 NQMom=    0.0000000   0.0000000   0.0000000   0.0000000   0.0000000   0.0000000   0.0000000   0.0000000   2.0440000   0.0000000
 NMagM=    0.0000000   0.0000000   2.7928460   2.7928460   2.7928460   2.7928460   2.7928460   2.7928460   0.4037610   2.7928460
 AtZNuc=   6.0000000   6.0000000   1.0000000   1.0000000   1.0000000   1.0000000   1.0000000   1.0000000   7.0000000   1.0000000

  Atom        31          32          33          34          35          36          37          38          39
 IAtWgt=          32          12          12           1          12          12           1           1           1
 AtmWgt=  31.9720718  12.0000000  12.0000000   1.0078250  12.0000000  12.0000000   1.0078250   1.0078250   1.0078250
 NucSpn=           0           0           0           1           0           0           1           1           1
 AtZEff=   0.0000000   0.0000000   0.0000000   0.0000000   0.0000000   0.0000000   0.0000000   0.0000000   0.0000000
 NQMom=    0.0000000   0.0000000   0.0000000   0.0000000   0.0000000   0.0000000   0.0000000   0.0000000   0.0000000
 NMagM=    0.0000000   0.0000000   0.0000000   2.7928460   0.0000000   0.0000000   2.7928460   2.7928460   2.7928460
 AtZNuc=  16.0000000   6.0000000   6.0000000   1.0000000   6.0000000   6.0000000   1.0000000   1.0000000   1.0000000
 Leave Link  101 at Sat Mar 27 20:24:50 2021, MaxMem=  5242880000 cpu:         4.2
 (Enter /opt/nce/packages/global/g09/l103.exe)

 GradGradGradGradGradGradGradGradGradGradGradGradGradGradGradGradGradGrad
 Berny optimization.
 Initialization pass.
                           ----------------------------
                           !    Initial Parameters    !
                           ! (Angstroms and Degrees)  !
 --------------------------                            --------------------------
 ! Name  Definition              Value          Derivative Info.                !
 --------------------------------------------------------------------------------
 ! R1    R(1,2)                  1.396          estimate D2E/DX2                !
 ! R2    R(1,6)                  1.3947         estimate D2E/DX2                !
 ! R3    R(1,28)                 1.0918         estimate D2E/DX2                !
 ! R4    R(2,3)                  1.3979         estimate D2E/DX2                !
 ! R5    R(2,14)                 1.0926         estimate D2E/DX2                !
 ! R6    R(3,4)                  1.4117         estimate D2E/DX2                !
 ! R7    R(3,31)                 1.7718         estimate D2E/DX2                !
 ! R8    R(4,5)                  1.4069         estimate D2E/DX2                !
 ! R9    R(4,29)                 1.4125         estimate D2E/DX2                !
 ! R10   R(5,6)                  1.3962         estimate D2E/DX2                !
 ! R11   R(5,15)                 1.0883         estimate D2E/DX2                !
 ! R12   R(6,16)                 1.0923         estimate D2E/DX2                !
 ! R13   R(7,8)                  1.4339         estimate D2E/DX2                !
 ! R14   R(7,13)                 1.3869         estimate D2E/DX2                !
 ! R15   R(7,29)                 1.4116         estimate D2E/DX2                !
 ! R16   R(8,9)                  1.3783         estimate D2E/DX2                !
 ! R17   R(8,31)                 1.7707         estimate D2E/DX2                !
 ! R18   R(9,10)                 1.0928         estimate D2E/DX2                !
 ! R19   R(9,11)                 1.4201         estimate D2E/DX2                !
 ! R20   R(11,12)                1.4308         estimate D2E/DX2                !
 ! R21   R(11,35)                1.4194         estimate D2E/DX2                !
 ! R22   R(12,13)                1.4204         estimate D2E/DX2                !
 ! R23   R(12,32)                1.421          estimate D2E/DX2                !
 ! R24   R(13,30)                1.0885         estimate D2E/DX2                !
 ! R25   R(17,18)                1.397          estimate D2E/DX2                !
 ! R26   R(17,19)                1.4003         estimate D2E/DX2                !
 ! R27   R(17,29)                1.434          estimate D2E/DX2                !
 ! R28   R(18,20)                1.3975         estimate D2E/DX2                !
 ! R29   R(18,25)                1.0914         estimate D2E/DX2                !
 ! R30   R(19,21)                1.3961         estimate D2E/DX2                !
 ! R31   R(19,26)                1.0918         estimate D2E/DX2                !
 ! R32   R(20,22)                1.3975         estimate D2E/DX2                !
 ! R33   R(20,23)                1.0924         estimate D2E/DX2                !
 ! R34   R(21,22)                1.3989         estimate D2E/DX2                !
 ! R35   R(21,24)                1.0925         estimate D2E/DX2                !
 ! R36   R(22,27)                1.0924         estimate D2E/DX2                !
 ! R37   R(32,33)                1.3805         estimate D2E/DX2                !
 ! R38   R(32,39)                1.0932         estimate D2E/DX2                !
 ! R39   R(33,34)                1.0927         estimate D2E/DX2                !
 ! R40   R(33,36)                1.4164         estimate D2E/DX2                !
 ! R41   R(35,36)                1.3806         estimate D2E/DX2                !
 ! R42   R(35,38)                1.0932         estimate D2E/DX2                !
 ! R43   R(36,37)                1.0925         estimate D2E/DX2                !
 ! A1    A(2,1,6)              118.9623         estimate D2E/DX2                !
 ! A2    A(2,1,28)             120.1646         estimate D2E/DX2                !
 ! A3    A(6,1,28)             120.8729         estimate D2E/DX2                !
 ! A4    A(1,2,3)              120.814          estimate D2E/DX2                !
 ! A5    A(1,2,14)             120.4785         estimate D2E/DX2                !
 ! A6    A(3,2,14)             118.6994         estimate D2E/DX2                !
 ! A7    A(2,3,4)              120.6758         estimate D2E/DX2                !
 ! A8    A(2,3,31)             118.2522         estimate D2E/DX2                !
 ! A9    A(4,3,31)             120.8639         estimate D2E/DX2                !
 ! A10   A(3,4,5)              117.7741         estimate D2E/DX2                !
 ! A11   A(3,4,29)             121.1512         estimate D2E/DX2                !
 ! A12   A(5,4,29)             121.072          estimate D2E/DX2                !
 ! A13   A(4,5,6)              121.1512         estimate D2E/DX2                !
 ! A14   A(4,5,15)             119.5707         estimate D2E/DX2                !
 ! A15   A(6,5,15)             119.276          estimate D2E/DX2                !
 ! A16   A(1,6,5)              120.5822         estimate D2E/DX2                !
 ! A17   A(1,6,16)             120.3572         estimate D2E/DX2                !
 ! A18   A(5,6,16)             119.0585         estimate D2E/DX2                !
 ! A19   A(8,7,13)             118.0166         estimate D2E/DX2                !
 ! A20   A(8,7,29)             120.4897         estimate D2E/DX2                !
 ! A21   A(13,7,29)            121.49           estimate D2E/DX2                !
 ! A22   A(7,8,9)              120.8207         estimate D2E/DX2                !
 ! A23   A(7,8,31)             120.5098         estimate D2E/DX2                !
 ! A24   A(9,8,31)             118.3726         estimate D2E/DX2                !
 ! A25   A(8,9,10)             119.1562         estimate D2E/DX2                !
 ! A26   A(8,9,11)             121.6819         estimate D2E/DX2                !
 ! A27   A(10,9,11)            119.1414         estimate D2E/DX2                !
 ! A28   A(9,11,12)            117.9732         estimate D2E/DX2                !
 ! A29   A(9,11,35)            122.7091         estimate D2E/DX2                !
 ! A30   A(12,11,35)           119.3161         estimate D2E/DX2                !
 ! A31   A(11,12,13)           119.3106         estimate D2E/DX2                !
 ! A32   A(11,12,32)           118.6841         estimate D2E/DX2                !
 ! A33   A(13,12,32)           122.0012         estimate D2E/DX2                !
 ! A34   A(7,13,12)            122.1282         estimate D2E/DX2                !
 ! A35   A(7,13,30)            119.95           estimate D2E/DX2                !
 ! A36   A(12,13,30)           117.9215         estimate D2E/DX2                !
 ! A37   A(18,17,19)           120.1002         estimate D2E/DX2                !
 ! A38   A(18,17,29)           119.1597         estimate D2E/DX2                !
 ! A39   A(19,17,29)           120.7397         estimate D2E/DX2                !
 ! A40   A(17,18,20)           119.9172         estimate D2E/DX2                !
 ! A41   A(17,18,25)           118.8481         estimate D2E/DX2                !
 ! A42   A(20,18,25)           121.2346         estimate D2E/DX2                !
 ! A43   A(17,19,21)           119.8815         estimate D2E/DX2                !
 ! A44   A(17,19,26)           119.2006         estimate D2E/DX2                !
 ! A45   A(21,19,26)           120.9179         estimate D2E/DX2                !
 ! A46   A(18,20,22)           120.075          estimate D2E/DX2                !
 ! A47   A(18,20,23)           119.7928         estimate D2E/DX2                !
 ! A48   A(22,20,23)           120.1322         estimate D2E/DX2                !
 ! A49   A(19,21,22)           120.0634         estimate D2E/DX2                !
 ! A50   A(19,21,24)           119.8155         estimate D2E/DX2                !
 ! A51   A(22,21,24)           120.1211         estimate D2E/DX2                !
 ! A52   A(20,22,21)           119.9626         estimate D2E/DX2                !
 ! A53   A(20,22,27)           120.0454         estimate D2E/DX2                !
 ! A54   A(21,22,27)           119.9921         estimate D2E/DX2                !
 ! A55   A(4,29,7)             123.3324         estimate D2E/DX2                !
 ! A56   A(4,29,17)            117.6902         estimate D2E/DX2                !
 ! A57   A(7,29,17)            117.3331         estimate D2E/DX2                !
 ! A58   A(3,31,8)             100.2322         estimate D2E/DX2                !
 ! A59   A(12,32,33)           120.7965         estimate D2E/DX2                !
 ! A60   A(12,32,39)           118.7836         estimate D2E/DX2                !
 ! A61   A(33,32,39)           120.4198         estimate D2E/DX2                !
 ! A62   A(32,33,34)           119.9604         estimate D2E/DX2                !
 ! A63   A(32,33,36)           120.4091         estimate D2E/DX2                !
 ! A64   A(34,33,36)           119.6305         estimate D2E/DX2                !
 ! A65   A(11,35,36)           120.678          estimate D2E/DX2                !
 ! A66   A(11,35,38)           118.8125         estimate D2E/DX2                !
 ! A67   A(36,35,38)           120.5095         estimate D2E/DX2                !
 ! A68   A(33,36,35)           120.1158         estimate D2E/DX2                !
 ! A69   A(33,36,37)           119.7465         estimate D2E/DX2                !
 ! A70   A(35,36,37)           120.1377         estimate D2E/DX2                !
 ! D1    D(6,1,2,3)              0.6868         estimate D2E/DX2                !
 ! D2    D(6,1,2,14)           179.6359         estimate D2E/DX2                !
 ! D3    D(28,1,2,3)          -179.141          estimate D2E/DX2                !
 ! D4    D(28,1,2,14)           -0.1918         estimate D2E/DX2                !
 ! D5    D(2,1,6,5)              0.8949         estimate D2E/DX2                !
 ! D6    D(2,1,6,16)          -179.6307         estimate D2E/DX2                !
 ! D7    D(28,1,6,5)          -179.2786         estimate D2E/DX2                !
 ! D8    D(28,1,6,16)            0.1958         estimate D2E/DX2                !
 ! D9    D(1,2,3,4)             -2.1877         estimate D2E/DX2                !
 ! D10   D(1,2,3,31)           172.6155         estimate D2E/DX2                !
 ! D11   D(14,2,3,4)           178.8447         estimate D2E/DX2                !
 ! D12   D(14,2,3,31)           -6.3521         estimate D2E/DX2                !
 ! D13   D(2,3,4,5)              2.04           estimate D2E/DX2                !
 ! D14   D(2,3,4,29)          -178.5576         estimate D2E/DX2                !
 ! D15   D(31,3,4,5)          -172.6267         estimate D2E/DX2                !
 ! D16   D(31,3,4,29)            6.7757         estimate D2E/DX2                !
 ! D17   D(2,3,31,8)           154.7103         estimate D2E/DX2                !
 ! D18   D(4,3,31,8)           -30.4967         estimate D2E/DX2                !
 ! D19   D(3,4,5,6)             -0.4667         estimate D2E/DX2                !
 ! D20   D(3,4,5,15)           178.9866         estimate D2E/DX2                !
 ! D21   D(29,4,5,6)          -179.8696         estimate D2E/DX2                !
 ! D22   D(29,4,5,15)           -0.4163         estimate D2E/DX2                !
 ! D23   D(3,4,29,7)            25.5814         estimate D2E/DX2                !
 ! D24   D(3,4,29,17)         -169.4462         estimate D2E/DX2                !
 ! D25   D(5,4,29,7)          -155.0359         estimate D2E/DX2                !
 ! D26   D(5,4,29,17)            9.9364         estimate D2E/DX2                !
 ! D27   D(4,5,6,1)             -1.001          estimate D2E/DX2                !
 ! D28   D(4,5,6,16)           179.5179         estimate D2E/DX2                !
 ! D29   D(15,5,6,1)           179.5441         estimate D2E/DX2                !
 ! D30   D(15,5,6,16)            0.063          estimate D2E/DX2                !
 ! D31   D(13,7,8,9)            -2.8201         estimate D2E/DX2                !
 ! D32   D(13,7,8,31)          170.8201         estimate D2E/DX2                !
 ! D33   D(29,7,8,9)           177.8728         estimate D2E/DX2                !
 ! D34   D(29,7,8,31)           -8.487          estimate D2E/DX2                !
 ! D35   D(8,7,13,12)            0.9038         estimate D2E/DX2                !
 ! D36   D(8,7,13,30)         -178.8672         estimate D2E/DX2                !
 ! D37   D(29,7,13,12)        -179.7964         estimate D2E/DX2                !
 ! D38   D(29,7,13,30)           0.4326         estimate D2E/DX2                !
 ! D39   D(8,7,29,4)           -24.5163         estimate D2E/DX2                !
 ! D40   D(8,7,29,17)          170.4615         estimate D2E/DX2                !
 ! D41   D(13,7,29,4)          156.2011         estimate D2E/DX2                !
 ! D42   D(13,7,29,17)          -8.8212         estimate D2E/DX2                !
 ! D43   D(7,8,9,10)          -178.9905         estimate D2E/DX2                !
 ! D44   D(7,8,9,11)             2.6731         estimate D2E/DX2                !
 ! D45   D(31,8,9,10)            7.2363         estimate D2E/DX2                !
 ! D46   D(31,8,9,11)         -171.1001         estimate D2E/DX2                !
 ! D47   D(7,8,31,3)            31.2111         estimate D2E/DX2                !
 ! D48   D(9,8,31,3)          -154.9956         estimate D2E/DX2                !
 ! D49   D(8,9,11,12)           -0.547          estimate D2E/DX2                !
 ! D50   D(8,9,11,35)          178.9908         estimate D2E/DX2                !
 ! D51   D(10,9,11,12)        -178.8837         estimate D2E/DX2                !
 ! D52   D(10,9,11,35)           0.6542         estimate D2E/DX2                !
 ! D53   D(9,11,12,13)          -1.3461         estimate D2E/DX2                !
 ! D54   D(9,11,12,32)         179.3767         estimate D2E/DX2                !
 ! D55   D(35,11,12,13)        179.0998         estimate D2E/DX2                !
 ! D56   D(35,11,12,32)         -0.1774         estimate D2E/DX2                !
 ! D57   D(9,11,35,36)        -179.4931         estimate D2E/DX2                !
 ! D58   D(9,11,35,38)           0.4509         estimate D2E/DX2                !
 ! D59   D(12,11,35,36)          0.0388         estimate D2E/DX2                !
 ! D60   D(12,11,35,38)        179.9828         estimate D2E/DX2                !
 ! D61   D(11,12,13,7)           1.1526         estimate D2E/DX2                !
 ! D62   D(11,12,13,30)       -179.0719         estimate D2E/DX2                !
 ! D63   D(32,12,13,7)        -179.5952         estimate D2E/DX2                !
 ! D64   D(32,12,13,30)          0.1803         estimate D2E/DX2                !
 ! D65   D(11,12,32,33)          0.1972         estimate D2E/DX2                !
 ! D66   D(11,12,32,39)       -179.9081         estimate D2E/DX2                !
 ! D67   D(13,12,32,33)       -179.0596         estimate D2E/DX2                !
 ! D68   D(13,12,32,39)          0.8351         estimate D2E/DX2                !
 ! D69   D(19,17,18,20)          0.0832         estimate D2E/DX2                !
 ! D70   D(19,17,18,25)       -179.894          estimate D2E/DX2                !
 ! D71   D(29,17,18,20)        179.8725         estimate D2E/DX2                !
 ! D72   D(29,17,18,25)         -0.1047         estimate D2E/DX2                !
 ! D73   D(18,17,19,21)         -0.0787         estimate D2E/DX2                !
 ! D74   D(18,17,19,26)        179.8883         estimate D2E/DX2                !
 ! D75   D(29,17,19,21)       -179.8646         estimate D2E/DX2                !
 ! D76   D(29,17,19,26)          0.1025         estimate D2E/DX2                !
 ! D77   D(18,17,29,4)          96.9081         estimate D2E/DX2                !
 ! D78   D(18,17,29,7)         -97.2062         estimate D2E/DX2                !
 ! D79   D(19,17,29,4)         -83.304          estimate D2E/DX2                !
 ! D80   D(19,17,29,7)          82.5816         estimate D2E/DX2                !
 ! D81   D(17,18,20,22)         -0.0463         estimate D2E/DX2                !
 ! D82   D(17,18,20,23)        179.9702         estimate D2E/DX2                !
 ! D83   D(25,18,20,22)        179.9304         estimate D2E/DX2                !
 ! D84   D(25,18,20,23)         -0.0531         estimate D2E/DX2                !
 ! D85   D(17,19,21,22)          0.0372         estimate D2E/DX2                !
 ! D86   D(17,19,21,24)       -179.9635         estimate D2E/DX2                !
 ! D87   D(26,19,21,22)       -179.9293         estimate D2E/DX2                !
 ! D88   D(26,19,21,24)          0.07           estimate D2E/DX2                !
 ! D89   D(18,20,22,21)          0.0049         estimate D2E/DX2                !
 ! D90   D(18,20,22,27)       -179.9911         estimate D2E/DX2                !
 ! D91   D(23,20,22,21)        179.9883         estimate D2E/DX2                !
 ! D92   D(23,20,22,27)         -0.0076         estimate D2E/DX2                !
 ! D93   D(19,21,22,20)         -0.0003         estimate D2E/DX2                !
 ! D94   D(19,21,22,27)        179.9956         estimate D2E/DX2                !
 ! D95   D(24,21,22,20)       -179.9996         estimate D2E/DX2                !
 ! D96   D(24,21,22,27)         -0.0037         estimate D2E/DX2                !
 ! D97   D(12,32,33,34)        179.9338         estimate D2E/DX2                !
 ! D98   D(12,32,33,36)         -0.0763         estimate D2E/DX2                !
 ! D99   D(39,32,33,34)          0.0409         estimate D2E/DX2                !
 ! D100  D(39,32,33,36)       -179.9693         estimate D2E/DX2                !
 ! D101  D(32,33,36,35)         -0.0674         estimate D2E/DX2                !
 ! D102  D(32,33,36,37)        179.9713         estimate D2E/DX2                !
 ! D103  D(34,33,36,35)        179.9225         estimate D2E/DX2                !
 ! D104  D(34,33,36,37)         -0.0388         estimate D2E/DX2                !
 ! D105  D(11,35,36,33)          0.0849         estimate D2E/DX2                !
 ! D106  D(11,35,36,37)       -179.9539         estimate D2E/DX2                !
 ! D107  D(38,35,36,33)       -179.8582         estimate D2E/DX2                !
 ! D108  D(38,35,36,37)          0.103          estimate D2E/DX2                !
 --------------------------------------------------------------------------------
 Trust Radius=3.00D-01 FncErr=1.00D-07 GrdErr=1.00D-06
 Number of steps in this run=    231 maximum allowed number of steps=    234.
 GradGradGradGradGradGradGradGradGradGradGradGradGradGradGradGradGradGrad

 Leave Link  103 at Sat Mar 27 20:24:50 2021, MaxMem=  5242880000 cpu:         0.2
 (Enter /opt/nce/packages/global/g09/l202.exe)
                          Input orientation:                          
 ---------------------------------------------------------------------
 Center     Atomic      Atomic             Coordinates (Angstroms)
 Number     Number       Type             X           Y           Z
 ---------------------------------------------------------------------
      1          6           0       -4.195640   -2.381889   -0.509409
      2          6           0       -2.965719   -2.883167   -0.079432
      3          6           0       -1.897024   -2.023528    0.190694
      4          6           0       -2.023805   -0.631880   -0.009455
      5          6           0       -3.269114   -0.142903   -0.444877
      6          6           0       -4.341245   -1.005492   -0.680932
      7          6           0        0.410374   -0.160012    0.166936
      8          6           0        0.770816   -1.533199    0.368262
      9          6           0        2.083152   -1.941475    0.263775
     10          1           0        2.325117   -2.997641    0.406185
     11          6           0        3.133153   -1.019539    0.010227
     12          6           0        2.790763    0.360674   -0.148140
     13          6           0        1.427059    0.751503   -0.076188
     14          1           0       -2.826023   -3.956585    0.068790
     15          1           0       -3.404222    0.926870   -0.592576
     16          1           0       -5.295333   -0.588129   -1.010701
     17          6           0       -1.209177    1.651351    0.230103
     18          6           0       -1.425016    2.304349    1.446070
     19          6           0       -1.251269    2.370763   -0.970518
     20          6           0       -1.684993    3.677298    1.463358
     21          6           0       -1.511081    3.742351   -0.950786
     22          6           0       -1.728209    4.397023    0.266220
     23          1           0       -1.853956    4.185776    2.415315
     24          1           0       -1.544263    4.302451   -1.888163
     25          1           0       -1.385807    1.724078    2.369655
     26          1           0       -1.078654    1.846005   -1.912236
     27          1           0       -1.931338    5.470316    0.280309
     28          1           0       -5.027429   -3.061776   -0.703902
     29          7           0       -0.941038    0.242611    0.231476
     30          1           0        1.190722    1.804919   -0.215152
     31         16           0       -0.434327   -2.707364    0.920097
     32          6           0        3.831095    1.298177   -0.389013
     33          6           0        5.146614    0.888074   -0.473214
     34          1           0        5.935646    1.620526   -0.659970
     35          6           0        4.493900   -1.412883   -0.080814
     36          6           0        5.482637   -0.479160   -0.318692
     37          1           0        6.527138   -0.791798   -0.387838
     38          1           0        4.746237   -2.469452    0.041762
     39          1           0        3.571500    2.353304   -0.508745
 ---------------------------------------------------------------------
                    Distance matrix (angstroms):
                    1          2          3          4          5
     1  C    0.000000
     2  C    1.396018   0.000000
     3  C    2.429445   1.397876   0.000000
     4  C    2.833611   2.441391   1.411672   0.000000
     5  C    2.423979   2.781123   2.413158   1.406942   0.000000
     6  C    1.394665   2.404067   2.787534   2.441515   1.396154
     7  C    5.158444   4.344453   2.966031   2.485760   3.730046
     8  C    5.114320   3.998067   2.718331   2.960566   4.349155
     9  C    6.341530   5.147395   3.981692   4.319351   5.690677
    10  H    6.613451   5.314308   4.338411   4.968169   6.337922
    11  C    7.472431   6.377883   5.132567   5.171545   6.478012
    12  C    7.514120   6.607898   5.270159   4.917770   6.088001
    13  C    6.451401   5.701520   4.338381   3.718422   4.794782
    14  H    2.165602   1.092571   2.148164   3.421014   3.873545
    15  H    3.403108   3.869365   3.404410   2.162240   1.088340
    16  H    2.162913   3.400230   3.879720   3.421594   2.150336
    17  C    5.072757   4.872690   3.738907   2.436011   2.813945
    18  C    5.784555   5.622388   4.530925   3.331447   3.600753
    19  C    5.609781   5.597960   4.590774   3.245970   3.265963
    20  C    6.849008   6.860041   5.845002   4.566507   4.554639
    21  C    6.701342   6.839058   5.890440   4.503653   4.294394
    22  C    7.255582   7.392704   6.423214   5.045120   4.846749
    23  H    7.561198   7.578241   6.595927   5.396125   5.377809
    24  H    7.321964   7.544876   6.668140   5.301615   4.981903
    25  H    5.748316   5.451684   4.365062   3.408481   3.867047
    26  H    5.436783   5.411585   4.479434   3.264016   3.302577
    27  H    8.210228   8.424965   7.494458   6.109772   5.815820
    28  H    1.091763   2.161599   3.417264   3.925355   3.417395
    29  N    4.246098   3.737176   2.459870   1.412504   2.454794
    30  H    6.828532   6.266783   4.935169   4.038995   4.872055
    31  S    4.036942   2.727253   1.771763   2.774552   4.059019
    32  C    8.830960   7.985998   6.646889   6.176491   7.245192
    33  C    9.898064   8.954734   7.650558   7.344402   8.478691
    34  H   10.894262   9.992726   8.680638   8.297552   9.374623
    35  C    8.753900   7.603134   6.425769   6.564719   7.874629
    36  C    9.865384   8.786991   7.556715   7.514361   8.759117
    37  H   10.840717   9.725393   8.533368   8.560804   9.817885
    38  H    8.959276   7.723996   6.659876   7.015181   8.360353
    39  H    9.096731   8.386905   7.039221   6.361450   7.282110
                    6          7          8          9         10
     6  C    0.000000
     7  C    4.900163   0.000000
     8  C    5.245231   1.433908   0.000000
     9  C    6.560595   2.445644   1.378344   0.000000
    10  H    7.042078   3.431562   2.135856   1.092847   0.000000
    11  C    7.506299   2.859523   2.443905   1.420125   2.173153
    12  C    7.281196   2.456957   2.816667   2.443415   3.435460
    13  C    6.060204   1.386945   2.418275   2.792519   3.885264
    14  H    3.401019   4.989776   4.347382   5.310244   5.250491
    15  H    2.149382   4.038479   4.940252   6.250761   7.016027
    16  H    1.092348   5.841678   6.292286   7.609065   8.116931
    17  C    4.206976   2.430632   3.752442   4.873291   5.842548
    18  C    4.897303   3.328350   4.550838   5.633124   6.576926
    19  C    4.585947   3.234143   4.595876   5.589028   6.595878
    20  C    5.795013   4.560287   5.863404   6.870846   7.858334
    21  C    5.533955   4.491072   5.897319   6.833707   7.873073
    22  C    6.075543   5.034875   6.436076   7.396150   8.433866
    23  H    6.536254   5.391500   6.617139   7.594284   8.550014
    24  H    6.120031   5.287496   6.671271   7.534958   8.574816
    25  H    5.048886   3.409990   4.389356   5.468518   6.318291
    26  H    4.504625   3.250271   4.476632   5.392314   6.357801
    27  H    6.976226   6.098939   7.507236   8.429178   9.478373
    28  H    2.167875   6.224813   6.091447   7.263046   7.436151
    29  N    3.735192   1.411590   2.470355   3.730550   4.604077
    30  H    6.222381   2.148462   3.414634   3.880885   4.973680
    31  S    4.552326   2.787431   1.770750   2.712019   2.821861
    32  C    8.495837   3.759884   4.237389   3.738553   4.621078
    33  C    9.677200   4.892877   5.071317   4.234891   4.881902
    34  H   10.607115   5.863678   6.138299   5.327557   5.958194
    35  C    8.864869   4.278580   3.751999   2.491958   2.729880
    36  C    9.844638   5.105442   4.876901   3.746216   4.103429
    37  H   10.874434   6.174280   5.852914   4.636310   4.811777
    38  H    9.232973   4.914152   4.097212   2.723981   2.504718
    39  H    8.597831   4.094633   4.870100   4.610542   5.569846
                   11         12         13         14         15
    11  C    0.000000
    12  C    1.430839   0.000000
    13  C    2.460653   1.420427   0.000000
    14  H    6.643903   7.087600   6.346323   0.000000
    15  H    6.847565   6.236661   4.861963   4.961840   0.000000
    16  H    8.501046   8.187135   6.917983   4.313848   2.458933
    17  C    5.102728   4.220004   2.802371   5.838592   2.453548
    18  C    5.821235   4.908378   3.586493   6.561937   3.157655
    19  C    5.628425   4.588549   3.255038   6.602677   2.619709
    20  C    6.883778   5.799079   4.540413   7.843656   3.840243
    21  C    6.720718   5.530447   4.282845   7.876689   3.411632
    22  C    7.282686   6.073295   4.833506   8.427748   3.948229
    23  H    7.599408   6.540346   5.363476   8.529310   4.698000
    24  H    7.335236   6.112098   4.972046   8.583953   4.066023
    25  H    5.789243   5.063783   3.852306   6.295882   3.672105
    26  H    5.444862   4.504512   3.293570   6.375564   2.827469
    27  H    8.236518   6.970671   5.802854   9.471624   4.855329
    28  H    8.442500   8.552553   7.523001   2.498785   4.307725
    29  N    4.270949   3.752917   2.441621   4.605744   2.685991
    30  H    3.435316   2.156494   1.088509   7.029210   4.693286
    31  S    4.050127   4.577684   4.052296   2.829397   4.931137
    32  C    2.453227   1.420993   2.485176   8.493487   7.247697
    33  C    2.815445   2.435951   3.743177   9.344915   8.551757
    34  H    3.908078   3.426293   4.628537  10.411633   9.365833
    35  C    1.419380   2.459820   3.753678   7.750747   8.253283
    36  C    2.433161   2.824995   4.245121   9.015346   9.001566
    37  H    3.424829   3.917416   5.337575   9.884635  10.081054
    38  H    2.169166   3.445222   4.626598   7.716956   8.852535
    39  H    3.440574   2.170290   2.711365   9.004252   7.120565
                   16         17         18         19         20
    16  H    0.000000
    17  C    4.821985   0.000000
    18  C    5.420471   1.396986   0.000000
    19  C    5.011099   1.400291   2.423736   0.000000
    20  C    6.111415   2.419045   1.397453   2.796230   0.000000
    21  C    5.751279   2.420315   2.796458   1.396118   2.421274
    22  C    6.261521   2.794533   2.421416   2.421306   1.397502
    23  H    6.809613   3.407961   2.159443   3.888620   1.092392
    24  H    6.225611   3.409936   3.888925   2.158550   3.412230
    25  H    5.661934   2.148062   1.091449   3.404858   2.173926
    26  H    4.951581   2.155120   3.407090   1.091787   3.887919
    27  H    7.048966   3.886969   3.411555   3.410908   2.162222
    28  H    2.506956   6.137180   6.811392   6.621401   7.828411
    29  N    4.603587   1.434032   2.441360   2.463750   3.723987
    30  H    6.959058   2.445680   3.138658   2.618029   3.820070
    31  S    5.643449   4.480500   5.135697   5.479890   6.528645
    32  C    9.340039   5.090420   5.657439   5.226759   6.286392
    33  C   10.559466   6.439979   6.991123   6.586242   7.628954
    34  H   11.451465   7.200116   7.686505   7.232637   8.173920
    35  C    9.867826   6.481611   7.154212   6.936463   8.153105
    36  C   10.800712   7.044191   7.653625   7.341146   8.475067
    37  H   11.840619   8.136424   8.728465   8.416943   9.530941
    38  H   10.270355   7.244546   7.927523   7.773189   9.009117
    39  H    9.355464   4.888099   5.365526   4.844857   5.768264
                   21         22         23         24         25
    21  C    0.000000
    22  C    1.398872   0.000000
    23  H    3.412451   2.163110   0.000000
    24  H    1.092469   2.164289   4.316184   0.000000
    25  H    3.887730   3.418525   2.506233   4.980174   0.000000
    26  H    2.169679   3.416912   4.980293   2.500300   4.294625
    27  H    2.162886   1.092437   2.492846   2.493192   4.324034
    28  H    7.663015   8.213384   8.504555   8.232057   6.753707
    29  N    3.737763   4.228473   4.599035   4.619421   2.639010
    30  H    3.405076   3.933304   4.675243   4.064084   3.650516
    31  S    6.801355   7.250793   7.194887   7.632548   4.758593
    32  C    5.901561   6.398284   6.965794   6.337790   5.916731
    33  C    7.259468   7.753881   8.259928   7.643814   7.173098
    34  H    7.748578   8.203745   8.758755   8.040536   7.924205
    35  C    7.961977   8.519981   8.824450   8.508288   7.100442
    36  C    8.193460   8.724424   9.113837   8.643169   7.697856
    37  H    9.245993   9.772533  10.142813   9.661773   8.749177
    38  H    8.872749   9.440197   9.668938   9.442122   7.785033
    39  H    5.287483   5.732737   6.429903   5.645618   5.766802
                   26         27         28         29         30
    26  H    0.000000
    27  H    4.320874   0.000000
    28  H    6.413985   9.129679   0.000000
    29  N    2.680543   5.320900   5.337836   0.000000
    30  H    2.834052   4.840235   7.911321   2.680426   0.000000
    31  S    5.400966   8.338155   4.884626   3.071369   4.928516
    32  C    5.169716   7.145654   9.878350   4.926711   2.694176
    33  C    6.460834   8.465350  10.916304   6.162201   4.068941
    34  H    7.128774   8.808771  11.921195   7.069803   4.769294
    35  C    6.710277   9.422978   9.683119   5.690056   4.613381
    36  C    7.141170   9.524815  10.829579   6.487468   4.862949
    37  H    8.193282  10.545440  11.779674   7.564866   5.937179
    38  H    7.508038  10.377226   9.819950   6.303679   5.565783
    39  H    4.883756   6.373350  10.163796   5.036462   2.460696
                   31         32         33         34         35
    31  S    0.000000
    32  C    5.995995   0.000000
    33  C    6.783465   1.380531   0.000000
    34  H    7.861539   2.146267   1.092673   0.000000
    35  C    5.192776   2.807872   2.423720   3.408170   0.000000
    36  C    6.442822   2.427234   1.416375   2.174941   1.380589
    37  H    7.337716   3.411253   2.176030   2.498645   2.148038
    38  H    5.259878   3.901036   3.420304   4.316832   1.093177
    39  H    6.610492   1.093169   2.151545   2.479722   3.901040
                   36         37         38         39
    36  C    0.000000
    37  H    1.092477   0.000000
    38  H    2.152551   2.484087   0.000000
    39  H    3.422195   4.317648   4.994201   0.000000
 Symmetry turned off by external request.
 Stoichiometry    C22H15NS
 Framework group  C1[X(C22H15NS)]
 Deg. of freedom   111
 Full point group                 C1      NOp   1
 Rotational constants (GHZ):      0.3129755      0.1882478      0.1258670
 Leave Link  202 at Sat Mar 27 20:24:50 2021, MaxMem=  5242880000 cpu:         0.1
 (Enter /opt/nce/packages/global/g09/l301.exe)
 Standard basis: def2TZVP (5D, 7F)
 Ernie: Thresh=  0.10000D-02 Tol=  0.10000D-05 Strict=F.
   840 basis functions,  1362 primitive gaussians,   960 cartesian basis functions
    85 alpha electrons       85 beta electrons
       nuclear repulsion energy      1999.4749647159 Hartrees.
 IExCor= 1009 DFT=T Ex=PBE Corr=PBE ExCW=0 ScaHFX=  0.000000
 ScaDFX=  1.000000  1.000000  1.000000  1.000000 ScalE2=  1.000000  1.000000
 IRadAn=      5 IRanWt=     -1 IRanGd=            0 ICorTp=0 IEmpDi=141
 NAtoms=   39 NActive=   39 NUniq=   39 SFac= 1.00D+00 NAtFMM=   60 NAOKFM=F Big=F
 Integral buffers will be    131072 words long.
 Raffenetti 2 integral format.
 Two-electron integral symmetry is turned off.
 R6Disp:  Grimme-D3(BJ) Dispersion energy=       -0.0614138645 Hartrees.
 Nuclear repulsion after empirical dispersion term =     1999.4135508514 Hartrees.
 ------------------------------------------------------------------------------
 Polarizable Continuum Model (PCM)
 =================================
 Model                : PCM (using non-symmetric T matrix).
 Atomic radii         : SMD-Coulomb.
 Polarization charges : Total charges.
 Charge compensation  : None.
 Solution method      : On-the-fly selection.
 Cavity type          : VdW (van der Waals Surface) (Alpha=1.000).
 Cavity algorithm     : GePol (No added spheres)
                        Default sphere list used, NSphG=   39.
                        Lebedev-Laikov grids with approx.  5.0 points / Ang**2.
                        Smoothing algorithm: York/Karplus (Gamma=1.0000).
                        Polarization charges: spherical gaussians, with
                                              point-specific exponents (IZeta= 3).
                        Self-potential: point-specific (ISelfS= 7).
                        Self-field    : sphere-specific E.n sum rule (ISelfD= 2).
 1st derivatives      : Analytical E(r).r(x)/FMM algorithm (CHGder, D1EAlg=3).
                        Cavity 1st derivative terms included.
 Solvent              : n,n-DiMethylAcetamide, Eps=  37.781000 Eps(inf)=   2.067844
 ------------------------------------------------------------------------------
 GePol: Number of generator spheres                  =      39
 GePol: Total number of spheres                      =      39
 GePol: Number of exposed spheres                    =      39 (100.00%)
 GePol: Number of points                             =    3047
 GePol: Average weight of points                     =       0.11
 GePol: Minimum weight of points                     =   0.64D-10
 GePol: Maximum weight of points                     =    0.19854
 GePol: Number of points with low weight             =     166
 GePol: Fraction of low-weight points (<1% of avg)   =       5.45%
 GePol: Cavity surface area                          =    340.370 Ang**2
 GePol: Cavity volume                                =    342.163 Ang**3
 ------------------------------------------------------------------------------
 Atomic radii for non-electrostatic terms: SMD-CDS.
 ------------------------------------------------------------------------------
 PCM non-electrostatic energy =        -0.0064338808 Hartrees.
 Nuclear repulsion after PCM non-electrostatic terms =     1999.4071169706 Hartrees.
 Leave Link  301 at Sat Mar 27 20:24:50 2021, MaxMem=  5242880000 cpu:         1.5
 (Enter /opt/nce/packages/global/g09/l302.exe)
 NPDir=0 NMtPBC=     1 NCelOv=     1 NCel=       1 NClECP=     1 NCelD=      1
         NCelK=      1 NCelE2=     1 NClLst=     1 CellRange=     0.0.
 One-electron integrals computed using PRISM.
   1 Symmetry operations used in ECPInt.
 ECPInt:  NShTT=   53301 NPrTT=  167340 LenC2=   45736 LenP2D=  100262.
 LDataN:  DoStor=T MaxTD1= 6 Len=  172
 NBasis=   840 RedAO= T EigKep=  4.60D-06  NBF=   840
 NBsUse=   840 1.00D-06 EigRej= -1.00D+00 NBFU=   840
 Precomputing XC quadrature grid using
 IXCGrd= 4 IRadAn=           5 IRanWt=          -1 IRanGd=           0 AccXCQ= 0.00D+00.
 Generated NRdTot=       0 NPtTot=           0 NUsed=           0 NTot=          32
 NSgBfM=   944   944   944   944   944 MxSgAt=    39 MxSgA2=    39.
 Leave Link  302 at Sat Mar 27 20:24:52 2021, MaxMem=  5242880000 cpu:        18.3
 (Enter /opt/nce/packages/global/g09/l303.exe)
 DipDrv:  MaxL=1.
 Leave Link  303 at Sat Mar 27 20:24:52 2021, MaxMem=  5242880000 cpu:         1.9
 (Enter /opt/nce/packages/global/g09/l401.exe)
 ExpMin= 9.52D-02 ExpMax= 6.07D+04 ExpMxC= 2.07D+03 IAcc=3 IRadAn=         5 AccDes= 0.00D+00
 Harris functional with IExCor= 1009 and IRadAn=       5 diagonalized for initial guess.
 HarFok:  IExCor= 1009 AccDes= 0.00D+00 IRadAn=         5 IDoV= 1 UseB2=F ITyADJ=14
 ICtDFT=  3500011 ScaDFX=  1.000000  1.000000  1.000000  1.000000
 FoFCou: FMM=F IPFlag=           0 FMFlag=      100000 FMFlg1=           0
         NFxFlg=           0 DoJE=T BraDBF=F KetDBF=T FulRan=T
         wScrn=  0.000000 ICntrl=     500 IOpCl=  0 I1Cent=   200000004 NGrid=           0
         NMat0=    1 NMatS0=      1 NMatT0=    0 NMatD0=    1 NMtDS0=    0 NMtDT0=    0
 Symmetry not used in FoFCou.
 Harris En= -1299.74342856848    
 JPrj=0 DoOrth=F DoCkMO=F.
 Leave Link  401 at Sat Mar 27 20:24:59 2021, MaxMem=  5242880000 cpu:        86.2
 (Enter /opt/nce/packages/global/g09/l502.exe)
 Closed shell SCF:
 Using DIIS extrapolation, IDIIS=  1040.
 Two-electron integral symmetry not used.
 IVT=     2800708 IEndB=     2800708 NGot=  5242880000 MDV=  5241018493
 LenX=  5241018493 LenY=  5240095933
 Requested convergence on RMS density matrix=1.00D-08 within 128 cycles.
 Requested convergence on MAX density matrix=1.00D-06.
 Requested convergence on             energy=1.00D-06.
 No special actions if energy rises.
 Fock matrices will be formed incrementally for  20 cycles.

 Cycle   1  Pass 1  IDiag  1:
 FoFJK:  IHMeth= 1 ICntrl=     500 DoSepK=F KAlg= 0 I1Cent=   0 FoldK=F
 IRaf= 750000000 NMat=   1 IRICut=       1 DoRegI=T DoRafI=F ISym2E= 0.
 FoFCou: FMM=F IPFlag=           0 FMFlag=      100000 FMFlg1=           0
         NFxFlg=           0 DoJE=T BraDBF=F KetDBF=F FulRan=T
         wScrn=  0.000000 ICntrl=     500 IOpCl=  0 I1Cent=           0 NGrid=           0
         NMat0=    1 NMatS0=      1 NMatT0=    0 NMatD0=    1 NMtDS0=    0 NMtDT0=    0
 Symmetry not used in FoFCou.
 Inv3:  Mode=1 IEnd=    27852627.
 Iteration    1 A*A^-1 deviation from unit magnitude is 6.66D-15 for   3047.
 Iteration    1 A*A^-1 deviation from orthogonality  is 4.13D-15 for   1379   1250.
 Iteration    1 A^-1*A deviation from unit magnitude is 6.66D-15 for   3047.
 Iteration    1 A^-1*A deviation from orthogonality  is 2.93D-08 for   2066   2059.
 Iteration    2 A*A^-1 deviation from unit magnitude is 3.00D-15 for    872.
 Iteration    2 A*A^-1 deviation from orthogonality  is 3.67D-15 for   1379   1250.
 Iteration    2 A^-1*A deviation from unit magnitude is 9.99D-16 for   2973.
 Iteration    2 A^-1*A deviation from orthogonality  is 8.68D-16 for   3018    126.
 E= -1298.92676537773    
 DIIS: error= 1.55D-02 at cycle   1 NSaved=   1.
 NSaved= 1 IEnMin= 1 EnMin= -1298.92676537773     IErMin= 1 ErrMin= 1.55D-02
 ErrMax= 1.55D-02  0.00D+00 EMaxC= 1.00D-01 BMatC= 4.86D-01 BMatP= 4.86D-01
 IDIUse=3 WtCom= 8.45D-01 WtEn= 1.55D-01
 Coeff-Com:  0.100D+01
 Coeff-En:   0.100D+01
 Coeff:      0.100D+01
 Gap=     0.191 Goal=   None    Shift=    0.000
 GapD=    0.191 DampG=1.000 DampE=0.500 DampFc=0.5000 IDamp=-1.
 Damping current iteration by 5.00D-01
 RMSDP=2.79D-03 MaxDP=1.47D-01              OVMax= 3.35D-01

 Cycle   2  Pass 1  IDiag  1:
 RMSU=  1.39D-03    CP:  9.79D-01
 E= -1299.00669795631     Delta-E=       -0.079932578574 Rises=F Damp=T
 DIIS: error= 7.47D-03 at cycle   2 NSaved=   2.
 NSaved= 2 IEnMin= 2 EnMin= -1299.00669795631     IErMin= 2 ErrMin= 7.47D-03
 ErrMax= 7.47D-03  0.00D+00 EMaxC= 1.00D-01 BMatC= 9.69D-02 BMatP= 4.86D-01
 IDIUse=3 WtCom= 9.25D-01 WtEn= 7.47D-02
 Coeff-Com:  0.251D+00 0.749D+00
 Coeff-En:   0.428D+00 0.572D+00
 Coeff:      0.264D+00 0.736D+00
 Gap=     0.176 Goal=   None    Shift=    0.000
 RMSDP=1.80D-03 MaxDP=1.19D-01 DE=-7.99D-02 OVMax= 4.37D-01

 Cycle   3  Pass 1  IDiag  1:
 RMSU=  1.60D-03    CP:  1.00D+00  4.27D-01
 E= -1299.29832718927     Delta-E=       -0.291629232967 Rises=F Damp=F
 DIIS: error= 1.12D-02 at cycle   3 NSaved=   3.
 NSaved= 3 IEnMin= 3 EnMin= -1299.29832718927     IErMin= 2 ErrMin= 7.47D-03
 ErrMax= 1.12D-02  0.00D+00 EMaxC= 1.00D-01 BMatC= 1.15D-01 BMatP= 9.69D-02
 IDIUse=2 WtCom= 0.00D+00 WtEn= 1.00D+00
 Coeff-En:   0.000D+00 0.118D-01 0.988D+00
 Coeff:      0.000D+00 0.118D-01 0.988D+00
 Gap=     0.145 Goal=   None    Shift=    0.000
 RMSDP=2.17D-03 MaxDP=1.17D-01 DE=-2.92D-01 OVMax= 3.54D-01

 Cycle   4  Pass 1  IDiag  1:
 RMSU=  1.12D-03    CP:  9.57D-01  7.27D-01 -1.17D-01
 E= -1298.45264607061     Delta-E=        0.845681118667 Rises=F Damp=F
 DIIS: error= 3.01D-02 at cycle   4 NSaved=   4.
 NSaved= 4 IEnMin= 3 EnMin= -1299.29832718927     IErMin= 2 ErrMin= 7.47D-03
 ErrMax= 3.01D-02  0.00D+00 EMaxC= 1.00D-01 BMatC= 8.92D-01 BMatP= 9.69D-02
 IDIUse=2 WtCom= 0.00D+00 WtEn= 1.00D+00
 Coeff-En:   0.000D+00 0.000D+00 0.814D+00 0.186D+00
 Coeff:      0.000D+00 0.000D+00 0.814D+00 0.186D+00
 Gap=     0.127 Goal=   None    Shift=    0.000
 RMSDP=8.67D-04 MaxDP=5.74D-02 DE= 8.46D-01 OVMax= 2.12D-01

 Cycle   5  Pass 1  IDiag  1:
 RMSU=  3.09D-04    CP:  9.71D-01  5.64D-01  2.30D-01  5.21D-01
 E= -1299.33813770830     Delta-E=       -0.885491637690 Rises=F Damp=F
 DIIS: error= 9.66D-03 at cycle   5 NSaved=   5.
 NSaved= 5 IEnMin= 5 EnMin= -1299.33813770830     IErMin= 2 ErrMin= 7.47D-03
 ErrMax= 9.66D-03  0.00D+00 EMaxC= 1.00D-01 BMatC= 8.38D-02 BMatP= 9.69D-02
 IDIUse=3 WtCom= 9.03D-01 WtEn= 9.66D-02
 Coeff-Com:  0.110D-01 0.375D-01 0.373D+00-0.781D-01 0.657D+00
 Coeff-En:   0.000D+00 0.000D+00 0.439D+00 0.000D+00 0.561D+00
 Coeff:      0.991D-02 0.338D-01 0.379D+00-0.706D-01 0.648D+00
 Gap=     0.095 Goal=   None    Shift=    0.000
 RMSDP=5.91D-04 MaxDP=3.24D-02 DE=-8.85D-01 OVMax= 1.29D-01

 Cycle   6  Pass 1  IDiag  1:
 RMSU=  8.77D-05    CP:  9.84D-01  4.89D-01  5.45D-01  2.93D-01  8.44D-01
 E= -1299.43043730751     Delta-E=       -0.092299599216 Rises=F Damp=F
 DIIS: error= 8.01D-04 at cycle   6 NSaved=   6.
 NSaved= 6 IEnMin= 6 EnMin= -1299.43043730751     IErMin= 6 ErrMin= 8.01D-04
 ErrMax= 8.01D-04  0.00D+00 EMaxC= 1.00D-01 BMatC= 1.01D-03 BMatP= 8.38D-02
 IDIUse=3 WtCom= 9.92D-01 WtEn= 8.01D-03
 Coeff-Com:  0.129D-02 0.155D-01 0.183D+00-0.684D-01 0.409D+00 0.460D+00
 Coeff-En:   0.000D+00 0.000D+00 0.000D+00 0.000D+00 0.000D+00 0.100D+01
 Coeff:      0.128D-02 0.154D-01 0.181D+00-0.678D-01 0.405D+00 0.465D+00
 Gap=     0.095 Goal=   None    Shift=    0.000
 RMSDP=4.39D-05 MaxDP=3.33D-03 DE=-9.23D-02 OVMax= 6.31D-03

 Cycle   7  Pass 1  IDiag  1:
 RMSU=  2.44D-05    CP:  9.84D-01  4.93D-01  5.40D-01  2.88D-01  8.61D-01
                    CP:  6.10D-01
 E= -1299.43131875340     Delta-E=       -0.000881445891 Rises=F Damp=F
 DIIS: error= 1.99D-04 at cycle   7 NSaved=   7.
 NSaved= 7 IEnMin= 7 EnMin= -1299.43131875340     IErMin= 7 ErrMin= 1.99D-04
 ErrMax= 1.99D-04  0.00D+00 EMaxC= 1.00D-01 BMatC= 6.04D-05 BMatP= 1.01D-03
 IDIUse=3 WtCom= 9.98D-01 WtEn= 1.99D-03
 Coeff-Com:  0.311D-03 0.422D-02 0.526D-01-0.208D-01 0.112D+00 0.227D+00
 Coeff-Com:  0.625D+00
 Coeff-En:   0.000D+00 0.000D+00 0.000D+00 0.000D+00 0.000D+00 0.000D+00
 Coeff-En:   0.100D+01
 Coeff:      0.310D-03 0.421D-02 0.525D-01-0.208D-01 0.112D+00 0.227D+00
 Coeff:      0.625D+00
 Gap=     0.095 Goal=   None    Shift=    0.000
 RMSDP=1.86D-05 MaxDP=1.08D-03 DE=-8.81D-04 OVMax= 3.34D-03

 Cycle   8  Pass 1  IDiag  1:
 RMSU=  1.46D-05    CP:  9.84D-01  4.94D-01  5.38D-01  2.86D-01  8.70D-01
                    CP:  6.76D-01  6.60D-01
 E= -1299.43134698301     Delta-E=       -0.000028229602 Rises=F Damp=F
 DIIS: error= 1.15D-04 at cycle   8 NSaved=   8.
 NSaved= 8 IEnMin= 8 EnMin= -1299.43134698301     IErMin= 8 ErrMin= 1.15D-04
 ErrMax= 1.15D-04  0.00D+00 EMaxC= 1.00D-01 BMatC= 2.16D-05 BMatP= 6.04D-05
 IDIUse=3 WtCom= 9.99D-01 WtEn= 1.15D-03
 Coeff-Com:  0.274D-03 0.316D-04 0.957D-02-0.270D-02 0.111D-01 0.863D-01
 Coeff-Com:  0.450D+00 0.446D+00
 Coeff-En:   0.000D+00 0.000D+00 0.000D+00 0.000D+00 0.000D+00 0.000D+00
 Coeff-En:   0.317D+00 0.683D+00
 Coeff:      0.274D-03 0.316D-04 0.956D-02-0.269D-02 0.110D-01 0.862D-01
 Coeff:      0.450D+00 0.446D+00
 Gap=     0.095 Goal=   None    Shift=    0.000
 RMSDP=1.05D-05 MaxDP=6.11D-04 DE=-2.82D-05 OVMax= 1.90D-03

 Cycle   9  Pass 1  IDiag  1:
 RMSU=  3.03D-06    CP:  9.84D-01  4.92D-01  5.42D-01  2.87D-01  8.64D-01
                    CP:  6.74D-01  7.76D-01  5.42D-01
 E= -1299.43137026677     Delta-E=       -0.000023283768 Rises=F Damp=F
 DIIS: error= 2.72D-05 at cycle   9 NSaved=   9.
 NSaved= 9 IEnMin= 9 EnMin= -1299.43137026677     IErMin= 9 ErrMin= 2.72D-05
 ErrMax= 2.72D-05  0.00D+00 EMaxC= 1.00D-01 BMatC= 1.15D-06 BMatP= 2.16D-05
 IDIUse=1 WtCom= 1.00D+00 WtEn= 0.00D+00
 Coeff-Com:  0.189D-03-0.354D-03 0.256D-02-0.172D-03-0.111D-02 0.375D-01
 Coeff-Com:  0.234D+00 0.276D+00 0.451D+00
 Coeff:      0.189D-03-0.354D-03 0.256D-02-0.172D-03-0.111D-02 0.375D-01
 Coeff:      0.234D+00 0.276D+00 0.451D+00
 Gap=     0.095 Goal=   None    Shift=    0.000
 RMSDP=2.46D-06 MaxDP=1.79D-04 DE=-2.33D-05 OVMax= 3.76D-04

 Cycle  10  Pass 1  IDiag  1:
 RMSU=  1.23D-06    CP:  9.84D-01  4.92D-01  5.43D-01  2.86D-01  8.62D-01
                    CP:  6.78D-01  7.79D-01  5.25D-01  7.32D-01
 E= -1299.43137137176     Delta-E=       -0.000001104983 Rises=F Damp=F
 DIIS: error= 9.53D-06 at cycle  10 NSaved=  10.
 NSaved=10 IEnMin=10 EnMin= -1299.43137137176     IErMin=10 ErrMin= 9.53D-06
 ErrMax= 9.53D-06  0.00D+00 EMaxC= 1.00D-01 BMatC= 8.23D-08 BMatP= 1.15D-06
 IDIUse=1 WtCom= 1.00D+00 WtEn= 0.00D+00
 Coeff-Com:  0.101D-03-0.171D-03 0.833D-03 0.648D-04-0.160D-02 0.166D-01
 Coeff-Com:  0.112D+00 0.139D+00 0.282D+00 0.451D+00
 Coeff:      0.101D-03-0.171D-03 0.833D-03 0.648D-04-0.160D-02 0.166D-01
 Coeff:      0.112D+00 0.139D+00 0.282D+00 0.451D+00
 Gap=     0.095 Goal=   None    Shift=    0.000
 RMSDP=4.06D-07 MaxDP=2.05D-05 DE=-1.10D-06 OVMax= 8.89D-05

 Cycle  11  Pass 1  IDiag  1:
 RMSU=  3.33D-07    CP:  9.84D-01  4.92D-01  5.43D-01  2.86D-01  8.62D-01
                    CP:  6.77D-01  7.82D-01  5.22D-01  7.40D-01  8.39D-01
 E= -1299.43137144916     Delta-E=       -0.000000077401 Rises=F Damp=F
 DIIS: error= 3.30D-06 at cycle  11 NSaved=  11.
 NSaved=11 IEnMin=11 EnMin= -1299.43137144916     IErMin=11 ErrMin= 3.30D-06
 ErrMax= 3.30D-06  0.00D+00 EMaxC= 1.00D-01 BMatC= 8.14D-09 BMatP= 8.23D-08
 IDIUse=1 WtCom= 1.00D+00 WtEn= 0.00D+00
 Coeff-Com:  0.440D-04-0.408D-04 0.260D-03 0.417D-04-0.866D-03 0.635D-02
 Coeff-Com:  0.444D-01 0.577D-01 0.130D+00 0.286D+00 0.476D+00
 Coeff:      0.440D-04-0.408D-04 0.260D-03 0.417D-04-0.866D-03 0.635D-02
 Coeff:      0.444D-01 0.577D-01 0.130D+00 0.286D+00 0.476D+00
 Gap=     0.095 Goal=   None    Shift=    0.000
 RMSDP=2.17D-07 MaxDP=1.33D-05 DE=-7.74D-08 OVMax= 2.82D-05

 Cycle  12  Pass 1  IDiag  1:
 RMSU=  9.24D-08    CP:  9.84D-01  4.92D-01  5.43D-01  2.86D-01  8.62D-01
                    CP:  6.77D-01  7.81D-01  5.29D-01  7.37D-01  8.20D-01
                    CP:  7.19D-01
 E= -1299.43137145767     Delta-E=       -0.000000008515 Rises=F Damp=F
 DIIS: error= 5.93D-07 at cycle  12 NSaved=  12.
 NSaved=12 IEnMin=12 EnMin= -1299.43137145767     IErMin=12 ErrMin= 5.93D-07
 ErrMax= 5.93D-07  0.00D+00 EMaxC= 1.00D-01 BMatC= 4.65D-10 BMatP= 8.14D-09
 IDIUse=1 WtCom= 1.00D+00 WtEn= 0.00D+00
 Coeff-Com:  0.146D-04-0.967D-05 0.753D-04 0.169D-04-0.302D-03 0.187D-02
 Coeff-Com:  0.134D-01 0.179D-01 0.432D-01 0.110D+00 0.255D+00 0.559D+00
 Coeff:      0.146D-04-0.967D-05 0.753D-04 0.169D-04-0.302D-03 0.187D-02
 Coeff:      0.134D-01 0.179D-01 0.432D-01 0.110D+00 0.255D+00 0.559D+00
 Gap=     0.095 Goal=   None    Shift=    0.000
 RMSDP=4.01D-08 MaxDP=2.25D-06 DE=-8.52D-09 OVMax= 8.13D-06

 Cycle  13  Pass 1  IDiag  1:
 RMSU=  2.98D-08    CP:  9.84D-01  4.92D-01  5.43D-01  2.86D-01  8.62D-01
                    CP:  6.77D-01  7.81D-01  5.29D-01  7.39D-01  8.27D-01
                    CP:  7.44D-01  8.07D-01
 E= -1299.43137145803     Delta-E=       -0.000000000360 Rises=F Damp=F
 DIIS: error= 2.36D-07 at cycle  13 NSaved=  13.
 NSaved=13 IEnMin=13 EnMin= -1299.43137145803     IErMin=13 ErrMin= 2.36D-07
 ErrMax= 2.36D-07  0.00D+00 EMaxC= 1.00D-01 BMatC= 1.14D-10 BMatP= 4.65D-10
 IDIUse=1 WtCom= 1.00D+00 WtEn= 0.00D+00
 Coeff-Com:  0.399D-05-0.377D-05 0.169D-04 0.681D-05-0.913D-04 0.444D-03
 Coeff-Com:  0.326D-02 0.457D-02 0.120D-01 0.357D-01 0.108D+00 0.372D+00
 Coeff-Com:  0.464D+00
 Coeff:      0.399D-05-0.377D-05 0.169D-04 0.681D-05-0.913D-04 0.444D-03
 Coeff:      0.326D-02 0.457D-02 0.120D-01 0.357D-01 0.108D+00 0.372D+00
 Coeff:      0.464D+00
 Gap=     0.095 Goal=   None    Shift=    0.000
 RMSDP=2.11D-08 MaxDP=1.16D-06 DE=-3.60D-10 OVMax= 3.81D-06

 Cycle  14  Pass 1  IDiag  1:
 RMSU=  9.98D-09    CP:  9.84D-01  4.92D-01  5.43D-01  2.86D-01  8.62D-01
                    CP:  6.77D-01  7.81D-01  5.29D-01  7.40D-01  8.30D-01
                    CP:  7.43D-01  8.53D-01  6.62D-01
 E= -1299.43137145818     Delta-E=       -0.000000000144 Rises=F Damp=F
 DIIS: error= 6.98D-08 at cycle  14 NSaved=  14.
 NSaved=14 IEnMin=14 EnMin= -1299.43137145818     IErMin=14 ErrMin= 6.98D-08
 ErrMax= 6.98D-08  0.00D+00 EMaxC= 1.00D-01 BMatC= 1.04D-11 BMatP= 1.14D-10
 IDIUse=1 WtCom= 1.00D+00 WtEn= 0.00D+00
 Coeff-Com:  0.108D-05-0.161D-05 0.446D-05 0.232D-05-0.245D-04 0.102D-03
 Coeff-Com:  0.742D-03 0.110D-02 0.324D-02 0.113D-01 0.422D-01 0.176D+00
 Coeff-Com:  0.292D+00 0.474D+00
 Coeff:      0.108D-05-0.161D-05 0.446D-05 0.232D-05-0.245D-04 0.102D-03
 Coeff:      0.742D-03 0.110D-02 0.324D-02 0.113D-01 0.422D-01 0.176D+00
 Coeff:      0.292D+00 0.474D+00
 Gap=     0.095 Goal=   None    Shift=    0.000
 RMSDP=6.55D-09 MaxDP=3.26D-07 DE=-1.44D-10 OVMax= 1.29D-06

 Error on total polarization charges =  0.06347
 SCF Done:  E(RPBE-PBE) =  -1299.43137146     A.U. after   14 cycles
            NFock= 14  Conv=0.65D-08     -V/T= 2.0039
 KE= 1.294378025116D+03 PE=-7.039604532074D+03 EE= 2.446388018530D+03
 SMD-CDS (non-electrostatic) energy       (kcal/mol) =      -4.04
 (included in total energy above)
 Leave Link  502 at Sat Mar 27 20:33:06 2021, MaxMem=  5242880000 cpu:      5790.1
 (Enter /opt/nce/packages/global/g09/l601.exe)
 Copying SCF densities to generalized density rwf, IOpCl= 0 IROHF=0.

 **********************************************************************

            Population analysis using the SCF density.

 **********************************************************************

 Alpha  occ. eigenvalues --  -88.06315 -14.03660  -9.94342  -9.94152  -9.92956
 Alpha  occ. eigenvalues --   -9.92868  -9.92434  -9.89931  -9.89759  -9.89345
 Alpha  occ. eigenvalues --   -9.89292  -9.89277  -9.89244  -9.89191  -9.89177
 Alpha  occ. eigenvalues --   -9.89096  -9.88815  -9.88691  -9.88636  -9.88602
 Alpha  occ. eigenvalues --   -9.88506  -9.88463  -9.88365  -9.88357  -7.68859
 Alpha  occ. eigenvalues --   -5.71057  -5.70659  -5.70032  -0.90197  -0.80224
 Alpha  occ. eigenvalues --   -0.79320  -0.77607  -0.76072  -0.72464  -0.70316
 Alpha  occ. eigenvalues --   -0.68796  -0.68124  -0.68096  -0.67225  -0.64291
 Alpha  occ. eigenvalues --   -0.62440  -0.58298  -0.57300  -0.55379  -0.55112
 Alpha  occ. eigenvalues --   -0.53842  -0.52930  -0.51815  -0.49390  -0.48373
 Alpha  occ. eigenvalues --   -0.45578  -0.44712  -0.44423  -0.42363  -0.41574
 Alpha  occ. eigenvalues --   -0.41427  -0.40258  -0.39651  -0.39057  -0.38542
 Alpha  occ. eigenvalues --   -0.38118  -0.37849  -0.37381  -0.36889  -0.36437
 Alpha  occ. eigenvalues --   -0.35228  -0.34946  -0.33557  -0.32565  -0.32090
 Alpha  occ. eigenvalues --   -0.31971  -0.31656  -0.30768  -0.30039  -0.29522
 Alpha  occ. eigenvalues --   -0.28680  -0.28475  -0.26798  -0.25740  -0.23940
 Alpha  occ. eigenvalues --   -0.23594  -0.23283  -0.22368  -0.18982  -0.16874
 Alpha virt. eigenvalues --   -0.07417  -0.06205  -0.05285  -0.05074  -0.04361
 Alpha virt. eigenvalues --   -0.02704  -0.01772  -0.00913   0.02730   0.03375
 Alpha virt. eigenvalues --    0.04615   0.04797   0.05344   0.05488   0.06420
 Alpha virt. eigenvalues --    0.06794   0.07000   0.07652   0.08284   0.08870
 Alpha virt. eigenvalues --    0.09148   0.09230   0.09626   0.10033   0.10372
 Alpha virt. eigenvalues --    0.10682   0.11078   0.11700   0.11904   0.12790
 Alpha virt. eigenvalues --    0.13229   0.13375   0.15117   0.15970   0.16286
 Alpha virt. eigenvalues --    0.16620   0.17005   0.17181   0.17567   0.17938
 Alpha virt. eigenvalues --    0.18159   0.18693   0.19196   0.19552   0.19778
 Alpha virt. eigenvalues --    0.20126   0.20443   0.20720   0.21310   0.21398
 Alpha virt. eigenvalues --    0.21615   0.22157   0.22573   0.22667   0.23219
 Alpha virt. eigenvalues --    0.23666   0.23755   0.23977   0.24615   0.24869
 Alpha virt. eigenvalues --    0.25026   0.25653   0.26349   0.26699   0.26883
 Alpha virt. eigenvalues --    0.27050   0.27447   0.27861   0.28113   0.29020
 Alpha virt. eigenvalues --    0.29206   0.30000   0.30365   0.30716   0.30912
 Alpha virt. eigenvalues --    0.31392   0.31723   0.32010   0.32779   0.32982
 Alpha virt. eigenvalues --    0.33264   0.33854   0.34136   0.34818   0.34876
 Alpha virt. eigenvalues --    0.35298   0.35510   0.36008   0.36481   0.36868
 Alpha virt. eigenvalues --    0.37924   0.38339   0.38880   0.39064   0.39342
 Alpha virt. eigenvalues --    0.39368   0.39817   0.40041   0.40407   0.40829
 Alpha virt. eigenvalues --    0.41420   0.41635   0.42193   0.42230   0.42930
 Alpha virt. eigenvalues --    0.43250   0.43655   0.44226   0.44254   0.44694
 Alpha virt. eigenvalues --    0.44962   0.45695   0.45849   0.46041   0.46414
 Alpha virt. eigenvalues --    0.47136   0.47325   0.47889   0.48346   0.48829
 Alpha virt. eigenvalues --    0.49568   0.49727   0.50564   0.50956   0.51336
 Alpha virt. eigenvalues --    0.51649   0.52018   0.52927   0.54412   0.54721
 Alpha virt. eigenvalues --    0.55453   0.56128   0.56900   0.57441   0.57641
 Alpha virt. eigenvalues --    0.58018   0.59152   0.60176   0.60736   0.60996
 Alpha virt. eigenvalues --    0.61462   0.61853   0.62065   0.62640   0.63511
 Alpha virt. eigenvalues --    0.64007   0.64440   0.64728   0.65262   0.65268
 Alpha virt. eigenvalues --    0.65769   0.65984   0.66386   0.67010   0.67826
 Alpha virt. eigenvalues --    0.68090   0.68171   0.68715   0.69314   0.69930
 Alpha virt. eigenvalues --    0.70479   0.71025   0.71546   0.71752   0.72624
 Alpha virt. eigenvalues --    0.72681   0.73167   0.74445   0.75228   0.75422
 Alpha virt. eigenvalues --    0.75685   0.76901   0.77135   0.77594   0.78126
 Alpha virt. eigenvalues --    0.78388   0.79151   0.80304   0.80514   0.81115
 Alpha virt. eigenvalues --    0.81335   0.82054   0.82376   0.82566   0.83614
 Alpha virt. eigenvalues --    0.84280   0.84585   0.85216   0.85626   0.86748
 Alpha virt. eigenvalues --    0.87010   0.87373   0.88024   0.88782   0.89436
 Alpha virt. eigenvalues --    0.89508   0.90446   0.91764   0.92683   0.93615
 Alpha virt. eigenvalues --    0.94327   0.95223   0.95784   0.97126   0.97672
 Alpha virt. eigenvalues --    0.98236   0.99165   1.00153   1.00685   1.01175
 Alpha virt. eigenvalues --    1.02427   1.03058   1.03501   1.04483   1.05534
 Alpha virt. eigenvalues --    1.06628   1.06691   1.07343   1.08404   1.08705
 Alpha virt. eigenvalues --    1.09200   1.09750   1.10107   1.11945   1.13118
 Alpha virt. eigenvalues --    1.13682   1.14237   1.14449   1.15139   1.16663
 Alpha virt. eigenvalues --    1.17047   1.17786   1.18080   1.18695   1.19133
 Alpha virt. eigenvalues --    1.19373   1.20047   1.20428   1.20879   1.21669
 Alpha virt. eigenvalues --    1.21770   1.22226   1.23042   1.23179   1.24167
 Alpha virt. eigenvalues --    1.24871   1.25123   1.25916   1.27030   1.27434
 Alpha virt. eigenvalues --    1.28747   1.29104   1.30327   1.31634   1.31966
 Alpha virt. eigenvalues --    1.32797   1.33789   1.34644   1.35085   1.35238
 Alpha virt. eigenvalues --    1.35631   1.37467   1.38189   1.38954   1.39594
 Alpha virt. eigenvalues --    1.39924   1.41083   1.41942   1.42157   1.42860
 Alpha virt. eigenvalues --    1.43445   1.44069   1.44361   1.44841   1.45574
 Alpha virt. eigenvalues --    1.45715   1.46255   1.47273   1.47805   1.47957
 Alpha virt. eigenvalues --    1.48374   1.49057   1.50050   1.50442   1.50704
 Alpha virt. eigenvalues --    1.51335   1.52392   1.53224   1.53544   1.54059
 Alpha virt. eigenvalues --    1.54802   1.55914   1.56108   1.57236   1.58098
 Alpha virt. eigenvalues --    1.58177   1.59120   1.59525   1.59683   1.60265
 Alpha virt. eigenvalues --    1.60655   1.60683   1.61833   1.61928   1.62446
 Alpha virt. eigenvalues --    1.62619   1.63127   1.64097   1.64370   1.65156
 Alpha virt. eigenvalues --    1.65977   1.66371   1.66953   1.67201   1.67715
 Alpha virt. eigenvalues --    1.68113   1.69794   1.70412   1.71260   1.71364
 Alpha virt. eigenvalues --    1.72094   1.74355   1.75298   1.75783   1.76814
 Alpha virt. eigenvalues --    1.77227   1.78221   1.78912   1.79237   1.79375
 Alpha virt. eigenvalues --    1.81255   1.82450   1.82805   1.84893   1.85427
 Alpha virt. eigenvalues --    1.85740   1.87406   1.87578   1.88745   1.90428
 Alpha virt. eigenvalues --    1.91430   1.91821   1.92198   1.92936   1.94057
 Alpha virt. eigenvalues --    1.94564   1.96078   1.96263   1.97160   1.97271
 Alpha virt. eigenvalues --    1.98417   1.99473   2.00631   2.01412   2.01988
 Alpha virt. eigenvalues --    2.02534   2.03471   2.03802   2.04631   2.05480
 Alpha virt. eigenvalues --    2.05878   2.07302   2.08143   2.08371   2.08844
 Alpha virt. eigenvalues --    2.09441   2.10308   2.10368   2.11258   2.11924
 Alpha virt. eigenvalues --    2.12376   2.13348   2.13575   2.14093   2.15831
 Alpha virt. eigenvalues --    2.17061   2.17355   2.17764   2.18556   2.19837
 Alpha virt. eigenvalues --    2.21274   2.21776   2.23528   2.24807   2.25699
 Alpha virt. eigenvalues --    2.27174   2.28485   2.29946   2.32759   2.34015
 Alpha virt. eigenvalues --    2.36239   2.37130   2.37567   2.38929   2.39446
 Alpha virt. eigenvalues --    2.40999   2.41398   2.43445   2.44128   2.44355
 Alpha virt. eigenvalues --    2.45003   2.46064   2.47268   2.47720   2.48681
 Alpha virt. eigenvalues --    2.49413   2.50082   2.50641   2.51993   2.52167
 Alpha virt. eigenvalues --    2.52617   2.53801   2.53951   2.54278   2.55871
 Alpha virt. eigenvalues --    2.56208   2.56535   2.57521   2.57636   2.57969
 Alpha virt. eigenvalues --    2.58294   2.59538   2.59881   2.60209   2.60484
 Alpha virt. eigenvalues --    2.61129   2.61944   2.62452   2.62836   2.63440
 Alpha virt. eigenvalues --    2.63805   2.64201   2.64633   2.65911   2.66377
 Alpha virt. eigenvalues --    2.66706   2.67011   2.67682   2.68737   2.69070
 Alpha virt. eigenvalues --    2.69677   2.69842   2.70448   2.70763   2.71203
 Alpha virt. eigenvalues --    2.72185   2.72862   2.73074   2.73795   2.74148
 Alpha virt. eigenvalues --    2.75374   2.75696   2.75747   2.76645   2.76863
 Alpha virt. eigenvalues --    2.77649   2.78001   2.78641   2.78943   2.79136
 Alpha virt. eigenvalues --    2.79975   2.80090   2.80863   2.82240   2.82707
 Alpha virt. eigenvalues --    2.83326   2.83921   2.84210   2.85388   2.85992
 Alpha virt. eigenvalues --    2.86074   2.86458   2.87367   2.87996   2.88796
 Alpha virt. eigenvalues --    2.89677   2.90646   2.91113   2.91638   2.92395
 Alpha virt. eigenvalues --    2.92982   2.94125   2.94326   2.95825   2.96693
 Alpha virt. eigenvalues --    2.97061   2.97797   2.98406   2.99095   2.99943
 Alpha virt. eigenvalues --    3.01008   3.01350   3.03287   3.03597   3.04390
 Alpha virt. eigenvalues --    3.04683   3.04934   3.05938   3.06163   3.06536
 Alpha virt. eigenvalues --    3.07823   3.08012   3.08392   3.08861   3.09099
 Alpha virt. eigenvalues --    3.09666   3.09987   3.10460   3.11205   3.11361
 Alpha virt. eigenvalues --    3.12198   3.12609   3.12965   3.13630   3.13840
 Alpha virt. eigenvalues --    3.14648   3.15389   3.16499   3.16712   3.17459
 Alpha virt. eigenvalues --    3.18194   3.18954   3.19688   3.19981   3.20753
 Alpha virt. eigenvalues --    3.20828   3.21479   3.22197   3.23263   3.23666
 Alpha virt. eigenvalues --    3.23902   3.24606   3.25505   3.25586   3.26394
 Alpha virt. eigenvalues --    3.26488   3.27303   3.27539   3.28562   3.28758
 Alpha virt. eigenvalues --    3.29561   3.30128   3.30669   3.31032   3.31610
 Alpha virt. eigenvalues --    3.32184   3.32291   3.32829   3.33899   3.34326
 Alpha virt. eigenvalues --    3.35192   3.36319   3.36604   3.37714   3.38418
 Alpha virt. eigenvalues --    3.38640   3.39411   3.39607   3.40539   3.40698
 Alpha virt. eigenvalues --    3.41297   3.41789   3.42039   3.42802   3.43076
 Alpha virt. eigenvalues --    3.43730   3.44235   3.44920   3.45396   3.46284
 Alpha virt. eigenvalues --    3.46633   3.47403   3.48266   3.48741   3.49276
 Alpha virt. eigenvalues --    3.50333   3.50774   3.51582   3.52317   3.52511
 Alpha virt. eigenvalues --    3.54502   3.56080   3.57492   3.58152   3.59621
 Alpha virt. eigenvalues --    3.60239   3.60320   3.62289   3.63795   3.64414
 Alpha virt. eigenvalues --    3.64579   3.65627   3.66093   3.67820   3.69344
 Alpha virt. eigenvalues --    3.70272   3.71968   3.72508   3.74756   3.75388
 Alpha virt. eigenvalues --    3.78216   3.79411   3.80940   3.81980   3.82490
 Alpha virt. eigenvalues --    3.83707   3.84512   3.85377   3.86470   3.87434
 Alpha virt. eigenvalues --    3.88262   3.89460   3.89989   3.91005   3.92540
 Alpha virt. eigenvalues --    3.93825   3.96054   3.96525   3.96811   3.98740
 Alpha virt. eigenvalues --    3.99602   4.00992   4.02095   4.03480   4.03999
 Alpha virt. eigenvalues --    4.04830   4.05374   4.05546   4.06997   4.07051
 Alpha virt. eigenvalues --    4.08598   4.09003   4.09720   4.10123   4.10985
 Alpha virt. eigenvalues --    4.11444   4.11731   4.12582   4.13001   4.13295
 Alpha virt. eigenvalues --    4.13761   4.14811   4.15245   4.15791   4.16554
 Alpha virt. eigenvalues --    4.18073   4.18222   4.19218   4.20191   4.20273
 Alpha virt. eigenvalues --    4.21985   4.22381   4.23788   4.24569   4.25852
 Alpha virt. eigenvalues --    4.26664   4.28473   4.31034   4.31718   4.33260
 Alpha virt. eigenvalues --    4.36128   4.38242   4.39931   4.43356   4.44932
 Alpha virt. eigenvalues --    4.46054   4.49620   4.51031   4.52601   4.53355
 Alpha virt. eigenvalues --    4.54463   4.56528   4.57536   4.61793   4.62779
 Alpha virt. eigenvalues --    4.63755   4.65395   4.65538   4.67314   4.68494
 Alpha virt. eigenvalues --    4.68915   4.69248   4.71179   4.73174   4.74451
 Alpha virt. eigenvalues --    4.74987   4.76507   4.81192   4.82914   4.87215
 Alpha virt. eigenvalues --    4.87545   4.87973   4.91915   4.92419   4.95166
 Alpha virt. eigenvalues --    4.98697   5.00073   5.03512   5.04050   5.06302
 Alpha virt. eigenvalues --    5.08504   5.09696   5.12660   5.14355   5.14685
 Alpha virt. eigenvalues --    5.16299   5.18764   5.20466   5.21006   5.24534
 Alpha virt. eigenvalues --    5.26845   5.28865   5.35558   5.37585   5.42207
 Alpha virt. eigenvalues --    5.44353   5.46176   5.49254   5.53489   5.56839
 Alpha virt. eigenvalues --    5.57682   5.64896   5.70664   5.78602   5.84096
 Alpha virt. eigenvalues --    5.96900   6.01711   6.09383   8.78764   9.23096
 Alpha virt. eigenvalues --    9.43232  20.16382  21.84566  21.91060  22.03609
 Alpha virt. eigenvalues --   22.30291  22.30921  22.32419  22.34509  22.36325
 Alpha virt. eigenvalues --   22.36795  22.39193  22.48155  22.53379  22.53823
 Alpha virt. eigenvalues --   22.55855  22.56942  22.60306  22.63486  22.79495
 Alpha virt. eigenvalues --   22.83683  22.93182  22.98762  23.34969  32.90539
          Condensed to atoms (all electrons):
               1          2          3          4          5          6
     1  C    5.129707   0.297428   0.140484  -0.167420   0.080771   0.359481
     2  C    0.297428   5.346138   0.185674   0.103198  -0.170043   0.081737
     3  C    0.140484   0.185674   5.410310   0.081675   0.109059  -0.143991
     4  C   -0.167420   0.103198   0.081675   5.329258   0.282837   0.067506
     5  C    0.080771  -0.170043   0.109059   0.282837   5.328618   0.321937
     6  C    0.359481   0.081737  -0.143991   0.067506   0.321937   5.121995
     7  C   -0.002220   0.006904  -0.047442  -0.052074   0.008368   0.000936
     8  C    0.000074  -0.000172   0.023316  -0.061084  -0.005154  -0.000081
     9  C   -0.000070   0.000986  -0.001002   0.008319  -0.000935   0.000123
    10  H   -0.000012   0.000144   0.000226   0.000267  -0.000030   0.000005
    11  C    0.000021  -0.000087  -0.000102  -0.002728   0.000088  -0.000011
    12  C   -0.000008   0.000092  -0.000152   0.001927  -0.000009   0.000016
    13  C    0.000045  -0.000703  -0.004657   0.014318   0.004505  -0.000034
    14  H   -0.071345   0.468081  -0.106085   0.026661  -0.008046   0.019024
    15  H    0.010118  -0.001306   0.007558  -0.054804   0.435285  -0.042952
    16  H   -0.059823   0.015066  -0.003706   0.014497  -0.063914   0.441254
    17  C   -0.000587   0.000390   0.000382  -0.074663  -0.018279  -0.006724
    18  C   -0.000096   0.000170  -0.008295  -0.002861   0.004274   0.000305
    19  C   -0.000249  -0.000025   0.000449  -0.002269  -0.000228   0.003846
    20  C    0.000012   0.000001   0.000071  -0.000294   0.000021  -0.000151
    21  C    0.000025  -0.000034   0.001101   0.003072  -0.004241   0.000084
    22  C   -0.000002   0.000007  -0.000306  -0.001075   0.000927   0.000056
    23  H    0.000000  -0.000000   0.000020   0.000054   0.000009  -0.000003
    24  H    0.000000   0.000000  -0.000006  -0.000041  -0.000058  -0.000009
    25  H   -0.000006   0.000015  -0.002580   0.001287   0.000056   0.000083
    26  H   -0.000105   0.000079  -0.000718   0.001253   0.003598   0.000644
    27  H    0.000000   0.000000  -0.000000  -0.000001  -0.000007  -0.000000
    28  H    0.449647  -0.070408   0.019006  -0.005919   0.018389  -0.067358
    29  N   -0.000537   0.007399  -0.062004   0.433819  -0.102609   0.006182
    30  H   -0.000003   0.000021   0.000123  -0.001369  -0.000082   0.000012
    31  S    0.015542  -0.080399   0.407185  -0.100832   0.023288  -0.003333
    32  C   -0.000000   0.000001   0.000004   0.000009  -0.000009   0.000000
    33  C    0.000000  -0.000000  -0.000000   0.000001   0.000000  -0.000000
    34  H    0.000000  -0.000000  -0.000000   0.000000   0.000000  -0.000000
[...]
    36  C    0.001268  -0.002777   0.008219   0.001135   0.022505  -0.081897
    37  H   -0.000011   0.000029  -0.000988  -0.000052   0.014009  -0.002607
    38  H    0.000061   0.000552  -0.002452   0.005716  -0.077021   0.011269
    39  H    0.001707  -0.000406   0.000299   0.000033   0.010894  -0.075330
              13         14         15         16         17         18
     1  C    0.000046  -0.071110   0.010101  -0.060118  -0.000506  -0.000094
     2  C   -0.000665   0.468259  -0.001313   0.015129   0.000345   0.000180
     3  C   -0.004328  -0.105674   0.007528  -0.003716   0.002964  -0.008084
     4  C    0.014581   0.026381  -0.054997   0.014681  -0.072878  -0.001564
     5  C    0.004082  -0.007967   0.435315  -0.064320  -0.021568   0.004240
     6  C   -0.000026   0.018911  -0.042768   0.441842  -0.007168   0.000293
     7  C    0.232533   0.000193  -0.001413   0.000041  -0.050404  -0.006372
     8  C    0.105771   0.000247   0.000114  -0.000010   0.004083  -0.009960
     9  C   -0.206004   0.000197   0.000021  -0.000000   0.000243   0.000124
    10  H   -0.009541   0.000048   0.000000   0.000000   0.000036   0.000002
    11  C    0.036761  -0.000015  -0.000002   0.000000  -0.000035   0.000188
    12  C    0.220582   0.000006   0.000010  -0.000000  -0.006684   0.001520
    13  C    5.716808  -0.000033  -0.000113  -0.000002  -0.036756   0.008268
    14  H   -0.000033   0.537308   0.000043  -0.000228   0.000052   0.000001
    15  H   -0.000113   0.000043   0.502694  -0.008235   0.006678  -0.000261
    16  H   -0.000002  -0.000228  -0.008235   0.529090   0.000009   0.000004
    17  C   -0.036756   0.000052   0.006678   0.000009   5.604451   0.308283
    18  C    0.008268   0.000001  -0.000261   0.000004   0.308283   5.087469
    19  C    0.009242   0.000000  -0.007289   0.000051   0.267993   0.084416
    20  C   -0.000605   0.000000   0.001258  -0.000003   0.045902   0.388905
    21  C   -0.005435   0.000000   0.002215  -0.000004   0.085844  -0.132043
    22  C    0.001775   0.000000   0.000067   0.000000  -0.177611   0.070389
    23  H   -0.000012  -0.000000  -0.000003   0.000000   0.021399  -0.061163
    24  H   -0.000059  -0.000000   0.000038   0.000000   0.016447  -0.002363
    25  H    0.000317  -0.000000  -0.000167   0.000003  -0.095710   0.462719
    26  H    0.005080  -0.000000  -0.001501   0.000017  -0.076539   0.015365
    27  H   -0.000008   0.000000   0.000006   0.000000  -0.003743   0.012487
    28  H    0.000001  -0.009966  -0.000177  -0.008632   0.000001   0.000002
    29  N   -0.121785  -0.000018  -0.007137  -0.000159   0.098517  -0.026236
    30  H    0.449009   0.000000   0.000041  -0.000000   0.001838   0.000831
    31  S    0.025409   0.000759  -0.000379   0.000033  -0.005088   0.001193
    32  C   -0.116100   0.000000  -0.000001  -0.000000  -0.000466  -0.000143
    33  C    0.003426  -0.000000   0.000000   0.000000  -0.000008   0.000004
    34  H   -0.000841  -0.000000   0.000000  -0.000000   0.000001   0.000000
    35  C    0.024912  -0.000000  -0.000000   0.000000   0.000018   0.000010
    36  C   -0.002399   0.000000  -0.000000  -0.000000  -0.000009  -0.000002
    37  H    0.000209   0.000000   0.000000   0.000000   0.000000  -0.000000
    38  H   -0.000473  -0.000000   0.000000  -0.000000  -0.000000  -0.000000
    39  H   -0.008808   0.000000  -0.000000  -0.000000  -0.000155  -0.000015
              19         20         21         22         23         24
     1  C   -0.000225   0.000008   0.000029  -0.000003   0.000000   0.000000
     2  C   -0.000048   0.000005  -0.000035   0.000007  -0.000000   0.000000
     3  C    0.000799  -0.000008   0.001028  -0.000279   0.000019  -0.000006
     4  C   -0.000577  -0.000679   0.002496  -0.000869   0.000047  -0.000043
     5  C   -0.000614  -0.000213  -0.004489   0.001053   0.000008  -0.000055
     6  C    0.003516  -0.000115   0.000077   0.000051  -0.000003  -0.000009
     7  C   -0.011277  -0.000358   0.003429  -0.001505   0.000079  -0.000036
     8  C    0.000137   0.000054   0.001277  -0.000343   0.000022  -0.000006
     9  C    0.000072   0.000004  -0.000037   0.000008  -0.000000   0.000000
    10  H    0.000002   0.000000   0.000000   0.000000  -0.000000  -0.000000
    11  C   -0.000418   0.000000  -0.000032  -0.000000  -0.000000   0.000000
    12  C    0.007284  -0.000350  -0.000157   0.000158  -0.000010  -0.000012
    13  C    0.009242  -0.000605  -0.005435   0.001775  -0.000012  -0.000059
    14  H    0.000000   0.000000   0.000000   0.000000  -0.000000  -0.000000
    15  H   -0.007289   0.001258   0.002215   0.000067  -0.000003   0.000038
    16  H    0.000051  -0.000003  -0.000004   0.000000   0.000000   0.000000
    17  C    0.267993   0.045902   0.085844  -0.177611   0.021399   0.016447
    18  C    0.084416   0.388905  -0.132043   0.070389  -0.061163  -0.002363
    19  C    5.208653  -0.119039   0.267991   0.099891  -0.005093  -0.057903
    20  C   -0.119039   5.037943   0.060075   0.367865   0.440239   0.012279
    21  C    0.267991   0.060075   5.159337   0.335962   0.015109   0.435196
    22  C    0.099891   0.367865   0.335962   5.082198  -0.065802  -0.059318
    23  H   -0.005093   0.440239   0.015109  -0.065802   0.528618  -0.000267
    24  H   -0.057903   0.012279   0.435196  -0.059318  -0.000267   0.525953
    25  H    0.014602  -0.055236  -0.006195   0.017464  -0.010560   0.000065
    26  H    0.459854  -0.003857  -0.067408   0.015052   0.000034  -0.009256
    27  H    0.014170  -0.055857  -0.056660   0.433676  -0.008545  -0.008117
    28  H    0.000000  -0.000000  -0.000000   0.000000  -0.000000   0.000000
    29  N   -0.023976   0.006925   0.012928   0.002499  -0.000497  -0.000379
    30  H   -0.007424   0.001447   0.001597  -0.000171  -0.000005   0.000030
    31  S    0.000170  -0.000032  -0.000035   0.000014  -0.000002   0.000000
    32  C    0.000294   0.000026   0.000139  -0.000003  -0.000000  -0.000000
    33  C    0.000021  -0.000002  -0.000002  -0.000000   0.000000  -0.000000
    34  H    0.000000  -0.000000  -0.000000  -0.000000  -0.000000  -0.000000
    35  C   -0.000011  -0.000000  -0.000001  -0.000000  -0.000000   0.000000
    36  C    0.000003   0.000000   0.000001   0.000000   0.000000   0.000000
    37  H    0.000000  -0.000000  -0.000000   0.000000   0.000000  -0.000000
    38  H   -0.000000   0.000000   0.000000  -0.000000   0.000000  -0.000000
    39  H    0.000158  -0.000001   0.000123   0.000027  -0.000000   0.000001
              25         26         27         28         29         30
     1  C   -0.000007  -0.000104   0.000000   0.449953  -0.000488  -0.000002
     2  C    0.000019   0.000078   0.000000  -0.070607   0.007307   0.000019
     3  C   -0.002245  -0.000689  -0.000000   0.018967  -0.060931   0.000129
     4  C    0.001386   0.001555   0.000001  -0.005880   0.434354  -0.001423
     5  C    0.000054   0.003728  -0.000008   0.018296  -0.103560  -0.000075
     6  C    0.000090   0.000592  -0.000000  -0.067278   0.006304   0.000010
     7  C    0.001641   0.000962  -0.000001   0.000004   0.443822  -0.072459
     8  C   -0.002483  -0.000976  -0.000000   0.000006  -0.048325   0.007353
     9  C   -0.000010   0.000082   0.000000  -0.000002   0.007696  -0.001742
    10  H   -0.000000  -0.000000   0.000000  -0.000000  -0.000042   0.000057
    11  C    0.000018  -0.000080   0.000000   0.000000  -0.000534   0.011337
    12  C    0.000149   0.001034   0.000001  -0.000000   0.003512  -0.046756
    13  C    0.000317   0.005080  -0.000008   0.000001  -0.121785   0.449009
    14  H   -0.000000  -0.000000   0.000000  -0.009966  -0.000018   0.000000
    15  H   -0.000167  -0.001501   0.000006  -0.000177  -0.007137   0.000041
    16  H    0.000003   0.000017   0.000000  -0.008632  -0.000159  -0.000000
    17  C   -0.095710  -0.076539  -0.003743   0.000001   0.098517   0.001838
    18  C    0.462719   0.015365   0.012487   0.000002  -0.026236   0.000831
    19  C    0.014602   0.459854   0.014170   0.000000  -0.023976  -0.007424
    20  C   -0.055236  -0.003857  -0.055857  -0.000000   0.006925   0.001447
    21  C   -0.006195  -0.067408  -0.056660  -0.000000   0.012928   0.001597
    22  C    0.017464   0.015052   0.433676   0.000000   0.002499  -0.000171
    23  H   -0.010560   0.000034  -0.008545  -0.000000  -0.000497  -0.000005
    24  H    0.000065  -0.009256  -0.008117   0.000000  -0.000379   0.000030
    25  H    0.523749  -0.000119  -0.000153   0.000000   0.007512  -0.000181
    26  H   -0.000119   0.522316  -0.000171   0.000000  -0.002563  -0.001650
    27  H   -0.000153  -0.000171   0.524453   0.000000   0.000005   0.000006
    28  H    0.000000   0.000000   0.000000   0.531849   0.000019  -0.000000
    29  N    0.007512  -0.002563   0.000005   0.000019   6.227819  -0.007098
    30  H   -0.000181  -0.001650   0.000006  -0.000000  -0.007098   0.501386
    31  S    0.000984  -0.000023   0.000000  -0.000355  -0.015090  -0.000337
    32  C    0.000003   0.000016  -0.000000  -0.000000  -0.000279  -0.002537
    33  C   -0.000000   0.000002  -0.000000   0.000000  -0.000001   0.001113
    34  H    0.000000   0.000000   0.000000   0.000000  -0.000000  -0.000059
    35  C    0.000002  -0.000001  -0.000000   0.000000   0.000021  -0.000405
    36  C   -0.000000   0.000000   0.000000  -0.000000   0.000002  -0.000020
    37  H   -0.000000  -0.000000   0.000000  -0.000000   0.000000  -0.000003
    38  H   -0.000000  -0.000000  -0.000000  -0.000000  -0.000000   0.000025
    39  H    0.000001   0.000005   0.000000  -0.000000  -0.000017   0.005682
              31         32         33         34         35         36
     1  C    0.015536  -0.000000   0.000000   0.000000   0.000000  -0.000000
     2  C   -0.082550   0.000001  -0.000000  -0.000000  -0.000004   0.000000
     3  C    0.412293   0.000006  -0.000000  -0.000000  -0.000001   0.000001
     4  C   -0.103627  -0.000000   0.000001   0.000000   0.000027  -0.000002
     5  C    0.023835  -0.000010   0.000000   0.000000   0.000002  -0.000000
     6  C   -0.003319   0.000000  -0.000000  -0.000000  -0.000000   0.000000
     7  C   -0.086392   0.015385  -0.003853   0.000019  -0.002030   0.001268
     8  C    0.402569  -0.000116   0.001523  -0.000006   0.016811  -0.002777
     9  C   -0.092681   0.021657  -0.000549   0.000116  -0.102586   0.008219
    10  H    0.001741  -0.000096  -0.000105  -0.000004  -0.006743   0.001135
    11  C    0.016408  -0.009336  -0.070933  -0.002879   0.353626   0.022505
    12  C   -0.002470   0.355599   0.020015   0.014999  -0.031901  -0.081897
    13  C    0.025409  -0.116100   0.003426  -0.000841   0.024912  -0.002399
    14  H    0.000759   0.000000  -0.000000  -0.000000  -0.000000   0.000000
    15  H   -0.000379  -0.000001   0.000000   0.000000  -0.000000  -0.000000
    16  H    0.000033  -0.000000   0.000000  -0.000000   0.000000  -0.000000
    17  C   -0.005088  -0.000466  -0.000008   0.000001   0.000018  -0.000009
    18  C    0.001193  -0.000143   0.000004   0.000000   0.000010  -0.000002
    19  C    0.000170   0.000294   0.000021   0.000000  -0.000011   0.000003
    20  C   -0.000032   0.000026  -0.000002  -0.000000  -0.000000   0.000000
    21  C   -0.000035   0.000139  -0.000002  -0.000000  -0.000001   0.000001
    22  C    0.000014  -0.000003  -0.000000  -0.000000  -0.000000   0.000000
    23  H   -0.000002  -0.000000   0.000000  -0.000000  -0.000000   0.000000
    24  H    0.000000  -0.000000  -0.000000  -0.000000   0.000000   0.000000
    25  H    0.000984   0.000003  -0.000000   0.000000   0.000002  -0.000000
    26  H   -0.000023   0.000016   0.000002   0.000000  -0.000001   0.000000
    27  H    0.000000  -0.000000  -0.000000   0.000000  -0.000000   0.000000
    28  H   -0.000355  -0.000000   0.000000   0.000000   0.000000  -0.000000
    29  N   -0.015090  -0.000279  -0.000001  -0.000000   0.000021   0.000002
    30  H   -0.000337  -0.002537   0.001113  -0.000059  -0.000405  -0.000020
    31  S   15.577780  -0.000052   0.000008   0.000000  -0.001214   0.000004
    32  C   -0.000052   5.254156   0.416621  -0.064429  -0.104385   0.043450
    33  C    0.000008   0.416621   5.042317   0.441971   0.040325   0.354809
    34  H    0.000000  -0.064429   0.441971   0.534352   0.014282  -0.061021
    35  C   -0.001214  -0.104385   0.040325   0.014282   5.246428   0.414401
    36  C    0.000004   0.043450   0.354809  -0.061021   0.414401   5.045024
    37  H   -0.000000   0.013929  -0.060926  -0.008508  -0.063965   0.442003
    38  H   -0.000035  -0.003821   0.014146  -0.000251   0.452940  -0.061864
    39  H   -0.000003   0.457764  -0.062110  -0.009776  -0.004186   0.014483
              37         38         39
     1  C   -0.000000   0.000000  -0.000000
     2  C    0.000000   0.000000   0.000000
     3  C    0.000000  -0.000000  -0.000000
     4  C   -0.000000  -0.000001   0.000001
     5  C   -0.000000  -0.000000   0.000000
     6  C    0.000000   0.000000   0.000000
     7  C   -0.000011   0.000061   0.001707
     8  C    0.000029   0.000552  -0.000406
     9  C   -0.000988  -0.002452   0.000299
    10  H   -0.000052   0.005716   0.000033
    11  C    0.014009  -0.077021   0.010894
    12  C   -0.002607   0.011269  -0.075330
    13  C    0.000209  -0.000473  -0.008808
    14  H    0.000000  -0.000000   0.000000
    15  H    0.000000   0.000000  -0.000000
    16  H    0.000000  -0.000000  -0.000000
    17  C    0.000000  -0.000000  -0.000155
    18  C   -0.000000  -0.000000  -0.000015
    19  C    0.000000  -0.000000   0.000158
    20  C   -0.000000   0.000000  -0.000001
    21  C   -0.000000   0.000000   0.000123
    22  C    0.000000  -0.000000   0.000027
    23  H    0.000000   0.000000  -0.000000
    24  H   -0.000000  -0.000000   0.000001
    25  H   -0.000000  -0.000000   0.000001
    26  H   -0.000000  -0.000000   0.000005
    27  H    0.000000  -0.000000   0.000000
    28  H   -0.000000  -0.000000  -0.000000
    29  N    0.000000  -0.000000  -0.000017
    30  H   -0.000003   0.000025   0.005682
    31  S   -0.000000  -0.000035  -0.000003
    32  C    0.013929  -0.003821   0.457764
    33  C   -0.060926   0.014146  -0.062110
    34  H   -0.008508  -0.000251  -0.009776
    35  C   -0.063965   0.452940  -0.004186
    36  C    0.442003  -0.061864   0.014483
    37  H    0.533774  -0.009592  -0.000244
    38  H   -0.009592   0.530829   0.000083
    39  H   -0.000244   0.000083   0.534439
 Mulliken charges:
               1
     1  C   -0.179315
     2  C   -0.194184
     3  C   -0.004685
     4  C    0.157362
     5  C   -0.243606
     6  C   -0.165658
     7  C    0.134332
     8  C    0.084840
     9  C   -0.345012
    10  H    0.132006
    11  C    0.153767
    12  C    0.178529
    13  C   -0.344818
    14  H    0.142608
    15  H    0.159628
    16  H    0.144528
    17  C    0.090223
    18  C   -0.198592
    19  C   -0.205425
    20  C   -0.126582
    21  C   -0.112319
    22  C   -0.122253
    23  H    0.146389
    24  H    0.147822
    25  H    0.142289
    26  H    0.139167
    27  H    0.148461
    28  H    0.143798
    29  N    0.159873
    30  H    0.160436
    31  S   -0.085051
    32  C   -0.277274
    33  C   -0.137814
    34  H    0.142034
    35  C   -0.246373
    36  C   -0.137317
    37  H    0.142946
    38  H    0.139891
    39  H    0.135353
 Sum of Mulliken charges =  -0.00000
 Mulliken charges with hydrogens summed into heavy atoms:
               1
     1  C   -0.035517
     2  C   -0.051576
     3  C   -0.004685
     4  C    0.157362
     5  C   -0.083979
     6  C   -0.021130
     7  C    0.134332
     8  C    0.084840
     9  C   -0.213006
    11  C    0.153767
    12  C    0.178529
    13  C   -0.184382
    17  C    0.090223
    18  C   -0.056303
    19  C   -0.066259
    20  C    0.019807
    21  C    0.035502
    22  C    0.026208
    29  N    0.159873
    31  S   -0.085051
    32  C   -0.141921
    33  C    0.004219
    35  C   -0.106481
    36  C    0.005629
 Electronic spatial extent (au):  <R**2>=           8342.4430
 Charge=             -0.0000 electrons
 Dipole moment (field-independent basis, Debye):
    X=             -1.5202    Y=              3.1959    Z=             -0.6100  Tot=              3.5912
 Quadrupole moment (field-independent basis, Debye-Ang):
   XX=           -134.2299   YY=           -125.8967   ZZ=           -146.8188
   XY=             -4.7618   XZ=              1.0653   YZ=             -0.6305
 Traceless Quadrupole moment (field-independent basis, Debye-Ang):
   XX=              1.4186   YY=              9.7517   ZZ=            -11.1703
   XY=             -4.7618   XZ=              1.0653   YZ=             -0.6305
 Octapole moment (field-independent basis, Debye-Ang**2):
  XXX=             22.3656  YYY=             44.9108  ZZZ=              9.4020  XYY=            -21.2595
  XXY=            -15.9877  XXZ=            -19.2505  XZZ=            -20.6167  YZZ=             26.1185
  YYZ=             -1.8575  XYZ=            -10.2821
 Hexadecapole moment (field-independent basis, Debye-Ang**3):
 XXXX=          -6440.8579 YYYY=          -3682.0147 ZZZZ=           -522.1014 XXXY=             80.5358
 XXXZ=             40.4022 YYYX=            -87.9039 YYYZ=             -2.9346 ZZZX=            -12.6899
 ZZZY=              5.2708 XXYY=          -1668.7271 XXZZ=          -1374.4348 YYZZ=           -749.4076
 XXYZ=              3.8007 YYXZ=             -3.9711 ZZXY=            -48.8576
 N-N= 2.000992661347D+03 E-N=-7.042789004603D+03  KE= 1.294425339339D+03
 Leave Link  601 at Sun Mar 28 01:25:02 2021, MaxMem=  5242880000 cpu:         4.1
 (Enter /opt/nce/packages/global/g09/l9999.exe)
 1\1\GINC-CN007\SP\RPBEPBE TD-FC\Gen\C22H15N1S1\PNG4RJV\28-Mar-2021\0\\
 #p PBEPBE chkbasis geom=allcheck Guess=Read int=ultrafine scrf=(SMD,so
 lvent=n,n-DiMethylAcetamide) td=(NStates=30) EmpiricalDispersion=GD3BJ
 \\Title\\0,1\C,0,-4.2134152463,-2.372397933,-0.4747186354\C,0,-2.97363
 59964,-2.8855711426,-0.0899069449\C,0,-1.895465357,-2.0328207371,0.164
 3173178\C,0,-2.021206502,-0.6372669861,-0.0090353141\C,0,-3.2766021672
 ,-0.1376236909,-0.4015963159\C,0,-4.3580443259,-0.9923364163,-0.620112
 7392\C,0,0.4090920821,-0.1700694965,0.1520900336\C,0,0.7733419159,-1.5
 450797444,0.3228844123\C,0,2.0881043638,-1.9504035456,0.2170130811\H,0
 ,2.3366051563,-3.0078327014,0.337683834\C,0,3.1350821555,-1.0195897912
 ,-0.0032425388\C,0,2.7888418638,0.3653385448,-0.1303887953\C,0,1.42631
 22297,0.7513630213,-0.0613542791\H,0,-2.8380797708,-3.9617233334,0.038
 6929286\H,0,-3.4107736886,0.9351364466,-0.5309125047\H,0,-5.3180555817
 ,-0.5654668378,-0.9155567307\C,0,-1.2045849942,1.6482683948,0.21139963
 39\C,0,-1.4167577989,2.3030231732,1.4254662157\C,0,-1.2461809733,2.353
 7393874,-0.9951688688\C,0,-1.6745935088,3.6762581182,1.4332442166\C,0,
 -1.5035442858,3.7257144883,-0.9818629052\C,0,-1.7176915982,4.387452647
 6,0.2312150997\H,0,-1.8416701136,4.1902733735,2.381494317\H,0,-1.53699
 19239,4.2794075049,-1.9218608491\H,0,-1.3787920995,1.7317312259,2.3546
 741367\H,0,-1.0766355226,1.8249860276,-1.9348247267\H,0,-1.9188098854,
 5.4602681094,0.2387944072\H,0,-5.0516657252,-3.0466528368,-0.654925636
 6\N,0,-0.9373734603,0.2319314197,0.2241204307\H,0,1.1886596896,1.80816
 92301,-0.1788017931\S,0,-0.4222672531,-2.7355247082,0.831888228\C,0,3.
 8269481528,1.311033464,-0.3388390086\C,0,5.1458264086,0.904762319,-0.4
 224042458\H,0,5.9336091912,1.6431613327,-0.5847222262\C,0,4.4956087582
 ,-1.4076185726,-0.0918803599\C,0,5.4844207111,-0.4634163139,-0.2990873
 842\H,0,6.5295306502,-0.771196759,-0.3676954084\H,0,4.7480275744,-2.46
 62050013,0.007250594\H,0,3.5640678753,2.3673253188,-0.4348496763\\Vers
 ion=ES64L-G09RevE.01\State=1-A\HF=-1299.4316013\RMSD=9.863e-09\PG=C01 
 [X(C22H15N1S1)]\\@


 UNLESS WE CHANGE DIRECTIONS, WE WILL WIND UP WHERE WE ARE HEADED.
     -- CONFUCIUS
 Job cpu time:       0 days 20 hours  7 minutes 49.0 seconds.
 File lengths (MBytes):  RWF=   2719 Int=      0 D2E=      0 Chk=    629 Scr=      1
 Normal termination of Gaussian 09 at Sun Mar 28 01:25:03 2021.
