 Entering Gaussian System, Link 0=g09
 Input=/home/png4rjv/fotokatalizis/benchmark/OPCs/PTZ_3_TPSS_def2TZVP.gjf
 Output=/home/png4rjv/fotokatalizis/benchmark/OPCs/PTZ_3_TPSS_def2TZVP.log
 Initial command:
 /opt/nce/packages/global/g09/l1.exe "/home/png4rjv/fotokatalizis/benchmark/OPCs/PTZ_3_TPSS_def2TZVP/Gau-21738.inp" -scrdir="/home/png4rjv/fotokatalizis/benchmark/OPCs/PTZ_3_TPSS_def2TZVP/"
 Default is to use a total of  12 processors:
                               12 via shared-memory
                                1 via Linda
 Entering Link 1 = /opt/nce/packages/global/g09/l1.exe PID=     21739.
  
 Copyright (c) 1988,1990,1992,1993,1995,1998,2003,2009,2015,
            Gaussian, Inc.  All Rights Reserved.
  
 This is part of the Gaussian(R) 09 program.  It is based on
 the Gaussian(R) 03 system (copyright 2003, Gaussian, Inc.),
 the Gaussian(R) 98 system (copyright 1998, Gaussian, Inc.),
 the Gaussian(R) 94 system (copyright 1995, Gaussian, Inc.),
 the Gaussian 92(TM) system (copyright 1992, Gaussian, Inc.),
 the Gaussian 90(TM) system (copyright 1990, Gaussian, Inc.),
 the Gaussian 88(TM) system (copyright 1988, Gaussian, Inc.),
 the Gaussian 86(TM) system (copyright 1986, Carnegie Mellon
 University), and the Gaussian 82(TM) system (copyright 1983,
 Carnegie Mellon University). Gaussian is a federally registered
 trademark of Gaussian, Inc.
  
 This software contains proprietary and confidential information,
 including trade secrets, belonging to Gaussian, Inc.
  
 This software is provided under written license and may be
 used, copied, transmitted, or stored only in accord with that
 written license.
  
 The following legend is applicable only to US Government
 contracts under FAR:
  
                    RESTRICTED RIGHTS LEGEND
  
 Use, reproduction and disclosure by the US Government is
 subject to restrictions as set forth in subparagraphs (a)
 and (c) of the Commercial Computer Software - Restricted
 Rights clause in FAR 52.227-19.
  
 Gaussian, Inc.
 340 Quinnipiac St., Bldg. 40, Wallingford CT 06492
  
  
 ---------------------------------------------------------------
 Warning -- This program may not be used in any manner that
 competes with the business of Gaussian, Inc. or will provide
 assistance to any competitor of Gaussian, Inc.  The licensee
 of this program is prohibited from giving any competitor of
 Gaussian, Inc. access to this program.  By using this program,
 the user acknowledges that Gaussian, Inc. is engaged in the
 business of creating and licensing software in the field of
 computational chemistry and represents and warrants to the
 licensee that it is not a competitor of Gaussian, Inc. and that
 it will not use this program in any manner prohibited above.
 ---------------------------------------------------------------
  

 Cite this work as:
 Gaussian 09, Revision E.01,
 M. J. Frisch, G. W. Trucks, H. B. Schlegel, G. E. Scuseria, 
 M. A. Robb, J. R. Cheeseman, G. Scalmani, V. Barone, B. Mennucci, 
 G. A. Petersson, H. Nakatsuji, M. Caricato, X. Li, H. P. Hratchian, 
 A. F. Izmaylov, J. Bloino, G. Zheng, J. L. Sonnenberg, M. Hada, 
 M. Ehara, K. Toyota, R. Fukuda, J. Hasegawa, M. Ishida, T. Nakajima, 
 Y. Honda, O. Kitao, H. Nakai, T. Vreven, J. A. Montgomery, Jr., 
 J. E. Peralta, F. Ogliaro, M. Bearpark, J. J. Heyd, E. Brothers, 
 K. N. Kudin, V. N. Staroverov, T. Keith, R. Kobayashi, J. Normand, 
 K. Raghavachari, A. Rendell, J. C. Burant, S. S. Iyengar, J. Tomasi, 
 M. Cossi, N. Rega, J. M. Millam, M. Klene, J. E. Knox, J. B. Cross, 
 V. Bakken, C. Adamo, J. Jaramillo, R. Gomperts, R. E. Stratmann, 
 O. Yazyev, A. J. Austin, R. Cammi, C. Pomelli, J. W. Ochterski, 
 R. L. Martin, K. Morokuma, V. G. Zakrzewski, G. A. Voth, 
 P. Salvador, J. J. Dannenberg, S. Dapprich, A. D. Daniels, 
 O. Farkas, J. B. Foresman, J. V. Ortiz, J. Cioslowski, 
 and D. J. Fox, Gaussian, Inc., Wallingford CT, 2013.
 
 ******************************************
 Gaussian 09:  ES64L-G09RevE.01 30-Nov-2015
                31-Mar-2021 
 ******************************************
 %chk=cp.chk
 Default route:  MaxDisk=500GB
 ----------------------------------------------------------------------
 #p TPSSTPSS/def2TZVP opt freq=noraman nosymm int=ultrafine scrf=(SMD,s
 olvent=n,n-DiMethylAcetamide)
 ----------------------------------------------------------------------
 1/14=-1,18=20,19=15,26=4,38=1/1,3;
 2/9=110,12=2,15=1,17=6,18=5,40=1/2;
 3/5=44,7=101,11=2,16=1,25=1,30=1,70=32201,71=1,72=147,74=2523,75=-5/1,2,3;
 4//1;
 5/5=2,38=5,53=147/2;
 6/7=2,8=2,9=2,10=2,28=1/1;
 7/30=1/1,2,3,16;
 1/14=-1,18=20,19=15,26=4/3(2);
 2/9=110,15=1/2;
 99//99;
 2/9=110,15=1/2;
 3/5=44,7=101,11=2,16=1,25=1,30=1,70=32205,71=1,72=147,74=2523,75=-5/1,2,3;
 4/5=5,16=3,69=1/1;
 5/5=2,38=5,53=147/2;
 7/30=1/1,2,3,16;
 1/14=-1,18=20,19=15,26=4/3(-5);
 2/9=110,15=1/2;
 6/7=2,8=2,9=2,10=2,19=2,28=1/1;
 99/9=1/99;
 Leave Link    1 at Wed Mar 31 07:57:52 2021, MaxMem=           0 cpu:         1.1
 (Enter /opt/nce/packages/global/g09/l101.exe)
 -----
 Title
 -----
 Symbolic Z-matrix:
 Charge =  0 Multiplicity = 1
 C                    -4.19564  -2.38189  -0.50941 
 C                    -2.96572  -2.88317  -0.07943 
 C                    -1.89702  -2.02353   0.19069 
 C                    -2.0238   -0.63188  -0.00946 
 C                    -3.26911  -0.1429   -0.44488 
 C                    -4.34124  -1.00549  -0.68093 
 C                     0.41037  -0.16001   0.16694 
 C                     0.77082  -1.5332    0.36826 
 C                     2.08315  -1.94148   0.26378 
 H                     2.32512  -2.99764   0.40619 
 C                     3.13315  -1.01954   0.01023 
 C                     2.79076   0.36067  -0.14814 
 C                     1.42706   0.7515   -0.07619 
 H                    -2.82602  -3.95659   0.06879 
 H                    -3.40422   0.92687  -0.59258 
 H                    -5.29533  -0.58813  -1.0107 
 C                    -1.20918   1.65135   0.2301 
 C                    -1.42502   2.30435   1.44607 
 C                    -1.25127   2.37076  -0.97052 
 C                    -1.68499   3.6773    1.46336 
 C                    -1.51108   3.74235  -0.95079 
 C                    -1.72821   4.39702   0.26622 
 H                    -1.85396   4.18578   2.41532 
 H                    -1.54426   4.30245  -1.88816 
 H                    -1.38581   1.72408   2.36966 
 H                    -1.07865   1.84601  -1.91224 
 H                    -1.93134   5.47032   0.28031 
 H                    -5.02743  -3.06178  -0.7039 
 N                    -0.94104   0.24261   0.23148 
 H                     1.19072   1.80492  -0.21515 
 S                    -0.43433  -2.70736   0.9201 
 C                     3.8311    1.29818  -0.38901 
 C                     5.14661   0.88807  -0.47321 
 H                     5.93565   1.62053  -0.65997 
 C                     4.4939   -1.41288  -0.08081 
 C                     5.48264  -0.47916  -0.31869 
 H                     6.52714  -0.7918   -0.38784 
 H                     4.74624  -2.46945   0.04176 
 H                     3.5715    2.3533   -0.50875 
 
 NAtoms=     39 NQM=       39 NQMF=       0 NMMI=      0 NMMIF=      0
                NMic=       0 NMicF=      0.
                    Isotopes and Nuclear Properties:
 (Nuclear quadrupole moments (NQMom) in fm**2, nuclear magnetic moments (NMagM)
  in nuclear magnetons)

  Atom         1           2           3           4           5           6           7           8           9          10
 IAtWgt=          12          12          12          12          12          12          12          12          12           1
 AtmWgt=  12.0000000  12.0000000  12.0000000  12.0000000  12.0000000  12.0000000  12.0000000  12.0000000  12.0000000   1.0078250
 NucSpn=           0           0           0           0           0           0           0           0           0           1
 AtZEff=   0.0000000   0.0000000   0.0000000   0.0000000   0.0000000   0.0000000   0.0000000   0.0000000   0.0000000   0.0000000
 NQMom=    0.0000000   0.0000000   0.0000000   0.0000000   0.0000000   0.0000000   0.0000000   0.0000000   0.0000000   0.0000000
 NMagM=    0.0000000   0.0000000   0.0000000   0.0000000   0.0000000   0.0000000   0.0000000   0.0000000   0.0000000   2.7928460
 AtZNuc=   6.0000000   6.0000000   6.0000000   6.0000000   6.0000000   6.0000000   6.0000000   6.0000000   6.0000000   1.0000000

  Atom        11          12          13          14          15          16          17          18          19          20
 IAtWgt=          12          12          12           1           1           1          12          12          12          12
 AtmWgt=  12.0000000  12.0000000  12.0000000   1.0078250   1.0078250   1.0078250  12.0000000  12.0000000  12.0000000  12.0000000
 NucSpn=           0           0           0           1           1           1           0           0           0           0
 AtZEff=   0.0000000   0.0000000   0.0000000   0.0000000   0.0000000   0.0000000   0.0000000   0.0000000   0.0000000   0.0000000
 NQMom=    0.0000000   0.0000000   0.0000000   0.0000000   0.0000000   0.0000000   0.0000000   0.0000000   0.0000000   0.0000000
 NMagM=    0.0000000   0.0000000   0.0000000   2.7928460   2.7928460   2.7928460   0.0000000   0.0000000   0.0000000   0.0000000
 AtZNuc=   6.0000000   6.0000000   6.0000000   1.0000000   1.0000000   1.0000000   6.0000000   6.0000000   6.0000000   6.0000000

  Atom        21          22          23          24          25          26          27          28          29          30
 IAtWgt=          12          12           1           1           1           1           1           1          14           1
 AtmWgt=  12.0000000  12.0000000   1.0078250   1.0078250   1.0078250   1.0078250   1.0078250   1.0078250  14.0030740   1.0078250
 NucSpn=           0           0           1           1           1           1           1           1           2           1
 AtZEff=   0.0000000   0.0000000   0.0000000   0.0000000   0.0000000   0.0000000   0.0000000   0.0000000   0.0000000   0.0000000
 NQMom=    0.0000000   0.0000000   0.0000000   0.0000000   0.0000000   0.0000000   0.0000000   0.0000000   2.0440000   0.0000000
 NMagM=    0.0000000   0.0000000   2.7928460   2.7928460   2.7928460   2.7928460   2.7928460   2.7928460   0.4037610   2.7928460
 AtZNuc=   6.0000000   6.0000000   1.0000000   1.0000000   1.0000000   1.0000000   1.0000000   1.0000000   7.0000000   1.0000000

  Atom        31          32          33          34          35          36          37          38          39
 IAtWgt=          32          12          12           1          12          12           1           1           1
 AtmWgt=  31.9720718  12.0000000  12.0000000   1.0078250  12.0000000  12.0000000   1.0078250   1.0078250   1.0078250
 NucSpn=           0           0           0           1           0           0           1           1           1
 AtZEff=   0.0000000   0.0000000   0.0000000   0.0000000   0.0000000   0.0000000   0.0000000   0.0000000   0.0000000
 NQMom=    0.0000000   0.0000000   0.0000000   0.0000000   0.0000000   0.0000000   0.0000000   0.0000000   0.0000000
 NMagM=    0.0000000   0.0000000   0.0000000   2.7928460   0.0000000   0.0000000   2.7928460   2.7928460   2.7928460
 AtZNuc=  16.0000000   6.0000000   6.0000000   1.0000000   6.0000000   6.0000000   1.0000000   1.0000000   1.0000000
 Leave Link  101 at Wed Mar 31 07:57:52 2021, MaxMem=  5242880000 cpu:         4.1
 (Enter /opt/nce/packages/global/g09/l103.exe)

 GradGradGradGradGradGradGradGradGradGradGradGradGradGradGradGradGradGrad
 Berny optimization.
 Initialization pass.
                           ----------------------------
                           !    Initial Parameters    !
                           ! (Angstroms and Degrees)  !
 --------------------------                            --------------------------
 ! Name  Definition              Value          Derivative Info.                !
 --------------------------------------------------------------------------------
 ! R1    R(1,2)                  1.396          estimate D2E/DX2                !
 ! R2    R(1,6)                  1.3947         estimate D2E/DX2                !
 ! R3    R(1,28)                 1.0918         estimate D2E/DX2                !
 ! R4    R(2,3)                  1.3979         estimate D2E/DX2                !
 ! R5    R(2,14)                 1.0926         estimate D2E/DX2                !
 ! R6    R(3,4)                  1.4117         estimate D2E/DX2                !
 ! R7    R(3,31)                 1.7718         estimate D2E/DX2                !
 ! R8    R(4,5)                  1.4069         estimate D2E/DX2                !
 ! R9    R(4,29)                 1.4125         estimate D2E/DX2                !
 ! R10   R(5,6)                  1.3962         estimate D2E/DX2                !
 ! R11   R(5,15)                 1.0883         estimate D2E/DX2                !
 ! R12   R(6,16)                 1.0923         estimate D2E/DX2                !
 ! R13   R(7,8)                  1.4339         estimate D2E/DX2                !
 ! R14   R(7,13)                 1.3869         estimate D2E/DX2                !
 ! R15   R(7,29)                 1.4116         estimate D2E/DX2                !
 ! R16   R(8,9)                  1.3783         estimate D2E/DX2                !
 ! R17   R(8,31)                 1.7707         estimate D2E/DX2                !
 ! R18   R(9,10)                 1.0928         estimate D2E/DX2                !
 ! R19   R(9,11)                 1.4201         estimate D2E/DX2                !
 ! R20   R(11,12)                1.4308         estimate D2E/DX2                !
 ! R21   R(11,35)                1.4194         estimate D2E/DX2                !
 ! R22   R(12,13)                1.4204         estimate D2E/DX2                !
 ! R23   R(12,32)                1.421          estimate D2E/DX2                !
 ! R24   R(13,30)                1.0885         estimate D2E/DX2                !
 ! R25   R(17,18)                1.397          estimate D2E/DX2                !
 ! R26   R(17,19)                1.4003         estimate D2E/DX2                !
 ! R27   R(17,29)                1.434          estimate D2E/DX2                !
 ! R28   R(18,20)                1.3975         estimate D2E/DX2                !
 ! R29   R(18,25)                1.0914         estimate D2E/DX2                !
 ! R30   R(19,21)                1.3961         estimate D2E/DX2                !
 ! R31   R(19,26)                1.0918         estimate D2E/DX2                !
 ! R32   R(20,22)                1.3975         estimate D2E/DX2                !
 ! R33   R(20,23)                1.0924         estimate D2E/DX2                !
 ! R34   R(21,22)                1.3989         estimate D2E/DX2                !
 ! R35   R(21,24)                1.0925         estimate D2E/DX2                !
 ! R36   R(22,27)                1.0924         estimate D2E/DX2                !
 ! R37   R(32,33)                1.3805         estimate D2E/DX2                !
 ! R38   R(32,39)                1.0932         estimate D2E/DX2                !
 ! R39   R(33,34)                1.0927         estimate D2E/DX2                !
 ! R40   R(33,36)                1.4164         estimate D2E/DX2                !
 ! R41   R(35,36)                1.3806         estimate D2E/DX2                !
 ! R42   R(35,38)                1.0932         estimate D2E/DX2                !
 ! R43   R(36,37)                1.0925         estimate D2E/DX2                !
 ! A1    A(2,1,6)              118.9623         estimate D2E/DX2                !
 ! A2    A(2,1,28)             120.1646         estimate D2E/DX2                !
 ! A3    A(6,1,28)             120.8729         estimate D2E/DX2                !
 ! A4    A(1,2,3)              120.814          estimate D2E/DX2                !
 ! A5    A(1,2,14)             120.4785         estimate D2E/DX2                !
 ! A6    A(3,2,14)             118.6994         estimate D2E/DX2                !
 ! A7    A(2,3,4)              120.6758         estimate D2E/DX2                !
 ! A8    A(2,3,31)             118.2522         estimate D2E/DX2                !
 ! A9    A(4,3,31)             120.8639         estimate D2E/DX2                !
 ! A10   A(3,4,5)              117.7741         estimate D2E/DX2                !
 ! A11   A(3,4,29)             121.1512         estimate D2E/DX2                !
 ! A12   A(5,4,29)             121.072          estimate D2E/DX2                !
 ! A13   A(4,5,6)              121.1512         estimate D2E/DX2                !
 ! A14   A(4,5,15)             119.5707         estimate D2E/DX2                !
 ! A15   A(6,5,15)             119.276          estimate D2E/DX2                !
 ! A16   A(1,6,5)              120.5822         estimate D2E/DX2                !
 ! A17   A(1,6,16)             120.3572         estimate D2E/DX2                !
 ! A18   A(5,6,16)             119.0585         estimate D2E/DX2                !
 ! A19   A(8,7,13)             118.0166         estimate D2E/DX2                !
 ! A20   A(8,7,29)             120.4897         estimate D2E/DX2                !
 ! A21   A(13,7,29)            121.49           estimate D2E/DX2                !
 ! A22   A(7,8,9)              120.8207         estimate D2E/DX2                !
 ! A23   A(7,8,31)             120.5098         estimate D2E/DX2                !
 ! A24   A(9,8,31)             118.3726         estimate D2E/DX2                !
 ! A25   A(8,9,10)             119.1562         estimate D2E/DX2                !
 ! A26   A(8,9,11)             121.6819         estimate D2E/DX2                !
 ! A27   A(10,9,11)            119.1414         estimate D2E/DX2                !
 ! A28   A(9,11,12)            117.9732         estimate D2E/DX2                !
 ! A29   A(9,11,35)            122.7091         estimate D2E/DX2                !
 ! A30   A(12,11,35)           119.3161         estimate D2E/DX2                !
 ! A31   A(11,12,13)           119.3106         estimate D2E/DX2                !
 ! A32   A(11,12,32)           118.6841         estimate D2E/DX2                !
 ! A33   A(13,12,32)           122.0012         estimate D2E/DX2                !
 ! A34   A(7,13,12)            122.1282         estimate D2E/DX2                !
 ! A35   A(7,13,30)            119.95           estimate D2E/DX2                !
 ! A36   A(12,13,30)           117.9215         estimate D2E/DX2                !
 ! A37   A(18,17,19)           120.1002         estimate D2E/DX2                !
 ! A38   A(18,17,29)           119.1597         estimate D2E/DX2                !
 ! A39   A(19,17,29)           120.7397         estimate D2E/DX2                !
 ! A40   A(17,18,20)           119.9172         estimate D2E/DX2                !
 ! A41   A(17,18,25)           118.8481         estimate D2E/DX2                !
 ! A42   A(20,18,25)           121.2346         estimate D2E/DX2                !
 ! A43   A(17,19,21)           119.8815         estimate D2E/DX2                !
 ! A44   A(17,19,26)           119.2006         estimate D2E/DX2                !
 ! A45   A(21,19,26)           120.9179         estimate D2E/DX2                !
 ! A46   A(18,20,22)           120.075          estimate D2E/DX2                !
 ! A47   A(18,20,23)           119.7928         estimate D2E/DX2                !
 ! A48   A(22,20,23)           120.1322         estimate D2E/DX2                !
 ! A49   A(19,21,22)           120.0634         estimate D2E/DX2                !
 ! A50   A(19,21,24)           119.8155         estimate D2E/DX2                !
 ! A51   A(22,21,24)           120.1211         estimate D2E/DX2                !
 ! A52   A(20,22,21)           119.9626         estimate D2E/DX2                !
 ! A53   A(20,22,27)           120.0454         estimate D2E/DX2                !
 ! A54   A(21,22,27)           119.9921         estimate D2E/DX2                !
 ! A55   A(4,29,7)             123.3324         estimate D2E/DX2                !
 ! A56   A(4,29,17)            117.6902         estimate D2E/DX2                !
 ! A57   A(7,29,17)            117.3331         estimate D2E/DX2                !
 ! A58   A(3,31,8)             100.2322         estimate D2E/DX2                !
 ! A59   A(12,32,33)           120.7965         estimate D2E/DX2                !
 ! A60   A(12,32,39)           118.7836         estimate D2E/DX2                !
 ! A61   A(33,32,39)           120.4198         estimate D2E/DX2                !
 ! A62   A(32,33,34)           119.9604         estimate D2E/DX2                !
 ! A63   A(32,33,36)           120.4091         estimate D2E/DX2                !
 ! A64   A(34,33,36)           119.6305         estimate D2E/DX2                !
 ! A65   A(11,35,36)           120.678          estimate D2E/DX2                !
 ! A66   A(11,35,38)           118.8125         estimate D2E/DX2                !
 ! A67   A(36,35,38)           120.5095         estimate D2E/DX2                !
 ! A68   A(33,36,35)           120.1158         estimate D2E/DX2                !
 ! A69   A(33,36,37)           119.7465         estimate D2E/DX2                !
 ! A70   A(35,36,37)           120.1377         estimate D2E/DX2                !
 ! D1    D(6,1,2,3)              0.6868         estimate D2E/DX2                !
 ! D2    D(6,1,2,14)           179.6359         estimate D2E/DX2                !
 ! D3    D(28,1,2,3)          -179.141          estimate D2E/DX2                !
 ! D4    D(28,1,2,14)           -0.1918         estimate D2E/DX2                !
 ! D5    D(2,1,6,5)              0.8949         estimate D2E/DX2                !
 ! D6    D(2,1,6,16)          -179.6307         estimate D2E/DX2                !
 ! D7    D(28,1,6,5)          -179.2786         estimate D2E/DX2                !
 ! D8    D(28,1,6,16)            0.1958         estimate D2E/DX2                !
 ! D9    D(1,2,3,4)             -2.1877         estimate D2E/DX2                !
 ! D10   D(1,2,3,31)           172.6155         estimate D2E/DX2                !
 ! D11   D(14,2,3,4)           178.8447         estimate D2E/DX2                !
 ! D12   D(14,2,3,31)           -6.3521         estimate D2E/DX2                !
 ! D13   D(2,3,4,5)              2.04           estimate D2E/DX2                !
 ! D14   D(2,3,4,29)          -178.5576         estimate D2E/DX2                !
 ! D15   D(31,3,4,5)          -172.6267         estimate D2E/DX2                !
 ! D16   D(31,3,4,29)            6.7757         estimate D2E/DX2                !
 ! D17   D(2,3,31,8)           154.7103         estimate D2E/DX2                !
 ! D18   D(4,3,31,8)           -30.4967         estimate D2E/DX2                !
 ! D19   D(3,4,5,6)             -0.4667         estimate D2E/DX2                !
 ! D20   D(3,4,5,15)           178.9866         estimate D2E/DX2                !
 ! D21   D(29,4,5,6)          -179.8696         estimate D2E/DX2                !
 ! D22   D(29,4,5,15)           -0.4163         estimate D2E/DX2                !
 ! D23   D(3,4,29,7)            25.5814         estimate D2E/DX2                !
 ! D24   D(3,4,29,17)         -169.4462         estimate D2E/DX2                !
 ! D25   D(5,4,29,7)          -155.0359         estimate D2E/DX2                !
 ! D26   D(5,4,29,17)            9.9364         estimate D2E/DX2                !
 ! D27   D(4,5,6,1)             -1.001          estimate D2E/DX2                !
 ! D28   D(4,5,6,16)           179.5179         estimate D2E/DX2                !
 ! D29   D(15,5,6,1)           179.5441         estimate D2E/DX2                !
 ! D30   D(15,5,6,16)            0.063          estimate D2E/DX2                !
 ! D31   D(13,7,8,9)            -2.8201         estimate D2E/DX2                !
 ! D32   D(13,7,8,31)          170.8201         estimate D2E/DX2                !
 ! D33   D(29,7,8,9)           177.8728         estimate D2E/DX2                !
 ! D34   D(29,7,8,31)           -8.487          estimate D2E/DX2                !
 ! D35   D(8,7,13,12)            0.9038         estimate D2E/DX2                !
 ! D36   D(8,7,13,30)         -178.8672         estimate D2E/DX2                !
 ! D37   D(29,7,13,12)        -179.7964         estimate D2E/DX2                !
 ! D38   D(29,7,13,30)           0.4326         estimate D2E/DX2                !
 ! D39   D(8,7,29,4)           -24.5163         estimate D2E/DX2                !
 ! D40   D(8,7,29,17)          170.4615         estimate D2E/DX2                !
 ! D41   D(13,7,29,4)          156.2011         estimate D2E/DX2                !
 ! D42   D(13,7,29,17)          -8.8212         estimate D2E/DX2                !
 ! D43   D(7,8,9,10)          -178.9905         estimate D2E/DX2                !
 ! D44   D(7,8,9,11)             2.6731         estimate D2E/DX2                !
 ! D45   D(31,8,9,10)            7.2363         estimate D2E/DX2                !
 ! D46   D(31,8,9,11)         -171.1001         estimate D2E/DX2                !
 ! D47   D(7,8,31,3)            31.2111         estimate D2E/DX2                !
 ! D48   D(9,8,31,3)          -154.9956         estimate D2E/DX2                !
 ! D49   D(8,9,11,12)           -0.547          estimate D2E/DX2                !
 ! D50   D(8,9,11,35)          178.9908         estimate D2E/DX2                !
 ! D51   D(10,9,11,12)        -178.8837         estimate D2E/DX2                !
 ! D52   D(10,9,11,35)           0.6542         estimate D2E/DX2                !
 ! D53   D(9,11,12,13)          -1.3461         estimate D2E/DX2                !
 ! D54   D(9,11,12,32)         179.3767         estimate D2E/DX2                !
 ! D55   D(35,11,12,13)        179.0998         estimate D2E/DX2                !
 ! D56   D(35,11,12,32)         -0.1774         estimate D2E/DX2                !
 ! D57   D(9,11,35,36)        -179.4931         estimate D2E/DX2                !
 ! D58   D(9,11,35,38)           0.4509         estimate D2E/DX2                !
 ! D59   D(12,11,35,36)          0.0388         estimate D2E/DX2                !
 ! D60   D(12,11,35,38)        179.9828         estimate D2E/DX2                !
 ! D61   D(11,12,13,7)           1.1526         estimate D2E/DX2                !
 ! D62   D(11,12,13,30)       -179.0719         estimate D2E/DX2                !
 ! D63   D(32,12,13,7)        -179.5952         estimate D2E/DX2                !
 ! D64   D(32,12,13,30)          0.1803         estimate D2E/DX2                !
 ! D65   D(11,12,32,33)          0.1972         estimate D2E/DX2                !
 ! D66   D(11,12,32,39)       -179.9081         estimate D2E/DX2                !
 ! D67   D(13,12,32,33)       -179.0596         estimate D2E/DX2                !
 ! D68   D(13,12,32,39)          0.8351         estimate D2E/DX2                !
 ! D69   D(19,17,18,20)          0.0832         estimate D2E/DX2                !
 ! D70   D(19,17,18,25)       -179.894          estimate D2E/DX2                !
 ! D71   D(29,17,18,20)        179.8725         estimate D2E/DX2                !
 ! D72   D(29,17,18,25)         -0.1047         estimate D2E/DX2                !
 ! D73   D(18,17,19,21)         -0.0787         estimate D2E/DX2                !
 ! D74   D(18,17,19,26)        179.8883         estimate D2E/DX2                !
 ! D75   D(29,17,19,21)       -179.8646         estimate D2E/DX2                !
 ! D76   D(29,17,19,26)          0.1025         estimate D2E/DX2                !
 ! D77   D(18,17,29,4)          96.9081         estimate D2E/DX2                !
 ! D78   D(18,17,29,7)         -97.2062         estimate D2E/DX2                !
 ! D79   D(19,17,29,4)         -83.304          estimate D2E/DX2                !
 ! D80   D(19,17,29,7)          82.5816         estimate D2E/DX2                !
 ! D81   D(17,18,20,22)         -0.0463         estimate D2E/DX2                !
 ! D82   D(17,18,20,23)        179.9702         estimate D2E/DX2                !
 ! D83   D(25,18,20,22)        179.9304         estimate D2E/DX2                !
 ! D84   D(25,18,20,23)         -0.0531         estimate D2E/DX2                !
 ! D85   D(17,19,21,22)          0.0372         estimate D2E/DX2                !
 ! D86   D(17,19,21,24)       -179.9635         estimate D2E/DX2                !
 ! D87   D(26,19,21,22)       -179.9293         estimate D2E/DX2                !
 ! D88   D(26,19,21,24)          0.07           estimate D2E/DX2                !
 ! D89   D(18,20,22,21)          0.0049         estimate D2E/DX2                !
 ! D90   D(18,20,22,27)       -179.9911         estimate D2E/DX2                !
 ! D91   D(23,20,22,21)        179.9883         estimate D2E/DX2                !
 ! D92   D(23,20,22,27)         -0.0076         estimate D2E/DX2                !
 ! D93   D(19,21,22,20)         -0.0003         estimate D2E/DX2                !
 ! D94   D(19,21,22,27)        179.9956         estimate D2E/DX2                !
 ! D95   D(24,21,22,20)       -179.9996         estimate D2E/DX2                !
 ! D96   D(24,21,22,27)         -0.0037         estimate D2E/DX2                !
 ! D97   D(12,32,33,34)        179.9338         estimate D2E/DX2                !
 ! D98   D(12,32,33,36)         -0.0763         estimate D2E/DX2                !
 ! D99   D(39,32,33,34)          0.0409         estimate D2E/DX2                !
 ! D100  D(39,32,33,36)       -179.9693         estimate D2E/DX2                !
 ! D101  D(32,33,36,35)         -0.0674         estimate D2E/DX2                !
 ! D102  D(32,33,36,37)        179.9713         estimate D2E/DX2                !
 ! D103  D(34,33,36,35)        179.9225         estimate D2E/DX2                !
 ! D104  D(34,33,36,37)         -0.0388         estimate D2E/DX2                !
 ! D105  D(11,35,36,33)          0.0849         estimate D2E/DX2                !
 ! D106  D(11,35,36,37)       -179.9539         estimate D2E/DX2                !
 ! D107  D(38,35,36,33)       -179.8582         estimate D2E/DX2                !
 ! D108  D(38,35,36,37)          0.103          estimate D2E/DX2                !
 --------------------------------------------------------------------------------
 Trust Radius=3.00D-01 FncErr=1.00D-07 GrdErr=1.00D-06
 Number of steps in this run=    231 maximum allowed number of steps=    234.
 GradGradGradGradGradGradGradGradGradGradGradGradGradGradGradGradGradGrad

 Leave Link  103 at Wed Mar 31 07:57:52 2021, MaxMem=  5242880000 cpu:         0.2
 (Enter /opt/nce/packages/global/g09/l202.exe)
                          Input orientation:                          
 ---------------------------------------------------------------------
 Center     Atomic      Atomic             Coordinates (Angstroms)
 Number     Number       Type             X           Y           Z
 ---------------------------------------------------------------------
      1          6           0       -4.195640   -2.381889   -0.509409
      2          6           0       -2.965719   -2.883167   -0.079432
      3          6           0       -1.897024   -2.023528    0.190694
      4          6           0       -2.023805   -0.631880   -0.009455
      5          6           0       -3.269114   -0.142903   -0.444877
      6          6           0       -4.341245   -1.005492   -0.680932
      7          6           0        0.410374   -0.160012    0.166936
      8          6           0        0.770816   -1.533199    0.368262
      9          6           0        2.083152   -1.941475    0.263775
     10          1           0        2.325117   -2.997641    0.406185
     11          6           0        3.133153   -1.019539    0.010227
     12          6           0        2.790763    0.360674   -0.148140
     13          6           0        1.427059    0.751503   -0.076188
     14          1           0       -2.826023   -3.956585    0.068790
     15          1           0       -3.404222    0.926870   -0.592576
     16          1           0       -5.295333   -0.588129   -1.010701
     17          6           0       -1.209177    1.651351    0.230103
     18          6           0       -1.425016    2.304349    1.446070
     19          6           0       -1.251269    2.370763   -0.970518
     20          6           0       -1.684993    3.677298    1.463358
     21          6           0       -1.511081    3.742351   -0.950786
     22          6           0       -1.728209    4.397023    0.266220
     23          1           0       -1.853956    4.185776    2.415315
     24          1           0       -1.544263    4.302451   -1.888163
     25          1           0       -1.385807    1.724078    2.369655
     26          1           0       -1.078654    1.846005   -1.912236
     27          1           0       -1.931338    5.470316    0.280309
     28          1           0       -5.027429   -3.061776   -0.703902
     29          7           0       -0.941038    0.242611    0.231476
     30          1           0        1.190722    1.804919   -0.215152
     31         16           0       -0.434327   -2.707364    0.920097
     32          6           0        3.831095    1.298177   -0.389013
     33          6           0        5.146614    0.888074   -0.473214
     34          1           0        5.935646    1.620526   -0.659970
     35          6           0        4.493900   -1.412883   -0.080814
     36          6           0        5.482637   -0.479160   -0.318692
     37          1           0        6.527138   -0.791798   -0.387838
     38          1           0        4.746237   -2.469452    0.041762
     39          1           0        3.571500    2.353304   -0.508745
 ---------------------------------------------------------------------
                    Distance matrix (angstroms):
                    1          2          3          4          5
     1  C    0.000000
     2  C    1.396018   0.000000
     3  C    2.429445   1.397876   0.000000
     4  C    2.833611   2.441391   1.411672   0.000000
     5  C    2.423979   2.781123   2.413158   1.406942   0.000000
     6  C    1.394665   2.404067   2.787534   2.441515   1.396154
     7  C    5.158444   4.344453   2.966031   2.485760   3.730046
     8  C    5.114320   3.998067   2.718331   2.960566   4.349155
     9  C    6.341530   5.147395   3.981692   4.319351   5.690677
    10  H    6.613451   5.314308   4.338411   4.968169   6.337922
    11  C    7.472431   6.377883   5.132567   5.171545   6.478012
    12  C    7.514120   6.607898   5.270159   4.917770   6.088001
    13  C    6.451401   5.701520   4.338381   3.718422   4.794782
    14  H    2.165602   1.092571   2.148164   3.421014   3.873545
    15  H    3.403108   3.869365   3.404410   2.162240   1.088340
    16  H    2.162913   3.400230   3.879720   3.421594   2.150336
    17  C    5.072757   4.872690   3.738907   2.436011   2.813945
    18  C    5.784555   5.622388   4.530925   3.331447   3.600753
    19  C    5.609781   5.597960   4.590774   3.245970   3.265963
    20  C    6.849008   6.860041   5.845002   4.566507   4.554639
    21  C    6.701342   6.839058   5.890440   4.503653   4.294394
    22  C    7.255582   7.392704   6.423214   5.045120   4.846749
    23  H    7.561198   7.578241   6.595927   5.396125   5.377809
    24  H    7.321964   7.544876   6.668140   5.301615   4.981903
    25  H    5.748316   5.451684   4.365062   3.408481   3.867047
    26  H    5.436783   5.411585   4.479434   3.264016   3.302577
    27  H    8.210228   8.424965   7.494458   6.109772   5.815820
    28  H    1.091763   2.161599   3.417264   3.925355   3.417395
    29  N    4.246098   3.737176   2.459870   1.412504   2.454794
    30  H    6.828532   6.266783   4.935169   4.038995   4.872055
    31  S    4.036942   2.727253   1.771763   2.774552   4.059019
    32  C    8.830960   7.985998   6.646889   6.176491   7.245192
    33  C    9.898064   8.954734   7.650558   7.344402   8.478691
    34  H   10.894262   9.992726   8.680638   8.297552   9.374623
    35  C    8.753900   7.603134   6.425769   6.564719   7.874629
    36  C    9.865384   8.786991   7.556715   7.514361   8.759117
    37  H   10.840717   9.725393   8.533368   8.560804   9.817885
    38  H    8.959276   7.723996   6.659876   7.015181   8.360353
    39  H    9.096731   8.386905   7.039221   6.361450   7.282110
                    6          7          8          9         10
     6  C    0.000000
     7  C    4.900163   0.000000
     8  C    5.245231   1.433908   0.000000
     9  C    6.560595   2.445644   1.378344   0.000000
    10  H    7.042078   3.431562   2.135856   1.092847   0.000000
    11  C    7.506299   2.859523   2.443905   1.420125   2.173153
    12  C    7.281196   2.456957   2.816667   2.443415   3.435460
    13  C    6.060204   1.386945   2.418275   2.792519   3.885264
    14  H    3.401019   4.989776   4.347382   5.310244   5.250491
    15  H    2.149382   4.038479   4.940252   6.250761   7.016027
    16  H    1.092348   5.841678   6.292286   7.609065   8.116931
    17  C    4.206976   2.430632   3.752442   4.873291   5.842548
    18  C    4.897303   3.328350   4.550838   5.633124   6.576926
    19  C    4.585947   3.234143   4.595876   5.589028   6.595878
    20  C    5.795013   4.560287   5.863404   6.870846   7.858334
    21  C    5.533955   4.491072   5.897319   6.833707   7.873073
    22  C    6.075543   5.034875   6.436076   7.396150   8.433866
    23  H    6.536254   5.391500   6.617139   7.594284   8.550014
    24  H    6.120031   5.287496   6.671271   7.534958   8.574816
    25  H    5.048886   3.409990   4.389356   5.468518   6.318291
    26  H    4.504625   3.250271   4.476632   5.392314   6.357801
    27  H    6.976226   6.098939   7.507236   8.429178   9.478373
    28  H    2.167875   6.224813   6.091447   7.263046   7.436151
    29  N    3.735192   1.411590   2.470355   3.730550   4.604077
    30  H    6.222381   2.148462   3.414634   3.880885   4.973680
    31  S    4.552326   2.787431   1.770750   2.712019   2.821861
    32  C    8.495837   3.759884   4.237389   3.738553   4.621078
    33  C    9.677200   4.892877   5.071317   4.234891   4.881902
    34  H   10.607115   5.863678   6.138299   5.327557   5.958194
    35  C    8.864869   4.278580   3.751999   2.491958   2.729880
    36  C    9.844638   5.105442   4.876901   3.746216   4.103429
    37  H   10.874434   6.174280   5.852914   4.636310   4.811777
    38  H    9.232973   4.914152   4.097212   2.723981   2.504718
    39  H    8.597831   4.094633   4.870100   4.610542   5.569846
                   11         12         13         14         15
    11  C    0.000000
    12  C    1.430839   0.000000
    13  C    2.460653   1.420427   0.000000
    14  H    6.643903   7.087600   6.346323   0.000000
    15  H    6.847565   6.236661   4.861963   4.961840   0.000000
    16  H    8.501046   8.187135   6.917983   4.313848   2.458933
    17  C    5.102728   4.220004   2.802371   5.838592   2.453548
    18  C    5.821235   4.908378   3.586493   6.561937   3.157655
    19  C    5.628425   4.588549   3.255038   6.602677   2.619709
    20  C    6.883778   5.799079   4.540413   7.843656   3.840243
    21  C    6.720718   5.530447   4.282845   7.876689   3.411632
    22  C    7.282686   6.073295   4.833506   8.427748   3.948229
    23  H    7.599408   6.540346   5.363476   8.529310   4.698000
    24  H    7.335236   6.112098   4.972046   8.583953   4.066023
    25  H    5.789243   5.063783   3.852306   6.295882   3.672105
    26  H    5.444862   4.504512   3.293570   6.375564   2.827469
    27  H    8.236518   6.970671   5.802854   9.471624   4.855329
    28  H    8.442500   8.552553   7.523001   2.498785   4.307725
    29  N    4.270949   3.752917   2.441621   4.605744   2.685991
    30  H    3.435316   2.156494   1.088509   7.029210   4.693286
    31  S    4.050127   4.577684   4.052296   2.829397   4.931137
    32  C    2.453227   1.420993   2.485176   8.493487   7.247697
    33  C    2.815445   2.435951   3.743177   9.344915   8.551757
    34  H    3.908078   3.426293   4.628537  10.411633   9.365833
    35  C    1.419380   2.459820   3.753678   7.750747   8.253283
    36  C    2.433161   2.824995   4.245121   9.015346   9.001566
    37  H    3.424829   3.917416   5.337575   9.884635  10.081054
    38  H    2.169166   3.445222   4.626598   7.716956   8.852535
    39  H    3.440574   2.170290   2.711365   9.004252   7.120565
                   16         17         18         19         20
    16  H    0.000000
    17  C    4.821985   0.000000
    18  C    5.420471   1.396986   0.000000
    19  C    5.011099   1.400291   2.423736   0.000000
    20  C    6.111415   2.419045   1.397453   2.796230   0.000000
    21  C    5.751279   2.420315   2.796458   1.396118   2.421274
    22  C    6.261521   2.794533   2.421416   2.421306   1.397502
    23  H    6.809613   3.407961   2.159443   3.888620   1.092392
    24  H    6.225611   3.409936   3.888925   2.158550   3.412230
    25  H    5.661934   2.148062   1.091449   3.404858   2.173926
    26  H    4.951581   2.155120   3.407090   1.091787   3.887919
    27  H    7.048966   3.886969   3.411555   3.410908   2.162222
    28  H    2.506956   6.137180   6.811392   6.621401   7.828411
    29  N    4.603587   1.434032   2.441360   2.463750   3.723987
    30  H    6.959058   2.445680   3.138658   2.618029   3.820070
    31  S    5.643449   4.480500   5.135697   5.479890   6.528645
    32  C    9.340039   5.090420   5.657439   5.226759   6.286392
    33  C   10.559466   6.439979   6.991123   6.586242   7.628954
    34  H   11.451465   7.200116   7.686505   7.232637   8.173920
    35  C    9.867826   6.481611   7.154212   6.936463   8.153105
    36  C   10.800712   7.044191   7.653625   7.341146   8.475067
    37  H   11.840619   8.136424   8.728465   8.416943   9.530941
    38  H   10.270355   7.244546   7.927523   7.773189   9.009117
    39  H    9.355464   4.888099   5.365526   4.844857   5.768264
                   21         22         23         24         25
    21  C    0.000000
    22  C    1.398872   0.000000
    23  H    3.412451   2.163110   0.000000
    24  H    1.092469   2.164289   4.316184   0.000000
    25  H    3.887730   3.418525   2.506233   4.980174   0.000000
    26  H    2.169679   3.416912   4.980293   2.500300   4.294625
    27  H    2.162886   1.092437   2.492846   2.493192   4.324034
    28  H    7.663015   8.213384   8.504555   8.232057   6.753707
    29  N    3.737763   4.228473   4.599035   4.619421   2.639010
    30  H    3.405076   3.933304   4.675243   4.064084   3.650516
    31  S    6.801355   7.250793   7.194887   7.632548   4.758593
    32  C    5.901561   6.398284   6.965794   6.337790   5.916731
    33  C    7.259468   7.753881   8.259928   7.643814   7.173098
    34  H    7.748578   8.203745   8.758755   8.040536   7.924205
    35  C    7.961977   8.519981   8.824450   8.508288   7.100442
    36  C    8.193460   8.724424   9.113837   8.643169   7.697856
    37  H    9.245993   9.772533  10.142813   9.661773   8.749177
    38  H    8.872749   9.440197   9.668938   9.442122   7.785033
    39  H    5.287483   5.732737   6.429903   5.645618   5.766802
                   26         27         28         29         30
    26  H    0.000000
    27  H    4.320874   0.000000
    28  H    6.413985   9.129679   0.000000
    29  N    2.680543   5.320900   5.337836   0.000000
    30  H    2.834052   4.840235   7.911321   2.680426   0.000000
    31  S    5.400966   8.338155   4.884626   3.071369   4.928516
    32  C    5.169716   7.145654   9.878350   4.926711   2.694176
    33  C    6.460834   8.465350  10.916304   6.162201   4.068941
    34  H    7.128774   8.808771  11.921195   7.069803   4.769294
    35  C    6.710277   9.422978   9.683119   5.690056   4.613381
    36  C    7.141170   9.524815  10.829579   6.487468   4.862949
    37  H    8.193282  10.545440  11.779674   7.564866   5.937179
    38  H    7.508038  10.377226   9.819950   6.303679   5.565783
    39  H    4.883756   6.373350  10.163796   5.036462   2.460696
                   31         32         33         34         35
    31  S    0.000000
    32  C    5.995995   0.000000
    33  C    6.783465   1.380531   0.000000
    34  H    7.861539   2.146267   1.092673   0.000000
    35  C    5.192776   2.807872   2.423720   3.408170   0.000000
    36  C    6.442822   2.427234   1.416375   2.174941   1.380589
    37  H    7.337716   3.411253   2.176030   2.498645   2.148038
    38  H    5.259878   3.901036   3.420304   4.316832   1.093177
    39  H    6.610492   1.093169   2.151545   2.479722   3.901040
                   36         37         38         39
    36  C    0.000000
    37  H    1.092477   0.000000
    38  H    2.152551   2.484087   0.000000
    39  H    3.422195   4.317648   4.994201   0.000000
 Symmetry turned off by external request.
 Stoichiometry    C22H15NS
 Framework group  C1[X(C22H15NS)]
 Deg. of freedom   111
 Full point group                 C1      NOp   1
 Rotational constants (GHZ):      0.3129755      0.1882478      0.1258670
 Leave Link  202 at Wed Mar 31 07:57:52 2021, MaxMem=  5242880000 cpu:         0.6
 (Enter /opt/nce/packages/global/g09/l301.exe)
 Standard basis: def2TZVP (5D, 7F)
 Ernie: Thresh=  0.10000D-02 Tol=  0.10000D-05 Strict=F.
   840 basis functions,  1362 primitive gaussians,   960 cartesian basis functions
    85 alpha electrons       85 beta electrons
       nuclear repulsion energy      1999.4749647159 Hartrees.
 IExCor= 2523 DFT=T Ex=TPSS Corr=TPSS ExCW=0 ScaHFX=  0.000000
 ScaDFX=  1.000000  1.000000  1.000000  1.000000 ScalE2=  1.000000  1.000000
 IRadAn=      5 IRanWt=     -1 IRanGd=            0 ICorTp=0 IEmpDi=  4
 NAtoms=   39 NActive=   39 NUniq=   39 SFac= 1.00D+00 NAtFMM=   60 NAOKFM=F Big=F
 Integral buffers will be    131072 words long.
 Raffenetti 2 integral format.
 Two-electron integral symmetry is turned off.
 ------------------------------------------------------------------------------
 Polarizable Continuum Model (PCM)
 =================================
 Model                : PCM (using non-symmetric T matrix).
 Atomic radii         : SMD-Coulomb.
 Polarization charges : Total charges.
 Charge compensation  : None.
 Solution method      : On-the-fly selection.
 Cavity type          : VdW (van der Waals Surface) (Alpha=1.000).
 Cavity algorithm     : GePol (No added spheres)
                        Default sphere list used, NSphG=   39.
                        Lebedev-Laikov grids with approx.  5.0 points / Ang**2.
                        Smoothing algorithm: York/Karplus (Gamma=1.0000).
                        Polarization charges: spherical gaussians, with
                                              point-specific exponents (IZeta= 3).
                        Self-potential: point-specific (ISelfS= 7).
                        Self-field    : sphere-specific E.n sum rule (ISelfD= 2).
 1st derivatives      : Analytical E(r).r(x)/FMM algorithm (CHGder, D1EAlg=3).
                        Cavity 1st derivative terms included.
 Solvent              : n,n-DiMethylAcetamide, Eps=  37.781000 Eps(inf)=   2.067844
 ------------------------------------------------------------------------------
 GePol: Number of generator spheres                  =      39
 GePol: Total number of spheres                      =      39
 GePol: Number of exposed spheres                    =      39 (100.00%)
 GePol: Number of points                             =    3047
 GePol: Average weight of points                     =       0.11
 GePol: Minimum weight of points                     =   0.64D-10
 GePol: Maximum weight of points                     =    0.19854
 GePol: Number of points with low weight             =     166
 GePol: Fraction of low-weight points (<1% of avg)   =       5.45%
 GePol: Cavity surface area                          =    340.370 Ang**2
 GePol: Cavity volume                                =    342.163 Ang**3
 ------------------------------------------------------------------------------
 Atomic radii for non-electrostatic terms: SMD-CDS.
 ------------------------------------------------------------------------------
 PCM non-electrostatic energy =        -0.0064338808 Hartrees.
 Nuclear repulsion after PCM non-electrostatic terms =     1999.4685308351 Hartrees.
 Leave Link  301 at Wed Mar 31 07:57:53 2021, MaxMem=  5242880000 cpu:         2.8
 (Enter /opt/nce/packages/global/g09/l302.exe)
 NPDir=0 NMtPBC=     1 NCelOv=     1 NCel=       1 NClECP=     1 NCelD=      1
         NCelK=      1 NCelE2=     1 NClLst=     1 CellRange=     0.0.
 One-electron integrals computed using PRISM.
   1 Symmetry operations used in ECPInt.
 ECPInt:  NShTT=   53301 NPrTT=  167340 LenC2=   45736 LenP2D=  100262.
 LDataN:  DoStor=T MaxTD1= 6 Len=  172
 NBasis=   840 RedAO= T EigKep=  4.60D-06  NBF=   840
 NBsUse=   840 1.00D-06 EigRej= -1.00D+00 NBFU=   840
 Precomputing XC quadrature grid using
 IXCGrd= 4 IRadAn=           5 IRanWt=          -1 IRanGd=           0 AccXCQ= 0.00D+00.
 Generated NRdTot=       0 NPtTot=           0 NUsed=           0 NTot=          32
 NSgBfM=   944   944   944   944   944 MxSgAt=    39 MxSgA2=    39.
 Leave Link  302 at Wed Mar 31 07:57:55 2021, MaxMem=  5242880000 cpu:        28.1
 (Enter /opt/nce/packages/global/g09/l303.exe)
 DipDrv:  MaxL=1.
 Leave Link  303 at Wed Mar 31 07:57:56 2021, MaxMem=  5242880000 cpu:         2.7
 (Enter /opt/nce/packages/global/g09/l401.exe)
 ExpMin= 9.52D-02 ExpMax= 6.07D+04 ExpMxC= 2.07D+03 IAcc=3 IRadAn=         5 AccDes= 0.00D+00
 Harris functional with IExCor= 1009 and IRadAn=       5 diagonalized for initial guess.
 HarFok:  IExCor= 1009 AccDes= 0.00D+00 IRadAn=         5 IDoV= 1 UseB2=F ITyADJ=14
 ICtDFT=  3500011 ScaDFX=  1.000000  1.000000  1.000000  1.000000
 FoFCou: FMM=F IPFlag=           0 FMFlag=      100000 FMFlg1=           0
         NFxFlg=           0 DoJE=T BraDBF=F KetDBF=T FulRan=T
         wScrn=  0.000000 ICntrl=     500 IOpCl=  0 I1Cent=   200000004 NGrid=           0
         NMat0=    1 NMatS0=      1 NMatT0=    0 NMatD0=    1 NMtDS0=    0 NMtDT0=    0
 Symmetry not used in FoFCou.
 Harris En= -1299.68201470403    
 JPrj=0 DoOrth=F DoCkMO=F.
 Leave Link  401 at Wed Mar 31 07:58:04 2021, MaxMem=  5242880000 cpu:        88.0
 (Enter /opt/nce/packages/global/g09/l502.exe)
 Closed shell SCF:
 Using DIIS extrapolation, IDIIS=  1040.
 Two-electron integral symmetry not used.
 IVT=     2800708 IEndB=     2800708 NGot=  5242880000 MDV=  5241018493
 LenX=  5241018493 LenY=  5240095933
 Requested convergence on RMS density matrix=1.00D-08 within 128 cycles.
 Requested convergence on MAX density matrix=1.00D-06.
 Requested convergence on             energy=1.00D-06.
 No special actions if energy rises.
 Fock matrices will be formed incrementally for  20 cycles.

 Cycle   1  Pass 1  IDiag  1:
 FoFJK:  IHMeth= 1 ICntrl=     500 DoSepK=F KAlg= 0 I1Cent=   0 FoldK=F
 IRaf= 750000000 NMat=   1 IRICut=       1 DoRegI=T DoRafI=F ISym2E= 0.
 FoFCou: FMM=F IPFlag=           0 FMFlag=      100000 FMFlg1=           0
         NFxFlg=           0 DoJE=T BraDBF=F KetDBF=F FulRan=T
         wScrn=  0.000000 ICntrl=     500 IOpCl=  0 I1Cent=           0 NGrid=           0
         NMat0=    1 NMatS0=      1 NMatT0=    0 NMatD0=    1 NMtDS0=    0 NMtDT0=    0
 Symmetry not used in FoFCou.
 Inv3:  Mode=1 IEnd=    27852627.
 Iteration    1 A*A^-1 deviation from unit magnitude is 6.66D-15 for   3047.
 Iteration    1 A*A^-1 deviation from orthogonality  is 3.87D-15 for   1379   1250.
 Iteration    1 A^-1*A deviation from unit magnitude is 6.66D-15 for   3047.
 Iteration    1 A^-1*A deviation from orthogonality  is 1.84D-08 for   2066   2059.
 Iteration    2 A*A^-1 deviation from unit magnitude is 3.11D-15 for    224.
 Iteration    2 A*A^-1 deviation from orthogonality  is 3.58D-15 for    136    118.
 Iteration    2 A^-1*A deviation from unit magnitude is 1.22D-15 for   2973.
 Iteration    2 A^-1*A deviation from orthogonality  is 8.13D-16 for   3018    122.
 E= -1300.35037552936    
 DIIS: error= 1.54D-02 at cycle   1 NSaved=   1.
 NSaved= 1 IEnMin= 1 EnMin= -1300.35037552936     IErMin= 1 ErrMin= 1.54D-02
 ErrMax= 1.54D-02  0.00D+00 EMaxC= 1.00D-01 BMatC= 5.42D-01 BMatP= 5.42D-01
 IDIUse=3 WtCom= 8.46D-01 WtEn= 1.54D-01
 Coeff-Com:  0.100D+01
 Coeff-En:   0.100D+01
 Coeff:      0.100D+01
 Gap=     0.196 Goal=   None    Shift=    0.000
 GapD=    0.196 DampG=1.000 DampE=0.500 DampFc=0.5000 IDamp=-1.
 Damping current iteration by 5.00D-01
 RMSDP=2.78D-03 MaxDP=1.29D-01              OVMax= 3.30D-01

 Cycle   2  Pass 1  IDiag  1:
 RMSU=  1.38D-03    CP:  9.73D-01
 E= -1300.46475997851     Delta-E=       -0.114384449149 Rises=F Damp=T
 DIIS: error= 7.20D-03 at cycle   2 NSaved=   2.
 NSaved= 2 IEnMin= 2 EnMin= -1300.46475997851     IErMin= 2 ErrMin= 7.20D-03
 ErrMax= 7.20D-03  0.00D+00 EMaxC= 1.00D-01 BMatC= 9.89D-02 BMatP= 5.42D-01
 IDIUse=3 WtCom= 9.28D-01 WtEn= 7.20D-02
 Coeff-Com:  0.201D+00 0.799D+00
 Coeff-En:   0.388D+00 0.612D+00
 Coeff:      0.215D+00 0.785D+00
 Gap=     0.187 Goal=   None    Shift=    0.000
 RMSDP=1.62D-03 MaxDP=9.25D-02 DE=-1.14D-01 OVMax= 4.38D-01

 Cycle   3  Pass 1  IDiag  1:
 RMSU=  1.44D-03    CP:  9.86D-01  4.60D-01
 E= -1300.72520566365     Delta-E=       -0.260445685138 Rises=F Damp=F
 DIIS: error= 1.19D-02 at cycle   3 NSaved=   3.
 NSaved= 3 IEnMin= 3 EnMin= -1300.72520566365     IErMin= 2 ErrMin= 7.20D-03
 ErrMax= 1.19D-02  0.00D+00 EMaxC= 1.00D-01 BMatC= 1.24D-01 BMatP= 9.89D-02
 IDIUse=2 WtCom= 0.00D+00 WtEn= 1.00D+00
 Coeff-En:   0.000D+00 0.602D-01 0.940D+00
 Coeff:      0.000D+00 0.602D-01 0.940D+00
 Gap=     0.148 Goal=   None    Shift=    0.000
 RMSDP=2.03D-03 MaxDP=1.10D-01 DE=-2.60D-01 OVMax= 3.57D-01

 Cycle   4  Pass 1  IDiag  1:
 RMSU=  1.11D-03    CP:  9.46D-01  8.33D-01 -1.13D-01
 E= -1300.03875084376     Delta-E=        0.686454819894 Rises=F Damp=F
 DIIS: error= 2.85D-02 at cycle   4 NSaved=   4.
 NSaved= 4 IEnMin= 3 EnMin= -1300.72520566365     IErMin= 2 ErrMin= 7.20D-03
 ErrMax= 2.85D-02  0.00D+00 EMaxC= 1.00D-01 BMatC= 7.52D-01 BMatP= 9.89D-02
 IDIUse=2 WtCom= 0.00D+00 WtEn= 1.00D+00
 Coeff-En:   0.000D+00 0.000D+00 0.782D+00 0.218D+00
 Coeff:      0.000D+00 0.000D+00 0.782D+00 0.218D+00
 Gap=     0.132 Goal=   None    Shift=    0.000
 RMSDP=8.28D-04 MaxDP=5.26D-02 DE= 6.86D-01 OVMax= 2.22D-01

 Cycle   5  Pass 1  IDiag  1:
 RMSU=  3.17D-04    CP:  9.58D-01  6.60D-01  2.47D-01  5.47D-01
 E= -1300.80260889145     Delta-E=       -0.763858047693 Rises=F Damp=F
 DIIS: error= 8.25D-03 at cycle   5 NSaved=   5.
 NSaved= 5 IEnMin= 5 EnMin= -1300.80260889145     IErMin= 2 ErrMin= 7.20D-03
 ErrMax= 8.25D-03  0.00D+00 EMaxC= 1.00D-01 BMatC= 6.06D-02 BMatP= 9.89D-02
 IDIUse=3 WtCom= 9.18D-01 WtEn= 8.25D-02
 Coeff-Com:  0.792D-02 0.573D-02 0.341D+00-0.646D-01 0.710D+00
 Coeff-En:   0.000D+00 0.000D+00 0.370D+00 0.000D+00 0.630D+00
 Coeff:      0.727D-02 0.525D-02 0.343D+00-0.592D-01 0.704D+00
 Gap=     0.100 Goal=   None    Shift=    0.000
 RMSDP=5.11D-04 MaxDP=2.77D-02 DE=-7.64D-01 OVMax= 1.12D-01

 Cycle   6  Pass 1  IDiag  1:
 RMSU=  9.56D-05    CP:  9.69D-01  5.66D-01  5.37D-01  3.40D-01  8.43D-01
 E= -1300.86932996040     Delta-E=       -0.066721068952 Rises=F Damp=F
 DIIS: error= 7.97D-04 at cycle   6 NSaved=   6.
 NSaved= 6 IEnMin= 6 EnMin= -1300.86932996040     IErMin= 6 ErrMin= 7.97D-04
 ErrMax= 7.97D-04  0.00D+00 EMaxC= 1.00D-01 BMatC= 1.06D-03 BMatP= 6.06D-02
 IDIUse=3 WtCom= 9.92D-01 WtEn= 7.97D-03
 Coeff-Com:  0.128D-02 0.110D-02 0.154D+00-0.651D-01 0.438D+00 0.470D+00
 Coeff-En:   0.000D+00 0.000D+00 0.000D+00 0.000D+00 0.000D+00 0.100D+01
 Coeff:      0.127D-02 0.109D-02 0.153D+00-0.646D-01 0.435D+00 0.474D+00
 Gap=     0.099 Goal=   None    Shift=    0.000
 RMSDP=4.53D-05 MaxDP=3.36D-03 DE=-6.67D-02 OVMax= 6.20D-03

 Cycle   7  Pass 1  IDiag  1:
 RMSU=  2.62D-05    CP:  9.68D-01  5.71D-01  5.28D-01  3.38D-01  8.73D-01
                    CP:  6.67D-01
 E= -1300.87026503731     Delta-E=       -0.000935076904 Rises=F Damp=F
 DIIS: error= 1.68D-04 at cycle   7 NSaved=   7.
 NSaved= 7 IEnMin= 7 EnMin= -1300.87026503731     IErMin= 7 ErrMin= 1.68D-04
 ErrMax= 1.68D-04  0.00D+00 EMaxC= 1.00D-01 BMatC= 4.73D-05 BMatP= 1.06D-03
 IDIUse=3 WtCom= 9.98D-01 WtEn= 1.68D-03
 Coeff-Com:  0.266D-03 0.946D-03 0.519D-01-0.244D-01 0.147D+00 0.231D+00
 Coeff-Com:  0.594D+00
 Coeff-En:   0.000D+00 0.000D+00 0.000D+00 0.000D+00 0.000D+00 0.000D+00
 Coeff-En:   0.100D+01
 Coeff:      0.265D-03 0.944D-03 0.518D-01-0.243D-01 0.147D+00 0.230D+00
 Coeff:      0.594D+00
 Gap=     0.099 Goal=   None    Shift=    0.000
 RMSDP=1.77D-05 MaxDP=1.12D-03 DE=-9.35D-04 OVMax= 2.93D-03

 Cycle   8  Pass 1  IDiag  1:
 RMSU=  1.42D-05    CP:  9.68D-01  5.72D-01  5.24D-01  3.39D-01  8.90D-01
                    CP:  6.83D-01  7.36D-01
 E= -1300.87029119395     Delta-E=       -0.000026156642 Rises=F Damp=F
 DIIS: error= 1.03D-04 at cycle   8 NSaved=   8.
 NSaved= 8 IEnMin= 8 EnMin= -1300.87029119395     IErMin= 8 ErrMin= 1.03D-04
 ErrMax= 1.03D-04  0.00D+00 EMaxC= 1.00D-01 BMatC= 1.39D-05 BMatP= 4.73D-05
 IDIUse=3 WtCom= 9.99D-01 WtEn= 1.03D-03
 Coeff-Com:  0.157D-03-0.122D-04 0.801D-02-0.340D-02 0.152D-01 0.679D-01
 Coeff-Com:  0.404D+00 0.508D+00
 Coeff-En:   0.000D+00 0.000D+00 0.000D+00 0.000D+00 0.000D+00 0.000D+00
 Coeff-En:   0.274D+00 0.726D+00
 Coeff:      0.157D-03-0.122D-04 0.800D-02-0.339D-02 0.152D-01 0.678D-01
 Coeff:      0.404D+00 0.508D+00
 Gap=     0.099 Goal=   None    Shift=    0.000
 RMSDP=8.10D-06 MaxDP=4.77D-04 DE=-2.62D-05 OVMax= 1.54D-03

 Cycle   9  Pass 1  IDiag  1:
 RMSU=  3.03D-06    CP:  9.68D-01  5.70D-01  5.27D-01  3.38D-01  8.83D-01
                    CP:  6.95D-01  8.40D-01  6.66D-01
 E= -1300.87030616132     Delta-E=       -0.000014967375 Rises=F Damp=F
 DIIS: error= 2.40D-05 at cycle   9 NSaved=   9.
 NSaved= 9 IEnMin= 9 EnMin= -1300.87030616132     IErMin= 9 ErrMin= 2.40D-05
 ErrMax= 2.40D-05  0.00D+00 EMaxC= 1.00D-01 BMatC= 1.16D-06 BMatP= 1.39D-05
 IDIUse=1 WtCom= 1.00D+00 WtEn= 0.00D+00
 Coeff-Com:  0.121D-03-0.247D-03 0.134D-02-0.136D-03-0.191D-02 0.248D-01
 Coeff-Com:  0.205D+00 0.317D+00 0.454D+00
 Coeff:      0.121D-03-0.247D-03 0.134D-02-0.136D-03-0.191D-02 0.248D-01
 Coeff:      0.205D+00 0.317D+00 0.454D+00
 Gap=     0.099 Goal=   None    Shift=    0.000
 RMSDP=2.49D-06 MaxDP=1.69D-04 DE=-1.50D-05 OVMax= 3.54D-04

 Cycle  10  Pass 1  IDiag  1:
 RMSU=  1.19D-06    CP:  9.68D-01  5.70D-01  5.28D-01  3.38D-01  8.81D-01
                    CP:  7.01D-01  8.45D-01  6.58D-01  7.07D-01
 E= -1300.87030730030     Delta-E=       -0.000001138981 Rises=F Damp=F
 DIIS: error= 7.95D-06 at cycle  10 NSaved=  10.
 NSaved=10 IEnMin=10 EnMin= -1300.87030730030     IErMin=10 ErrMin= 7.95D-06
 ErrMax= 7.95D-06  0.00D+00 EMaxC= 1.00D-01 BMatC= 5.68D-08 BMatP= 1.16D-06
 IDIUse=1 WtCom= 1.00D+00 WtEn= 0.00D+00
 Coeff-Com:  0.607D-04-0.138D-03 0.300D-03 0.107D-03-0.204D-02 0.104D-01
 Coeff-Com:  0.945D-01 0.154D+00 0.267D+00 0.476D+00
 Coeff:      0.607D-04-0.138D-03 0.300D-03 0.107D-03-0.204D-02 0.104D-01
 Coeff:      0.945D-01 0.154D+00 0.267D+00 0.476D+00
 Gap=     0.099 Goal=   None    Shift=    0.000
 RMSDP=3.98D-07 MaxDP=1.68D-05 DE=-1.14D-06 OVMax= 8.64D-05

 Cycle  11  Pass 1  IDiag  1:
 RMSU=  3.25D-07    CP:  9.68D-01  5.70D-01  5.28D-01  3.38D-01  8.81D-01
                    CP:  7.01D-01  8.49D-01  6.54D-01  7.24D-01  9.09D-01
 E= -1300.87030735279     Delta-E=       -0.000000052490 Rises=F Damp=F
 DIIS: error= 3.11D-06 at cycle  11 NSaved=  11.
 NSaved=11 IEnMin=11 EnMin= -1300.87030735279     IErMin=11 ErrMin= 3.11D-06
 ErrMax= 3.11D-06  0.00D+00 EMaxC= 1.00D-01 BMatC= 7.05D-09 BMatP= 5.68D-08
 IDIUse=1 WtCom= 1.00D+00 WtEn= 0.00D+00
 Coeff-Com:  0.203D-04-0.420D-04 0.359D-04 0.671D-04-0.934D-03 0.317D-02
 Coeff-Com:  0.306D-01 0.525D-01 0.105D+00 0.297D+00 0.512D+00
 Coeff:      0.203D-04-0.420D-04 0.359D-04 0.671D-04-0.934D-03 0.317D-02
 Coeff:      0.306D-01 0.525D-01 0.105D+00 0.297D+00 0.512D+00
 Gap=     0.099 Goal=   None    Shift=    0.000
 RMSDP=1.54D-07 MaxDP=9.09D-06 DE=-5.25D-08 OVMax= 2.79D-05

 Cycle  12  Pass 1  IDiag  1:
 RMSU=  8.49D-08    CP:  9.68D-01  5.70D-01  5.28D-01  3.38D-01  8.81D-01
                    CP:  7.00D-01  8.49D-01  6.58D-01  7.27D-01  9.17D-01
                    CP:  7.65D-01
 E= -1300.87030736003     Delta-E=       -0.000000007235 Rises=F Damp=F
 DIIS: error= 7.06D-07 at cycle  12 NSaved=  12.
 NSaved=12 IEnMin=12 EnMin= -1300.87030736003     IErMin=12 ErrMin= 7.06D-07
 ErrMax= 7.06D-07  0.00D+00 EMaxC= 1.00D-01 BMatC= 4.38D-10 BMatP= 7.05D-09
 IDIUse=1 WtCom= 1.00D+00 WtEn= 0.00D+00
 Coeff-Com:  0.527D-05-0.115D-04-0.196D-05 0.243D-04-0.278D-03 0.705D-03
 Coeff-Com:  0.695D-02 0.125D-01 0.295D-01 0.109D+00 0.266D+00 0.576D+00
 Coeff:      0.527D-05-0.115D-04-0.196D-05 0.243D-04-0.278D-03 0.705D-03
 Coeff:      0.695D-02 0.125D-01 0.295D-01 0.109D+00 0.266D+00 0.576D+00
 Gap=     0.099 Goal=   None    Shift=    0.000
 RMSDP=4.03D-08 MaxDP=2.15D-06 DE=-7.23D-09 OVMax= 7.78D-06

 Cycle  13  Pass 1  IDiag  1:
 RMSU=  2.87D-08    CP:  9.68D-01  5.70D-01  5.28D-01  3.38D-01  8.81D-01
                    CP:  7.01D-01  8.49D-01  6.58D-01  7.29D-01  9.28D-01
                    CP:  7.89D-01  8.14D-01
 E= -1300.87030736044     Delta-E=       -0.000000000412 Rises=F Damp=F
 DIIS: error= 2.48D-07 at cycle  13 NSaved=  13.
 NSaved=13 IEnMin=13 EnMin= -1300.87030736044     IErMin=13 ErrMin= 2.48D-07
 ErrMax= 2.48D-07  0.00D+00 EMaxC= 1.00D-01 BMatC= 1.01D-10 BMatP= 4.38D-10
 IDIUse=1 WtCom= 1.00D+00 WtEn= 0.00D+00
 Coeff-Com:  0.746D-06-0.270D-05-0.793D-05 0.668D-05-0.531D-04 0.361D-04
 Coeff-Com:  0.357D-03 0.889D-03 0.470D-02 0.289D-01 0.990D-01 0.365D+00
 Coeff-Com:  0.501D+00
 Coeff:      0.746D-06-0.270D-05-0.793D-05 0.668D-05-0.531D-04 0.361D-04
 Coeff:      0.357D-03 0.889D-03 0.470D-02 0.289D-01 0.990D-01 0.365D+00
 Coeff:      0.501D+00
 Gap=     0.099 Goal=   None    Shift=    0.000
 RMSDP=1.78D-08 MaxDP=1.03D-06 DE=-4.12D-10 OVMax= 3.84D-06

 Cycle  14  Pass 1  IDiag  1:
 RMSU=  1.02D-08    CP:  9.68D-01  5.70D-01  5.28D-01  3.38D-01  8.81D-01
                    CP:  7.01D-01  8.49D-01  6.58D-01  7.30D-01  9.30D-01
                    CP:  7.88D-01  8.71D-01  6.95D-01
 E= -1300.87030736054     Delta-E=       -0.000000000104 Rises=F Damp=F
 DIIS: error= 8.17D-08 at cycle  14 NSaved=  14.
 NSaved=14 IEnMin=14 EnMin= -1300.87030736054     IErMin=14 ErrMin= 8.17D-08
 ErrMax= 8.17D-08  0.00D+00 EMaxC= 1.00D-01 BMatC= 1.25D-11 BMatP= 1.01D-10
 IDIUse=1 WtCom= 1.00D+00 WtEn= 0.00D+00
 Coeff-Com: -0.305D-07-0.540D-06-0.419D-05 0.153D-05-0.254D-05-0.455D-04
 Coeff-Com: -0.481D-03-0.725D-03-0.736D-05 0.711D-02 0.358D-01 0.176D+00
 Coeff-Com:  0.326D+00 0.456D+00
 Coeff:     -0.305D-07-0.540D-06-0.419D-05 0.153D-05-0.254D-05-0.455D-04
 Coeff:     -0.481D-03-0.725D-03-0.736D-05 0.711D-02 0.358D-01 0.176D+00
 Coeff:      0.326D+00 0.456D+00
 Gap=     0.099 Goal=   None    Shift=    0.000
 RMSDP=6.24D-09 MaxDP=3.64D-07 DE=-1.04D-10 OVMax= 1.41D-06

 Error on total polarization charges =  0.06001
 SCF Done:  E(RTPSS-TPSS) =  -1300.87030736     A.U. after   14 cycles
            NFock= 14  Conv=0.62D-08     -V/T= 2.0040
 KE= 1.295705035757D+03 PE=-7.041073827109D+03 EE= 2.445029953157D+03
 SMD-CDS (non-electrostatic) energy       (kcal/mol) =      -4.04
 (included in total energy above)
 Leave Link  502 at Wed Mar 31 08:07:47 2021, MaxMem=  5242880000 cpu:      6941.0
 (Enter /opt/nce/packages/global/g09/l601.exe)
 Copying SCF densities to generalized density rwf, IOpCl= 0 IROHF=0.

 **********************************************************************

            Population analysis using the SCF density.

 **********************************************************************

 Alpha  occ. eigenvalues --  -88.37087 -14.14752 -10.04437 -10.04253 -10.03000
 Alpha  occ. eigenvalues --  -10.02819 -10.02379  -9.99951  -9.99756  -9.99590
 Alpha  occ. eigenvalues --   -9.99492  -9.99491  -9.99488  -9.99393  -9.99380
 Alpha  occ. eigenvalues --   -9.99309  -9.99041  -9.98948  -9.98843  -9.98835
 Alpha  occ. eigenvalues --   -9.98743  -9.98696  -9.98589  -9.98586  -7.75085
 Alpha  occ. eigenvalues --   -5.73152  -5.72754  -5.72127  -0.91618  -0.81671
 Alpha  occ. eigenvalues --   -0.80725  -0.79042  -0.77389  -0.73714  -0.71680
 Alpha  occ. eigenvalues --   -0.70065  -0.69524  -0.69374  -0.68524  -0.65581
 Alpha  occ. eigenvalues --   -0.63480  -0.59127  -0.58074  -0.56404  -0.56123
 Alpha  occ. eigenvalues --   -0.54787  -0.53827  -0.52685  -0.49851  -0.48904
 Alpha  occ. eigenvalues --   -0.46198  -0.45415  -0.45166  -0.42672  -0.42104
 Alpha  occ. eigenvalues --   -0.41850  -0.40858  -0.40372  -0.39834  -0.38997
 Alpha  occ. eigenvalues --   -0.38628  -0.38280  -0.37827  -0.37279  -0.36919
 Alpha  occ. eigenvalues --   -0.35475  -0.35362  -0.33766  -0.33028  -0.32523
 Alpha  occ. eigenvalues --   -0.32227  -0.32087  -0.31212  -0.30343  -0.29849
 Alpha  occ. eigenvalues --   -0.29003  -0.28654  -0.26861  -0.25739  -0.23832
 Alpha  occ. eigenvalues --   -0.23499  -0.23197  -0.22308  -0.18897  -0.16784
 Alpha virt. eigenvalues --   -0.06879  -0.05618  -0.04631  -0.04412  -0.03705
 Alpha virt. eigenvalues --   -0.02067  -0.01021  -0.00114   0.03647   0.04360
 Alpha virt. eigenvalues --    0.05544   0.05725   0.06357   0.06531   0.07412
 Alpha virt. eigenvalues --    0.07761   0.08015   0.08639   0.09360   0.09855
 Alpha virt. eigenvalues --    0.10103   0.10246   0.10613   0.10988   0.11493
 Alpha virt. eigenvalues --    0.11598   0.12086   0.12690   0.12973   0.13815
 Alpha virt. eigenvalues --    0.14247   0.14419   0.16207   0.17096   0.17422
 Alpha virt. eigenvalues --    0.17802   0.18190   0.18394   0.18779   0.19091
 Alpha virt. eigenvalues --    0.19357   0.19953   0.20441   0.20728   0.20987
 Alpha virt. eigenvalues --    0.21345   0.21661   0.21945   0.22492   0.22614
 Alpha virt. eigenvalues --    0.22876   0.23407   0.23830   0.23899   0.24523
 Alpha virt. eigenvalues --    0.24888   0.25042   0.25204   0.25838   0.26148
 Alpha virt. eigenvalues --    0.26304   0.26840   0.27616   0.27875   0.28096
 Alpha virt. eigenvalues --    0.28287   0.28690   0.28953   0.29431   0.30382
 Alpha virt. eigenvalues --    0.30525   0.31317   0.31564   0.32057   0.32271
 Alpha virt. eigenvalues --    0.32736   0.33087   0.33331   0.34137   0.34327
 Alpha virt. eigenvalues --    0.34561   0.35144   0.35485   0.36047   0.36112
 Alpha virt. eigenvalues --    0.36638   0.36895   0.37263   0.37814   0.38218
 Alpha virt. eigenvalues --    0.39236   0.39641   0.40189   0.40347   0.40679
 Alpha virt. eigenvalues --    0.40701   0.41209   0.41479   0.41766   0.42244
 Alpha virt. eigenvalues --    0.42858   0.43097   0.43621   0.43697   0.44411
 Alpha virt. eigenvalues --    0.44765   0.45089   0.45696   0.45766   0.46160
 Alpha virt. eigenvalues --    0.46472   0.47170   0.47380   0.47524   0.47933
 Alpha virt. eigenvalues --    0.48652   0.48871   0.49369   0.49892   0.50445
 Alpha virt. eigenvalues --    0.51073   0.51401   0.52197   0.52492   0.52988
 Alpha virt. eigenvalues --    0.53179   0.53571   0.54537   0.56013   0.56362
 Alpha virt. eigenvalues --    0.57096   0.57753   0.58652   0.59144   0.59324
 Alpha virt. eigenvalues --    0.59845   0.60919   0.61962   0.62472   0.62706
 Alpha virt. eigenvalues --    0.63211   0.63670   0.63965   0.64460   0.65383
 Alpha virt. eigenvalues --    0.65825   0.66337   0.66430   0.67033   0.67141
 Alpha virt. eigenvalues --    0.67549   0.67830   0.68190   0.68993   0.69645
 Alpha virt. eigenvalues --    0.69865   0.69959   0.70535   0.71179   0.71766
 Alpha virt. eigenvalues --    0.72420   0.72942   0.73403   0.73581   0.74429
 Alpha virt. eigenvalues --    0.74549   0.75025   0.76377   0.77117   0.77267
 Alpha virt. eigenvalues --    0.77619   0.78860   0.78997   0.79592   0.80020
 Alpha virt. eigenvalues --    0.80316   0.81177   0.82292   0.82567   0.83153
 Alpha virt. eigenvalues --    0.83400   0.84129   0.84396   0.84554   0.85671
 Alpha virt. eigenvalues --    0.86291   0.86687   0.87289   0.87783   0.88908
 Alpha virt. eigenvalues --    0.89079   0.89554   0.90153   0.90922   0.91674
 Alpha virt. eigenvalues --    0.91780   0.92686   0.93972   0.94967   0.95916
 Alpha virt. eigenvalues --    0.96606   0.97551   0.98193   0.99472   1.00080
 Alpha virt. eigenvalues --    1.00717   1.01513   1.02560   1.03230   1.03778
 Alpha virt. eigenvalues --    1.05021   1.05636   1.06059   1.07069   1.08202
 Alpha virt. eigenvalues --    1.09335   1.09498   1.10026   1.11151   1.11499
 Alpha virt. eigenvalues --    1.12055   1.12503   1.12841   1.14790   1.15796
 Alpha virt. eigenvalues --    1.16455   1.16993   1.17243   1.17976   1.19479
 Alpha virt. eigenvalues --    1.19788   1.20480   1.20884   1.21478   1.21971
 Alpha virt. eigenvalues --    1.22248   1.22925   1.23273   1.23697   1.24539
 Alpha virt. eigenvalues --    1.24738   1.25199   1.25975   1.26152   1.27147
 Alpha virt. eigenvalues --    1.27822   1.27935   1.28809   1.30035   1.30529
 Alpha virt. eigenvalues --    1.31931   1.32237   1.33418   1.34774   1.34978
 Alpha virt. eigenvalues --    1.36000   1.36924   1.37892   1.38231   1.38406
 Alpha virt. eigenvalues --    1.38881   1.40715   1.41364   1.42185   1.42944
 Alpha virt. eigenvalues --    1.43294   1.44311   1.45251   1.45549   1.46201
 Alpha virt. eigenvalues --    1.46883   1.47470   1.47749   1.48263   1.49025
 Alpha virt. eigenvalues --    1.49169   1.49720   1.50888   1.51192   1.51436
 Alpha virt. eigenvalues --    1.51831   1.52620   1.53535   1.54070   1.54250
 Alpha virt. eigenvalues --    1.54828   1.55949   1.56815   1.57016   1.57662
 Alpha virt. eigenvalues --    1.58445   1.59518   1.59691   1.60867   1.61848
 Alpha virt. eigenvalues --    1.61899   1.62868   1.63168   1.63487   1.63839
 Alpha virt. eigenvalues --    1.64389   1.64591   1.65610   1.65763   1.66356
 Alpha virt. eigenvalues --    1.66837   1.67175   1.68238   1.68275   1.69131
 Alpha virt. eigenvalues --    1.70110   1.70583   1.70976   1.71368   1.71813
 Alpha virt. eigenvalues --    1.72310   1.73983   1.74567   1.75391   1.75565
 Alpha virt. eigenvalues --    1.76359   1.78637   1.79337   1.80306   1.81306
 Alpha virt. eigenvalues --    1.81763   1.82551   1.83489   1.83683   1.83752
 Alpha virt. eigenvalues --    1.85827   1.87230   1.87830   1.89979   1.90236
 Alpha virt. eigenvalues --    1.90460   1.92369   1.92708   1.93450   1.95222
 Alpha virt. eigenvalues --    1.96109   1.96896   1.97202   1.97919   1.98918
 Alpha virt. eigenvalues --    1.99325   2.01170   2.01568   2.02193   2.02667
 Alpha virt. eigenvalues --    2.03106   2.04503   2.05629   2.06224   2.06785
 Alpha virt. eigenvalues --    2.07347   2.08420   2.08546   2.09473   2.10349
 Alpha virt. eigenvalues --    2.10656   2.12047   2.12913   2.13092   2.13463
 Alpha virt. eigenvalues --    2.14167   2.15043   2.15239   2.16146   2.16802
 Alpha virt. eigenvalues --    2.17193   2.18428   2.18862   2.19203   2.21303
 Alpha virt. eigenvalues --    2.22677   2.23345   2.24122   2.24803   2.25212
 Alpha virt. eigenvalues --    2.27114   2.27549   2.29026   2.30277   2.31429
 Alpha virt. eigenvalues --    2.31805   2.33803   2.34605   2.37586   2.39544
 Alpha virt. eigenvalues --    2.41813   2.42666   2.43166   2.44358   2.44847
 Alpha virt. eigenvalues --    2.46253   2.46972   2.49115   2.49914   2.50238
 Alpha virt. eigenvalues --    2.50723   2.51849   2.52884   2.53081   2.54134
 Alpha virt. eigenvalues --    2.55365   2.55883   2.56290   2.57635   2.58103
 Alpha virt. eigenvalues --    2.58227   2.59270   2.59426   2.60036   2.61473
 Alpha virt. eigenvalues --    2.61897   2.62197   2.63111   2.63241   2.63582
 Alpha virt. eigenvalues --    2.63901   2.64921   2.65083   2.65899   2.66052
 Alpha virt. eigenvalues --    2.66503   2.67607   2.68034   2.68356   2.68719
 Alpha virt. eigenvalues --    2.69168   2.69549   2.70141   2.71366   2.72014
 Alpha virt. eigenvalues --    2.72428   2.72680   2.73142   2.74461   2.74698
 Alpha virt. eigenvalues --    2.75284   2.75600   2.76145   2.76653   2.77041
 Alpha virt. eigenvalues --    2.77930   2.78726   2.79015   2.79565   2.80070
 Alpha virt. eigenvalues --    2.81263   2.81574   2.81675   2.82786   2.83095
 Alpha virt. eigenvalues --    2.83386   2.84126   2.84560   2.84768   2.85108
 Alpha virt. eigenvalues --    2.85824   2.86202   2.86778   2.88198   2.88692
 Alpha virt. eigenvalues --    2.89252   2.89870   2.90207   2.91249   2.91575
 Alpha virt. eigenvalues --    2.91838   2.92271   2.93137   2.93818   2.94394
 Alpha virt. eigenvalues --    2.95376   2.96657   2.96902   2.97344   2.98387
 Alpha virt. eigenvalues --    2.98906   2.99945   3.00333   3.01988   3.02578
 Alpha virt. eigenvalues --    3.03058   3.03723   3.04589   3.05373   3.06033
 Alpha virt. eigenvalues --    3.07049   3.07668   3.09516   3.09919   3.10443
 Alpha virt. eigenvalues --    3.11062   3.11550   3.12098   3.12383   3.12702
 Alpha virt. eigenvalues --    3.14018   3.14299   3.14753   3.15212   3.15367
 Alpha virt. eigenvalues --    3.16103   3.16151   3.16828   3.17634   3.17682
 Alpha virt. eigenvalues --    3.18502   3.18912   3.19422   3.20339   3.20398
 Alpha virt. eigenvalues --    3.20853   3.21958   3.22718   3.23167   3.24173
 Alpha virt. eigenvalues --    3.24834   3.25685   3.26311   3.26785   3.27462
 Alpha virt. eigenvalues --    3.27741   3.28633   3.29159   3.29979   3.30156
 Alpha virt. eigenvalues --    3.30532   3.31284   3.32175   3.32803   3.33090
 Alpha virt. eigenvalues --    3.33555   3.34399   3.34866   3.35527   3.35689
 Alpha virt. eigenvalues --    3.36760   3.37019   3.37579   3.38083   3.38697
 Alpha virt. eigenvalues --    3.39559   3.39723   3.40052   3.41005   3.41589
 Alpha virt. eigenvalues --    3.41919   3.43115   3.43667   3.44357   3.45496
 Alpha virt. eigenvalues --    3.46658   3.46737   3.47385   3.48014   3.48174
 Alpha virt. eigenvalues --    3.48507   3.48831   3.49871   3.50283   3.50907
 Alpha virt. eigenvalues --    3.51094   3.51529   3.52273   3.52702   3.53646
 Alpha virt. eigenvalues --    3.54300   3.54913   3.55345   3.56323   3.57221
 Alpha virt. eigenvalues --    3.58166   3.58677   3.58694   3.59957   3.60486
 Alpha virt. eigenvalues --    3.63027   3.63891   3.65901   3.66617   3.67561
 Alpha virt. eigenvalues --    3.68954   3.69327   3.71117   3.72260   3.72932
 Alpha virt. eigenvalues --    3.73585   3.74178   3.74866   3.77092   3.78006
 Alpha virt. eigenvalues --    3.79203   3.79846   3.80556   3.83356   3.83691
 Alpha virt. eigenvalues --    3.86889   3.87376   3.88895   3.90495   3.90978
 Alpha virt. eigenvalues --    3.93532   3.94035   3.94421   3.96594   3.96923
 Alpha virt. eigenvalues --    3.97830   3.99247   3.99905   4.00320   4.00881
 Alpha virt. eigenvalues --    4.02341   4.04707   4.05011   4.05991   4.07236
 Alpha virt. eigenvalues --    4.08136   4.09249   4.10265   4.12174   4.12407
 Alpha virt. eigenvalues --    4.13522   4.13872   4.14335   4.15407   4.15800
 Alpha virt. eigenvalues --    4.17000   4.17566   4.18563   4.18876   4.19910
 Alpha virt. eigenvalues --    4.20002   4.20605   4.21256   4.21865   4.22195
 Alpha virt. eigenvalues --    4.22526   4.23704   4.24239   4.24673   4.25435
 Alpha virt. eigenvalues --    4.27092   4.27216   4.28385   4.29036   4.29305
 Alpha virt. eigenvalues --    4.30880   4.31148   4.32385   4.33704   4.34679
 Alpha virt. eigenvalues --    4.35254   4.36913   4.40002   4.40285   4.41992
 Alpha virt. eigenvalues --    4.45171   4.46903   4.48947   4.51920   4.54385
 Alpha virt. eigenvalues --    4.55660   4.59183   4.60491   4.62444   4.63386
 Alpha virt. eigenvalues --    4.64710   4.66745   4.67471   4.71061   4.72832
 Alpha virt. eigenvalues --    4.73206   4.74319   4.75015   4.76321   4.77890
 Alpha virt. eigenvalues --    4.78813   4.80285   4.81775   4.82677   4.84032
 Alpha virt. eigenvalues --    4.86477   4.88095   4.90170   4.91343   4.96471
 Alpha virt. eigenvalues --    4.97333   4.97928   5.01300   5.01924   5.05204
 Alpha virt. eigenvalues --    5.08767   5.11453   5.14010   5.15795   5.16704
 Alpha virt. eigenvalues --    5.18852   5.19530   5.23106   5.24378   5.24982
 Alpha virt. eigenvalues --    5.26504   5.29850   5.30780   5.31402   5.35075
 Alpha virt. eigenvalues --    5.38272   5.38931   5.45339   5.47704   5.51879
 Alpha virt. eigenvalues --    5.54136   5.55576   5.58965   5.63338   5.67039
 Alpha virt. eigenvalues --    5.67306   5.74387   5.82487   5.88519   5.94575
 Alpha virt. eigenvalues --    6.06251   6.11001   6.20646   8.86854   9.31402
 Alpha virt. eigenvalues --    9.51549  20.26812  22.05376  22.11930  22.24600
 Alpha virt. eigenvalues --   22.51459  22.52082  22.53547  22.55687  22.57509
 Alpha virt. eigenvalues --   22.57961  22.60385  22.69436  22.74757  22.75159
 Alpha virt. eigenvalues --   22.77174  22.78289  22.81698  22.84850  23.01051
 Alpha virt. eigenvalues --   23.05218  23.14860  23.20427  23.56976  33.18490
          Condensed to atoms (all electrons):
               1          2          3          4          5          6
     1  C    5.124222   0.306759   0.127240  -0.153425   0.078854   0.351994
     2  C    0.306759   5.273665   0.235754   0.080333  -0.151464   0.083160
     3  C    0.127240   0.235754   5.332814   0.155863   0.098235  -0.141418
     4  C   -0.153425   0.080333   0.155863   5.174081   0.316774   0.066868
     5  C    0.078854  -0.151464   0.098235   0.316774   5.272358   0.325801
     6  C    0.351994   0.083160  -0.141418   0.066868   0.325801   5.111788
     7  C   -0.001886   0.007220  -0.033358  -0.061193   0.005477   0.000979
     8  C   -0.000001   0.000037   0.009655  -0.045169  -0.003446  -0.000149
     9  C   -0.000028  -0.000070   0.000507   0.007897  -0.000487   0.000063
    10  H   -0.000009   0.000081   0.000087   0.000215  -0.000022   0.000004
    11  C    0.000016  -0.000062  -0.000315  -0.002323   0.000053  -0.000007
    12  C   -0.000006   0.000051  -0.000261   0.002070   0.000013   0.000011
    13  C    0.000023  -0.000344  -0.003503   0.010514   0.002928  -0.000011
    14  H   -0.073670   0.468897  -0.100391   0.024862  -0.007731   0.019420
    15  H    0.011403  -0.002107   0.010442  -0.055496   0.440223  -0.048135
    16  H   -0.063647   0.016803  -0.004566   0.015951  -0.068551   0.448118
    17  C   -0.000204  -0.000083   0.001871  -0.071265  -0.005497  -0.005823
    18  C   -0.000125   0.000276  -0.007592  -0.003462   0.000119   0.000253
    19  C   -0.000297   0.000013  -0.000265  -0.003241  -0.005075   0.003885
    20  C    0.000013  -0.000008   0.000107   0.000088   0.000356  -0.000162
    21  C    0.000030  -0.000039   0.001019   0.003059  -0.004070  -0.000001
    22  C   -0.000004   0.000009  -0.000286  -0.001058   0.000612   0.000043
    23  H    0.000000  -0.000000   0.000018   0.000039   0.000031  -0.000002
    24  H    0.000000   0.000000  -0.000006  -0.000040  -0.000055  -0.000008
    25  H    0.000002   0.000016  -0.002227   0.000780  -0.000258   0.000058
    26  H   -0.000096   0.000068  -0.000645   0.000596   0.003877   0.000662
    27  H    0.000000   0.000000  -0.000000  -0.000000  -0.000009  -0.000000
    28  H    0.457186  -0.076049   0.021420  -0.007322   0.020688  -0.071857
    29  N    0.000354   0.003485  -0.054706   0.431080  -0.089366   0.004146
    30  H   -0.000003   0.000021   0.000129  -0.001406  -0.000132   0.000011
    31  S    0.011774  -0.070133   0.384667  -0.094268   0.015813  -0.001748
    32  C   -0.000000   0.000001  -0.000003   0.000045  -0.000006   0.000000
    33  C    0.000000  -0.000000  -0.000000   0.000001   0.000000  -0.000000
    34  H    0.000000  -0.000000  -0.000000   0.000000  -0.000000  -0.000000
    35  C    0.000000  -0.000003   0.000015   0.000009   0.000002  -0.000000
    36  C   -0.000000   0.000000   0.000000  -0.000001  -0.000000   0.000000
    37  H   -0.000000  -0.000000   0.000000  -0.000000  -0.000000   0.000000
[...]
    36  C    0.001538  -0.002926   0.007630   0.001237   0.035043  -0.093098
    37  H   -0.000016   0.000037  -0.001056  -0.000050   0.016179  -0.003713
    38  H   -0.000058   0.000952  -0.003276   0.004778  -0.079396   0.011558
    39  H    0.001817  -0.000410   0.000366   0.000033   0.011935  -0.078446
              13         14         15         16         17         18
     1  C    0.000026  -0.074105   0.011572  -0.064083  -0.000158  -0.000134
     2  C   -0.000361   0.470758  -0.002179   0.016905  -0.000150   0.000307
     3  C   -0.003620  -0.101103   0.010577  -0.004625   0.003859  -0.007870
     4  C    0.010480   0.024931  -0.055975   0.016117  -0.066602  -0.003452
     5  C    0.003019  -0.007859   0.441902  -0.068807  -0.006096   0.000013
     6  C   -0.000015   0.019641  -0.048683   0.449281  -0.005667   0.000277
     7  C    0.297616   0.000172  -0.001302   0.000048  -0.050658  -0.007524
     8  C    0.093386   0.000093   0.000090  -0.000012   0.003076  -0.009099
     9  C   -0.164732   0.000128   0.000024  -0.000000  -0.000603   0.000247
    10  H   -0.009266   0.000041   0.000000   0.000000   0.000014   0.000001
    11  C    0.028489  -0.000013  -0.000003   0.000000   0.000325   0.000111
    12  C    0.251365   0.000005   0.000014  -0.000000  -0.003151   0.001284
    13  C    5.572281  -0.000025  -0.000131  -0.000001  -0.012011   0.002607
    14  H   -0.000025   0.537814   0.000034  -0.000217   0.000033   0.000000
    15  H   -0.000131   0.000034   0.505822  -0.008578   0.009666  -0.001803
    16  H   -0.000001  -0.000217  -0.008578   0.532279  -0.000029   0.000020
    17  C   -0.012011   0.000033   0.009666  -0.000029   5.622821   0.251435
    18  C    0.002607   0.000000  -0.001803   0.000020   0.251435   5.110961
    19  C    0.004334   0.000001  -0.011236   0.000069   0.243549   0.131018
    20  C   -0.000293   0.000000   0.001338  -0.000005   0.084757   0.354606
    21  C   -0.004737   0.000000   0.002197  -0.000007   0.121057  -0.168145
    22  C    0.001150   0.000000  -0.000339   0.000001  -0.208888   0.108323
    23  H    0.000022  -0.000000   0.000006  -0.000000   0.023729  -0.065182
    24  H   -0.000060  -0.000000   0.000059   0.000000   0.018334  -0.003311
    25  H    0.000016  -0.000001  -0.000153   0.000002  -0.099030   0.474054
    26  H    0.005279  -0.000000  -0.001556   0.000017  -0.077342   0.018414
    27  H   -0.000009   0.000000   0.000004   0.000000  -0.005332   0.014941
    28  H    0.000000  -0.010408  -0.000151  -0.009210  -0.000006   0.000002
    29  N   -0.110115  -0.000081  -0.007931  -0.000156   0.107052  -0.021925
    30  H    0.461314   0.000000   0.000035  -0.000000   0.004900  -0.000878
    31  S    0.017290   0.001245  -0.000437   0.000038  -0.002353   0.001282
    32  C   -0.105677   0.000000  -0.000000  -0.000000  -0.000392  -0.000094
    33  C    0.003432  -0.000000   0.000000   0.000000   0.000021   0.000002
    34  H   -0.001076  -0.000000   0.000000  -0.000000   0.000001   0.000000
    35  C    0.018963  -0.000000  -0.000000   0.000000   0.000015   0.000008
    36  C   -0.001100   0.000000  -0.000000  -0.000000  -0.000007  -0.000002
    37  H    0.000208   0.000000   0.000000   0.000000  -0.000000  -0.000000
    38  H   -0.000436  -0.000000   0.000000  -0.000000  -0.000000  -0.000000
    39  H   -0.010283   0.000000   0.000000  -0.000000  -0.000111  -0.000012
              19         20         21         22         23         24
     1  C   -0.000307   0.000013   0.000032  -0.000004   0.000000   0.000000
     2  C    0.000034  -0.000009  -0.000042   0.000010  -0.000000   0.000000
     3  C   -0.000429   0.000101   0.001007  -0.000286   0.000018  -0.000005
     4  C   -0.002858   0.000024   0.002874  -0.001026   0.000039  -0.000037
     5  C   -0.005171   0.000296  -0.003904   0.000582   0.000033  -0.000057
     6  C    0.003822  -0.000161  -0.000016   0.000043  -0.000002  -0.000008
     7  C   -0.012687   0.000430   0.003670  -0.001471   0.000059  -0.000040
     8  C   -0.001289   0.000162   0.001203  -0.000330   0.000020  -0.000005
     9  C    0.000250  -0.000011  -0.000041   0.000011  -0.000001  -0.000000
    10  H    0.000004   0.000000   0.000000   0.000000  -0.000000  -0.000000
    11  C   -0.000568   0.000009  -0.000022  -0.000003  -0.000000   0.000001
    12  C    0.008029  -0.000433  -0.000274   0.000107  -0.000006  -0.000009
    13  C    0.004334  -0.000293  -0.004737   0.001150   0.000022  -0.000060
    14  H    0.000001   0.000000   0.000000   0.000000  -0.000000  -0.000000
    15  H   -0.011236   0.001338   0.002197  -0.000339   0.000006   0.000059
    16  H    0.000069  -0.000005  -0.000007   0.000001  -0.000000   0.000000
    17  C    0.243549   0.084757   0.121057  -0.208888   0.023729   0.018334
    18  C    0.131018   0.354606  -0.168145   0.108323  -0.065182  -0.003311
    19  C    5.210980  -0.148270   0.223182   0.135394  -0.006121  -0.062504
    20  C   -0.148270   5.063571   0.093417   0.328736   0.446831   0.014218
    21  C    0.223182   0.093417   5.204705   0.293297   0.017123   0.442510
    22  C    0.135394   0.328736   0.293297   5.114858  -0.070419  -0.063461
    23  H   -0.006121   0.446831   0.017123  -0.070419   0.532803  -0.000251
    24  H   -0.062504   0.014218   0.442510  -0.063461  -0.000251   0.530024
    25  H    0.016539  -0.062997  -0.007411   0.019832  -0.011119   0.000056
    26  H    0.470625  -0.005246  -0.077556   0.017725   0.000025  -0.009787
    27  H    0.016522  -0.060402  -0.061038   0.441348  -0.009095  -0.008632
    28  H    0.000001  -0.000000  -0.000000   0.000000  -0.000000   0.000000
    29  N   -0.031233   0.005930   0.014139   0.001781  -0.000506  -0.000393
    30  H   -0.011697   0.001447   0.001341  -0.000546   0.000007   0.000062
    31  S    0.000083  -0.000020  -0.000035   0.000014  -0.000002   0.000000
    32  C    0.000427   0.000007   0.000121   0.000005  -0.000000  -0.000001
    33  C    0.000022  -0.000002  -0.000002  -0.000000   0.000000  -0.000000
    34  H    0.000000  -0.000000  -0.000000  -0.000000  -0.000000   0.000000
    35  C   -0.000013  -0.000000  -0.000001  -0.000000  -0.000000   0.000000
    36  C    0.000002   0.000000   0.000001   0.000000   0.000000   0.000000
    37  H    0.000000  -0.000000  -0.000000   0.000000  -0.000000  -0.000000
    38  H   -0.000000   0.000000   0.000000  -0.000000   0.000000  -0.000000
    39  H    0.000194  -0.000008   0.000115   0.000021  -0.000000   0.000000
              25         26         27         28         29         30
     1  C    0.000002  -0.000094   0.000000   0.458372   0.000323  -0.000003
     2  C    0.000019   0.000067   0.000000  -0.076228   0.003631   0.000021
     3  C   -0.002203  -0.000646  -0.000000   0.021545  -0.054784   0.000136
     4  C    0.000668   0.000606   0.000000  -0.007350   0.428005  -0.001402
     5  C   -0.000216   0.003879  -0.000009   0.020704  -0.089650  -0.000135
     6  C    0.000060   0.000635  -0.000000  -0.072107   0.004053   0.000011
     7  C    0.000845  -0.000191  -0.000001  -0.000004   0.439132  -0.076340
     8  C   -0.002303  -0.000902  -0.000000   0.000015  -0.041385   0.010316
     9  C   -0.000017   0.000065   0.000000  -0.000001   0.003247  -0.002284
    10  H   -0.000001  -0.000000   0.000000  -0.000000  -0.000120   0.000045
    11  C    0.000027  -0.000068   0.000000   0.000000   0.000211   0.011762
    12  C    0.000080   0.001106   0.000001  -0.000000   0.001652  -0.054422
    13  C    0.000016   0.005279  -0.000009   0.000000  -0.110115   0.461314
    14  H   -0.000001  -0.000000   0.000000  -0.010408  -0.000081   0.000000
    15  H   -0.000153  -0.001556   0.000004  -0.000151  -0.007931   0.000035
    16  H    0.000002   0.000017   0.000000  -0.009210  -0.000156  -0.000000
    17  C   -0.099030  -0.077342  -0.005332  -0.000006   0.107052   0.004900
    18  C    0.474054   0.018414   0.014941   0.000002  -0.021925  -0.000878
    19  C    0.016539   0.470625   0.016522   0.000001  -0.031233  -0.011697
    20  C   -0.062997  -0.005246  -0.060402  -0.000000   0.005930   0.001447
    21  C   -0.007411  -0.077556  -0.061038  -0.000000   0.014139   0.001341
    22  C    0.019832   0.017725   0.441348   0.000000   0.001781  -0.000546
    23  H   -0.011119   0.000025  -0.009095  -0.000000  -0.000506   0.000007
    24  H    0.000056  -0.009787  -0.008632   0.000000  -0.000393   0.000062
    25  H    0.530711  -0.000077  -0.000126   0.000000   0.007109  -0.000134
    26  H   -0.000077   0.531763  -0.000140  -0.000000  -0.003404  -0.001684
    27  H   -0.000126  -0.000140   0.527322  -0.000000   0.000006   0.000005
    28  H    0.000000  -0.000000  -0.000000   0.534537   0.000022  -0.000000
    29  N    0.007109  -0.003404   0.000006   0.000022   6.295661  -0.008283
    30  H   -0.000134  -0.001684   0.000005  -0.000000  -0.008283   0.504497
    31  S    0.001140  -0.000005   0.000000  -0.000368  -0.006320  -0.000388
    32  C    0.000000   0.000011  -0.000000  -0.000000  -0.000204  -0.002266
    33  C   -0.000000   0.000002  -0.000000   0.000000  -0.000005   0.001187
    34  H    0.000000   0.000000   0.000000   0.000000  -0.000000  -0.000048
    35  C    0.000002  -0.000000  -0.000000   0.000000   0.000044  -0.000291
    36  C   -0.000000   0.000000   0.000000  -0.000000   0.000001  -0.000086
    37  H   -0.000000  -0.000000   0.000000  -0.000000   0.000000  -0.000003
    38  H   -0.000000  -0.000000  -0.000000  -0.000000  -0.000000   0.000025
    39  H    0.000001   0.000005   0.000000  -0.000000  -0.000016   0.004946
              31         32         33         34         35         36
     1  C    0.011901  -0.000000   0.000000   0.000000   0.000000  -0.000000
     2  C   -0.071022   0.000001  -0.000000  -0.000000  -0.000003   0.000000
     3  C    0.386372  -0.000002  -0.000000  -0.000000   0.000013   0.000000
     4  C   -0.095821   0.000043   0.000001   0.000000   0.000010  -0.000001
     5  C    0.016504  -0.000007   0.000000  -0.000000   0.000002  -0.000000
     6  C   -0.001785   0.000000  -0.000000  -0.000000  -0.000000   0.000000
     7  C   -0.083943   0.011628  -0.003553   0.000012  -0.002411   0.001538
     8  C    0.389173  -0.000035   0.001540  -0.000004   0.015658  -0.002926
     9  C   -0.085033   0.015545  -0.000462   0.000120  -0.093092   0.007630
    10  H    0.002360   0.000047  -0.000158  -0.000005  -0.007721   0.001237
    11  C    0.012692   0.010636  -0.085439  -0.003593   0.345069   0.035043
    12  C   -0.001559   0.342155   0.036528   0.016727  -0.012967  -0.093098
    13  C    0.017290  -0.105677   0.003432  -0.001076   0.018963  -0.001100
    14  H    0.001245   0.000000  -0.000000  -0.000000  -0.000000   0.000000
    15  H   -0.000437  -0.000000   0.000000   0.000000  -0.000000  -0.000000
    16  H    0.000038  -0.000000   0.000000  -0.000000   0.000000  -0.000000
    17  C   -0.002353  -0.000392   0.000021   0.000001   0.000015  -0.000007
    18  C    0.001282  -0.000094   0.000002   0.000000   0.000008  -0.000002
    19  C    0.000083   0.000427   0.000022   0.000000  -0.000013   0.000002
    20  C   -0.000020   0.000007  -0.000002  -0.000000  -0.000000   0.000000
    21  C   -0.000035   0.000121  -0.000002  -0.000000  -0.000001   0.000001
    22  C    0.000014   0.000005  -0.000000  -0.000000  -0.000000   0.000000
    23  H   -0.000002  -0.000000   0.000000  -0.000000  -0.000000   0.000000
    24  H    0.000000  -0.000001  -0.000000   0.000000   0.000000   0.000000
    25  H    0.001140   0.000000  -0.000000   0.000000   0.000002  -0.000000
    26  H   -0.000005   0.000011   0.000002   0.000000  -0.000000   0.000000
    27  H    0.000000  -0.000000  -0.000000   0.000000  -0.000000   0.000000
    28  H   -0.000368  -0.000000   0.000000   0.000000   0.000000  -0.000000
    29  N   -0.006320  -0.000204  -0.000005  -0.000000   0.000044   0.000001
    30  H   -0.000388  -0.002266   0.001187  -0.000048  -0.000291  -0.000086
    31  S   15.607464  -0.000055   0.000009   0.000000  -0.001142  -0.000003
    32  C   -0.000055   5.237876   0.399202  -0.068958  -0.111689   0.061026
    33  C    0.000009   0.399202   5.059598   0.449153   0.059497   0.325585
    34  H    0.000000  -0.068958   0.449153   0.537899   0.016273  -0.065169
    35  C   -0.001142  -0.111689   0.059497   0.016273   5.228111   0.398132
    36  C   -0.000003   0.061026   0.325585  -0.065169   0.398132   5.063982
    37  H   -0.000000   0.016132  -0.065262  -0.009033  -0.068554   0.449242
    38  H   -0.000042  -0.004598   0.015938  -0.000230   0.463343  -0.067588
    39  H   -0.000003   0.468661  -0.067824  -0.010190  -0.005044   0.016226
              37         38         39
     1  C   -0.000000   0.000000  -0.000000
     2  C   -0.000000   0.000000   0.000000
     3  C    0.000000  -0.000001  -0.000000
     4  C   -0.000000  -0.000001   0.000002
     5  C   -0.000000   0.000000   0.000000
     6  C    0.000000  -0.000000   0.000000
     7  C   -0.000016  -0.000058   0.001817
     8  C    0.000037   0.000952  -0.000410
     9  C   -0.001056  -0.003276   0.000366
    10  H   -0.000050   0.004778   0.000033
    11  C    0.016179  -0.079396   0.011935
    12  C   -0.003713   0.011558  -0.078446
    13  C    0.000208  -0.000436  -0.010283
    14  H    0.000000  -0.000000   0.000000
    15  H    0.000000   0.000000   0.000000
    16  H    0.000000  -0.000000  -0.000000
    17  C   -0.000000  -0.000000  -0.000111
    18  C   -0.000000  -0.000000  -0.000012
    19  C    0.000000  -0.000000   0.000194
    20  C   -0.000000   0.000000  -0.000008
    21  C   -0.000000   0.000000   0.000115
    22  C    0.000000  -0.000000   0.000021
    23  H   -0.000000   0.000000  -0.000000
    24  H   -0.000000  -0.000000   0.000000
    25  H   -0.000000  -0.000000   0.000001
    26  H   -0.000000  -0.000000   0.000005
    27  H    0.000000  -0.000000   0.000000
    28  H   -0.000000  -0.000000  -0.000000
    29  N    0.000000  -0.000000  -0.000016
    30  H   -0.000003   0.000025   0.004946
    31  S   -0.000000  -0.000042  -0.000003
    32  C    0.016132  -0.004598   0.468661
    33  C   -0.065262   0.015938  -0.067824
    34  H   -0.009033  -0.000230  -0.010190
    35  C   -0.068554   0.463343  -0.005044
    36  C    0.449242  -0.067588   0.016226
    37  H    0.536632  -0.010042  -0.000223
    38  H   -0.010042   0.534602   0.000072
    39  H   -0.000223   0.000072   0.538761
 Mulliken charges:
               1
     1  C   -0.175449
     2  C   -0.177872
     3  C   -0.027431
     4  C    0.209462
     5  C   -0.247571
     6  C   -0.147562
     7  C    0.198254
     8  C    0.051731
     9  C   -0.325822
    10  H    0.125989
    11  C    0.155431
    12  C    0.180881
    13  C   -0.347330
    14  H    0.138916
    15  H    0.157117
    16  H    0.140951
    17  C    0.043942
    18  C   -0.180480
    19  C   -0.170699
    20  C   -0.118037
    21  C   -0.098758
    22  C   -0.116465
    23  H    0.141992
    24  H    0.143297
    25  H    0.134624
    26  H    0.128473
    27  H    0.144635
    28  H    0.140635
    29  N    0.064507
    30  H    0.158836
    31  S   -0.097231
    32  C   -0.269543
    33  C   -0.129009
    34  H    0.138122
    35  C   -0.242211
    36  C   -0.129665
    37  H    0.139523
    38  H    0.134401
    39  H    0.129417
 Sum of Mulliken charges =  -0.00000
 Mulliken charges with hydrogens summed into heavy atoms:
               1
     1  C   -0.034814
     2  C   -0.038956
     3  C   -0.027431
     4  C    0.209462
     5  C   -0.090454
     6  C   -0.006611
     7  C    0.198254
     8  C    0.051731
     9  C   -0.199833
    11  C    0.155431
    12  C    0.180881
    13  C   -0.188493
    17  C    0.043942
    18  C   -0.045856
    19  C   -0.042225
    20  C    0.023955
    21  C    0.044539
    22  C    0.028170
    29  N    0.064507
    31  S   -0.097231
    32  C   -0.140127
    33  C    0.009113
    35  C   -0.107810
    36  C    0.009857
 Electronic spatial extent (au):  <R**2>=           8353.4759
 Charge=             -0.0000 electrons
 Dipole moment (field-independent basis, Debye):
    X=             -1.4550    Y=              3.2376    Z=             -0.7271  Tot=              3.6232
 Quadrupole moment (field-independent basis, Debye-Ang):
   XX=           -132.7168   YY=           -125.9611   ZZ=           -146.1301
   XY=             -4.6677   XZ=              1.2449   YZ=             -0.7120
 Traceless Quadrupole moment (field-independent basis, Debye-Ang):
   XX=              2.2192   YY=              8.9749   ZZ=            -11.1941
   XY=             -4.6677   XZ=              1.2449   YZ=             -0.7120
 Octapole moment (field-independent basis, Debye-Ang**2):
  XXX=             24.7645  YYY=             45.5610  ZZZ=              9.4225  XYY=            -22.3542
  XXY=            -15.7573  XXZ=            -20.1448  XZZ=            -21.0021  YZZ=             26.0463
  YYZ=             -2.4039  XYZ=            -11.5909
 Hexadecapole moment (field-independent basis, Debye-Ang**3):
 XXXX=          -6398.8247 YYYY=          -3678.3230 ZZZZ=           -538.7680 XXXY=             80.0317
 XXXZ=             43.8284 YYYX=            -87.2393 YYYZ=             -3.2969 ZZZX=            -12.3545
 ZZZY=              6.2549 XXYY=          -1655.6938 XXZZ=          -1359.4540 YYZZ=           -749.2596
 XXYZ=              1.6347 YYXZ=             -4.5919 ZZXY=            -48.3229
 N-N= 1.999825670754D+03 E-N=-7.041919651356D+03  KE= 1.295841509846D+03
 Leave Link  601 at Wed Mar 31 14:12:41 2021, MaxMem=  5242880000 cpu:         4.0
 (Enter /opt/nce/packages/global/g09/l9999.exe)
 1\1\GINC-CN027\SP\RTPSSTPSS TD-FC\Gen\C22H15N1S1\PNG4RJV\31-Mar-2021\0
 \\#p TPSSTPSS chkbasis geom=allcheck Guess=Read int=ultrafine scrf=(SM
 D,solvent=n,n-DiMethylAcetamide) td=(NStates=30)\\Title\\0,1\C,0,-4.19
 54447635,-2.3831299861,-0.4972282747\C,0,-2.9644749621,-2.8856132754,-
 0.0753252178\C,0,-1.8948125385,-2.0254260523,0.1863002132\C,0,-2.01920
 25286,-0.6352818368,-0.0150758892\C,0,-3.2649283136,-0.1460512291,-0.4
 462453522\C,0,-4.3387294104,-1.00731309,-0.6722582594\C,0,0.4131059216
 ,-0.1634585105,0.1561985988\C,0,0.7744702496,-1.5341517625,0.356592962
 2\C,0,2.0861456904,-1.9461637081,0.2546507588\H,0,2.3299129128,-2.9964
 605227,0.3995031122\C,0,3.1349849112,-1.0238494001,0.0073495496\C,0,2.
 7917866897,0.3573572751,-0.1507748737\C,0,1.4299978457,0.7492687043,-0
 .0849071895\H,0,-2.8307376564,-3.9538514531,0.0768329137\H,0,-3.398709
 0666,0.9187877254,-0.5990836987\H,0,-5.2882304378,-0.5901328563,-0.996
 8034137\C,0,-1.2099536733,1.66384964,0.2245436022\C,0,-1.4306668991,2.
 3077070442,1.4430407218\C,0,-1.2500657137,2.3816759792,-0.9745176811\C
 ,0,-1.6947368692,3.6790059063,1.4624638133\C,0,-1.5139111751,3.7519901
 013,-0.9486922227\C,0,-1.7362566081,4.401455883,0.2682387006\H,0,-1.86
 7345451,4.1804501825,2.4110496018\H,0,-1.5458450408,4.3113851528,-1.87
 98858438\H,0,-1.3954161207,1.7342138167,2.365241733\H,0,-1.0762864517,
 1.8694135651,-1.9168281752\H,0,-1.9415920712,5.4685442998,0.2849198988
 \H,0,-5.024913544,-3.0594419142,-0.6821505607\N,0,-0.9376603866,0.2417
 575469,0.2310592649\H,0,1.1953890965,1.7989162352,-0.2259690736\S,0,-0
 .4287406882,-2.7074111163,0.8988071119\C,0,3.8319988611,1.2951573942,-
 0.3869203212\C,0,5.1476940298,0.8832000042,-0.4665407768\H,0,5.9337892
 951,1.6116251433,-0.6493223393\C,0,4.4945266317,-1.417994183,-0.078051
 2437\C,0,5.4834396922,-0.4825856465,-0.3118789032\H,0,6.5231704817,-0.
 7926361009,-0.3775576599\H,0,4.7448041171,-2.4696509073,0.0444663565\H
 ,0,3.5746849437,2.3453889517,-0.5067609432\\Version=ES64L-G09RevE.01\S
 tate=1-A\HF=-1300.8707996\RMSD=8.365e-09\PG=C01 [X(C22H15N1S1)]\\@


 I take a simple view of life: keep your eyes open and get on with it.
 -- Laurence Olivier
 Job cpu time:       1 days  4 hours 57 minutes 27.8 seconds.
 File lengths (MBytes):  RWF=   2656 Int=      0 D2E=      0 Chk=    629 Scr=      1
 Normal termination of Gaussian 09 at Wed Mar 31 14:12:42 2021.
