 Entering Gaussian System, Link 0=g09
 Input=/home/png4rjv/fotokatalizis/benchmark/OPCs/PTZ_3_wB97XD_def2TZVP.gjf
 Output=/home/png4rjv/fotokatalizis/benchmark/OPCs/PTZ_3_wB97XD_def2TZVP.log
 Initial command:
 /opt/nce/packages/global/g09/l1.exe "/home/png4rjv/fotokatalizis/benchmark/OPCs/PTZ_3_wB97XD_def2TZVP/Gau-4319.inp" -scrdir="/home/png4rjv/fotokatalizis/benchmark/OPCs/PTZ_3_wB97XD_def2TZVP/"
 Default is to use a total of  12 processors:
                               12 via shared-memory
                                1 via Linda
 Entering Link 1 = /opt/nce/packages/global/g09/l1.exe PID=      4320.
  
 Copyright (c) 1988,1990,1992,1993,1995,1998,2003,2009,2015,
            Gaussian, Inc.  All Rights Reserved.
  
 This is part of the Gaussian(R) 09 program.  It is based on
 the Gaussian(R) 03 system (copyright 2003, Gaussian, Inc.),
 the Gaussian(R) 98 system (copyright 1998, Gaussian, Inc.),
 the Gaussian(R) 94 system (copyright 1995, Gaussian, Inc.),
 the Gaussian 92(TM) system (copyright 1992, Gaussian, Inc.),
 the Gaussian 90(TM) system (copyright 1990, Gaussian, Inc.),
 the Gaussian 88(TM) system (copyright 1988, Gaussian, Inc.),
 the Gaussian 86(TM) system (copyright 1986, Carnegie Mellon
 University), and the Gaussian 82(TM) system (copyright 1983,
 Carnegie Mellon University). Gaussian is a federally registered
 trademark of Gaussian, Inc.
  
 This software contains proprietary and confidential information,
 including trade secrets, belonging to Gaussian, Inc.
  
 This software is provided under written license and may be
 used, copied, transmitted, or stored only in accord with that
 written license.
  
 The following legend is applicable only to US Government
 contracts under FAR:
  
                    RESTRICTED RIGHTS LEGEND
  
 Use, reproduction and disclosure by the US Government is
 subject to restrictions as set forth in subparagraphs (a)
 and (c) of the Commercial Computer Software - Restricted
 Rights clause in FAR 52.227-19.
  
 Gaussian, Inc.
 340 Quinnipiac St., Bldg. 40, Wallingford CT 06492
  
  
 ---------------------------------------------------------------
 Warning -- This program may not be used in any manner that
 competes with the business of Gaussian, Inc. or will provide
 assistance to any competitor of Gaussian, Inc.  The licensee
 of this program is prohibited from giving any competitor of
 Gaussian, Inc. access to this program.  By using this program,
 the user acknowledges that Gaussian, Inc. is engaged in the
 business of creating and licensing software in the field of
 computational chemistry and represents and warrants to the
 licensee that it is not a competitor of Gaussian, Inc. and that
 it will not use this program in any manner prohibited above.
 ---------------------------------------------------------------
  

 Cite this work as:
 Gaussian 09, Revision E.01,
 M. J. Frisch, G. W. Trucks, H. B. Schlegel, G. E. Scuseria, 
 M. A. Robb, J. R. Cheeseman, G. Scalmani, V. Barone, B. Mennucci, 
 G. A. Petersson, H. Nakatsuji, M. Caricato, X. Li, H. P. Hratchian, 
 A. F. Izmaylov, J. Bloino, G. Zheng, J. L. Sonnenberg, M. Hada, 
 M. Ehara, K. Toyota, R. Fukuda, J. Hasegawa, M. Ishida, T. Nakajima, 
 Y. Honda, O. Kitao, H. Nakai, T. Vreven, J. A. Montgomery, Jr., 
 J. E. Peralta, F. Ogliaro, M. Bearpark, J. J. Heyd, E. Brothers, 
 K. N. Kudin, V. N. Staroverov, T. Keith, R. Kobayashi, J. Normand, 
 K. Raghavachari, A. Rendell, J. C. Burant, S. S. Iyengar, J. Tomasi, 
 M. Cossi, N. Rega, J. M. Millam, M. Klene, J. E. Knox, J. B. Cross, 
 V. Bakken, C. Adamo, J. Jaramillo, R. Gomperts, R. E. Stratmann, 
 O. Yazyev, A. J. Austin, R. Cammi, C. Pomelli, J. W. Ochterski, 
 R. L. Martin, K. Morokuma, V. G. Zakrzewski, G. A. Voth, 
 P. Salvador, J. J. Dannenberg, S. Dapprich, A. D. Daniels, 
 O. Farkas, J. B. Foresman, J. V. Ortiz, J. Cioslowski, 
 and D. J. Fox, Gaussian, Inc., Wallingford CT, 2013.
 
 ******************************************
 Gaussian 09:  ES64L-G09RevE.01 30-Nov-2015
                 4-Apr-2021 
 ******************************************
 %chk=cp.chk
 Default route:  MaxDisk=500GB
 ----------------------------------------------------------------------
 #p wB97XD/def2TZVP opt freq=noraman nosymm int=ultrafine scrf=(SMD,sol
 vent=n,n-DiMethylAcetamide)
 ----------------------------------------------------------------------
 1/14=-1,18=20,19=15,26=4,38=1/1,3;
 2/9=110,12=2,15=1,17=6,18=5,40=1/2;
 3/5=44,7=101,11=2,16=1,25=1,30=1,70=32201,71=1,72=147,74=-58,75=-5/1,2,3;
 4//1;
 5/5=2,38=5,53=147/2;
 6/7=2,8=2,9=2,10=2,28=1/1;
 7/30=1/1,2,3,16;
 1/14=-1,18=20,19=15,26=4/3(2);
 2/9=110,15=1/2;
 99//99;
 2/9=110,15=1/2;
 3/5=44,7=101,11=2,16=1,25=1,30=1,70=32205,71=1,72=147,74=-58,75=-5/1,2,3;
 4/5=5,16=3,69=1/1;
 5/5=2,38=5,53=147/2;
 7/30=1/1,2,3,16;
 1/14=-1,18=20,19=15,26=4/3(-5);
 2/9=110,15=1/2;
 6/7=2,8=2,9=2,10=2,19=2,28=1/1;
 99/9=1/99;
 Leave Link    1 at Sun Apr  4 03:25:19 2021, MaxMem=           0 cpu:         0.9
 (Enter /opt/nce/packages/global/g09/l101.exe)
 -----
 Title
 -----
 Symbolic Z-matrix:
 Charge =  0 Multiplicity = 1
 C                    -4.19564  -2.38189  -0.50941 
 C                    -2.96572  -2.88317  -0.07943 
 C                    -1.89702  -2.02353   0.19069 
 C                    -2.0238   -0.63188  -0.00946 
 C                    -3.26911  -0.1429   -0.44488 
 C                    -4.34124  -1.00549  -0.68093 
 C                     0.41037  -0.16001   0.16694 
 C                     0.77082  -1.5332    0.36826 
 C                     2.08315  -1.94148   0.26378 
 H                     2.32512  -2.99764   0.40619 
 C                     3.13315  -1.01954   0.01023 
 C                     2.79076   0.36067  -0.14814 
 C                     1.42706   0.7515   -0.07619 
 H                    -2.82602  -3.95659   0.06879 
 H                    -3.40422   0.92687  -0.59258 
 H                    -5.29533  -0.58813  -1.0107 
 C                    -1.20918   1.65135   0.2301 
 C                    -1.42502   2.30435   1.44607 
 C                    -1.25127   2.37076  -0.97052 
 C                    -1.68499   3.6773    1.46336 
 C                    -1.51108   3.74235  -0.95079 
 C                    -1.72821   4.39702   0.26622 
 H                    -1.85396   4.18578   2.41532 
 H                    -1.54426   4.30245  -1.88816 
 H                    -1.38581   1.72408   2.36966 
 H                    -1.07865   1.84601  -1.91224 
 H                    -1.93134   5.47032   0.28031 
 H                    -5.02743  -3.06178  -0.7039 
 N                    -0.94104   0.24261   0.23148 
 H                     1.19072   1.80492  -0.21515 
 S                    -0.43433  -2.70736   0.9201 
 C                     3.8311    1.29818  -0.38901 
 C                     5.14661   0.88807  -0.47321 
 H                     5.93565   1.62053  -0.65997 
 C                     4.4939   -1.41288  -0.08081 
 C                     5.48264  -0.47916  -0.31869 
 H                     6.52714  -0.7918   -0.38784 
 H                     4.74624  -2.46945   0.04176 
 H                     3.5715    2.3533   -0.50875 
 
 NAtoms=     39 NQM=       39 NQMF=       0 NMMI=      0 NMMIF=      0
                NMic=       0 NMicF=      0.
                    Isotopes and Nuclear Properties:
 (Nuclear quadrupole moments (NQMom) in fm**2, nuclear magnetic moments (NMagM)
  in nuclear magnetons)

  Atom         1           2           3           4           5           6           7           8           9          10
 IAtWgt=          12          12          12          12          12          12          12          12          12           1
 AtmWgt=  12.0000000  12.0000000  12.0000000  12.0000000  12.0000000  12.0000000  12.0000000  12.0000000  12.0000000   1.0078250
 NucSpn=           0           0           0           0           0           0           0           0           0           1
 AtZEff=   0.0000000   0.0000000   0.0000000   0.0000000   0.0000000   0.0000000   0.0000000   0.0000000   0.0000000   0.0000000
 NQMom=    0.0000000   0.0000000   0.0000000   0.0000000   0.0000000   0.0000000   0.0000000   0.0000000   0.0000000   0.0000000
 NMagM=    0.0000000   0.0000000   0.0000000   0.0000000   0.0000000   0.0000000   0.0000000   0.0000000   0.0000000   2.7928460
 AtZNuc=   6.0000000   6.0000000   6.0000000   6.0000000   6.0000000   6.0000000   6.0000000   6.0000000   6.0000000   1.0000000

  Atom        11          12          13          14          15          16          17          18          19          20
 IAtWgt=          12          12          12           1           1           1          12          12          12          12
 AtmWgt=  12.0000000  12.0000000  12.0000000   1.0078250   1.0078250   1.0078250  12.0000000  12.0000000  12.0000000  12.0000000
 NucSpn=           0           0           0           1           1           1           0           0           0           0
 AtZEff=   0.0000000   0.0000000   0.0000000   0.0000000   0.0000000   0.0000000   0.0000000   0.0000000   0.0000000   0.0000000
 NQMom=    0.0000000   0.0000000   0.0000000   0.0000000   0.0000000   0.0000000   0.0000000   0.0000000   0.0000000   0.0000000
 NMagM=    0.0000000   0.0000000   0.0000000   2.7928460   2.7928460   2.7928460   0.0000000   0.0000000   0.0000000   0.0000000
 AtZNuc=   6.0000000   6.0000000   6.0000000   1.0000000   1.0000000   1.0000000   6.0000000   6.0000000   6.0000000   6.0000000

  Atom        21          22          23          24          25          26          27          28          29          30
 IAtWgt=          12          12           1           1           1           1           1           1          14           1
 AtmWgt=  12.0000000  12.0000000   1.0078250   1.0078250   1.0078250   1.0078250   1.0078250   1.0078250  14.0030740   1.0078250
 NucSpn=           0           0           1           1           1           1           1           1           2           1
 AtZEff=   0.0000000   0.0000000   0.0000000   0.0000000   0.0000000   0.0000000   0.0000000   0.0000000   0.0000000   0.0000000
 NQMom=    0.0000000   0.0000000   0.0000000   0.0000000   0.0000000   0.0000000   0.0000000   0.0000000   2.0440000   0.0000000
 NMagM=    0.0000000   0.0000000   2.7928460   2.7928460   2.7928460   2.7928460   2.7928460   2.7928460   0.4037610   2.7928460
 AtZNuc=   6.0000000   6.0000000   1.0000000   1.0000000   1.0000000   1.0000000   1.0000000   1.0000000   7.0000000   1.0000000

  Atom        31          32          33          34          35          36          37          38          39
 IAtWgt=          32          12          12           1          12          12           1           1           1
 AtmWgt=  31.9720718  12.0000000  12.0000000   1.0078250  12.0000000  12.0000000   1.0078250   1.0078250   1.0078250
 NucSpn=           0           0           0           1           0           0           1           1           1
 AtZEff=   0.0000000   0.0000000   0.0000000   0.0000000   0.0000000   0.0000000   0.0000000   0.0000000   0.0000000
 NQMom=    0.0000000   0.0000000   0.0000000   0.0000000   0.0000000   0.0000000   0.0000000   0.0000000   0.0000000
 NMagM=    0.0000000   0.0000000   0.0000000   2.7928460   0.0000000   0.0000000   2.7928460   2.7928460   2.7928460
 AtZNuc=  16.0000000   6.0000000   6.0000000   1.0000000   6.0000000   6.0000000   1.0000000   1.0000000   1.0000000
 Leave Link  101 at Sun Apr  4 03:25:19 2021, MaxMem=  5242880000 cpu:         4.2
 (Enter /opt/nce/packages/global/g09/l103.exe)

 GradGradGradGradGradGradGradGradGradGradGradGradGradGradGradGradGradGrad
 Berny optimization.
 Initialization pass.
                           ----------------------------
                           !    Initial Parameters    !
                           ! (Angstroms and Degrees)  !
 --------------------------                            --------------------------
 ! Name  Definition              Value          Derivative Info.                !
 --------------------------------------------------------------------------------
 ! R1    R(1,2)                  1.396          estimate D2E/DX2                !
 ! R2    R(1,6)                  1.3947         estimate D2E/DX2                !
 ! R3    R(1,28)                 1.0918         estimate D2E/DX2                !
 ! R4    R(2,3)                  1.3979         estimate D2E/DX2                !
 ! R5    R(2,14)                 1.0926         estimate D2E/DX2                !
 ! R6    R(3,4)                  1.4117         estimate D2E/DX2                !
 ! R7    R(3,31)                 1.7718         estimate D2E/DX2                !
 ! R8    R(4,5)                  1.4069         estimate D2E/DX2                !
 ! R9    R(4,29)                 1.4125         estimate D2E/DX2                !
 ! R10   R(5,6)                  1.3962         estimate D2E/DX2                !
 ! R11   R(5,15)                 1.0883         estimate D2E/DX2                !
 ! R12   R(6,16)                 1.0923         estimate D2E/DX2                !
 ! R13   R(7,8)                  1.4339         estimate D2E/DX2                !
 ! R14   R(7,13)                 1.3869         estimate D2E/DX2                !
 ! R15   R(7,29)                 1.4116         estimate D2E/DX2                !
 ! R16   R(8,9)                  1.3783         estimate D2E/DX2                !
 ! R17   R(8,31)                 1.7707         estimate D2E/DX2                !
 ! R18   R(9,10)                 1.0928         estimate D2E/DX2                !
 ! R19   R(9,11)                 1.4201         estimate D2E/DX2                !
 ! R20   R(11,12)                1.4308         estimate D2E/DX2                !
 ! R21   R(11,35)                1.4194         estimate D2E/DX2                !
 ! R22   R(12,13)                1.4204         estimate D2E/DX2                !
 ! R23   R(12,32)                1.421          estimate D2E/DX2                !
 ! R24   R(13,30)                1.0885         estimate D2E/DX2                !
 ! R25   R(17,18)                1.397          estimate D2E/DX2                !
 ! R26   R(17,19)                1.4003         estimate D2E/DX2                !
 ! R27   R(17,29)                1.434          estimate D2E/DX2                !
 ! R28   R(18,20)                1.3975         estimate D2E/DX2                !
 ! R29   R(18,25)                1.0914         estimate D2E/DX2                !
 ! R30   R(19,21)                1.3961         estimate D2E/DX2                !
 ! R31   R(19,26)                1.0918         estimate D2E/DX2                !
 ! R32   R(20,22)                1.3975         estimate D2E/DX2                !
 ! R33   R(20,23)                1.0924         estimate D2E/DX2                !
 ! R34   R(21,22)                1.3989         estimate D2E/DX2                !
 ! R35   R(21,24)                1.0925         estimate D2E/DX2                !
 ! R36   R(22,27)                1.0924         estimate D2E/DX2                !
 ! R37   R(32,33)                1.3805         estimate D2E/DX2                !
 ! R38   R(32,39)                1.0932         estimate D2E/DX2                !
 ! R39   R(33,34)                1.0927         estimate D2E/DX2                !
 ! R40   R(33,36)                1.4164         estimate D2E/DX2                !
 ! R41   R(35,36)                1.3806         estimate D2E/DX2                !
 ! R42   R(35,38)                1.0932         estimate D2E/DX2                !
 ! R43   R(36,37)                1.0925         estimate D2E/DX2                !
 ! A1    A(2,1,6)              118.9623         estimate D2E/DX2                !
 ! A2    A(2,1,28)             120.1646         estimate D2E/DX2                !
 ! A3    A(6,1,28)             120.8729         estimate D2E/DX2                !
 ! A4    A(1,2,3)              120.814          estimate D2E/DX2                !
 ! A5    A(1,2,14)             120.4785         estimate D2E/DX2                !
 ! A6    A(3,2,14)             118.6994         estimate D2E/DX2                !
 ! A7    A(2,3,4)              120.6758         estimate D2E/DX2                !
 ! A8    A(2,3,31)             118.2522         estimate D2E/DX2                !
 ! A9    A(4,3,31)             120.8639         estimate D2E/DX2                !
 ! A10   A(3,4,5)              117.7741         estimate D2E/DX2                !
 ! A11   A(3,4,29)             121.1512         estimate D2E/DX2                !
 ! A12   A(5,4,29)             121.072          estimate D2E/DX2                !
 ! A13   A(4,5,6)              121.1512         estimate D2E/DX2                !
 ! A14   A(4,5,15)             119.5707         estimate D2E/DX2                !
 ! A15   A(6,5,15)             119.276          estimate D2E/DX2                !
 ! A16   A(1,6,5)              120.5822         estimate D2E/DX2                !
 ! A17   A(1,6,16)             120.3572         estimate D2E/DX2                !
 ! A18   A(5,6,16)             119.0585         estimate D2E/DX2                !
 ! A19   A(8,7,13)             118.0166         estimate D2E/DX2                !
 ! A20   A(8,7,29)             120.4897         estimate D2E/DX2                !
 ! A21   A(13,7,29)            121.49           estimate D2E/DX2                !
 ! A22   A(7,8,9)              120.8207         estimate D2E/DX2                !
 ! A23   A(7,8,31)             120.5098         estimate D2E/DX2                !
 ! A24   A(9,8,31)             118.3726         estimate D2E/DX2                !
 ! A25   A(8,9,10)             119.1562         estimate D2E/DX2                !
 ! A26   A(8,9,11)             121.6819         estimate D2E/DX2                !
 ! A27   A(10,9,11)            119.1414         estimate D2E/DX2                !
 ! A28   A(9,11,12)            117.9732         estimate D2E/DX2                !
 ! A29   A(9,11,35)            122.7091         estimate D2E/DX2                !
 ! A30   A(12,11,35)           119.3161         estimate D2E/DX2                !
 ! A31   A(11,12,13)           119.3106         estimate D2E/DX2                !
 ! A32   A(11,12,32)           118.6841         estimate D2E/DX2                !
 ! A33   A(13,12,32)           122.0012         estimate D2E/DX2                !
 ! A34   A(7,13,12)            122.1282         estimate D2E/DX2                !
 ! A35   A(7,13,30)            119.95           estimate D2E/DX2                !
 ! A36   A(12,13,30)           117.9215         estimate D2E/DX2                !
 ! A37   A(18,17,19)           120.1002         estimate D2E/DX2                !
 ! A38   A(18,17,29)           119.1597         estimate D2E/DX2                !
 ! A39   A(19,17,29)           120.7397         estimate D2E/DX2                !
 ! A40   A(17,18,20)           119.9172         estimate D2E/DX2                !
 ! A41   A(17,18,25)           118.8481         estimate D2E/DX2                !
 ! A42   A(20,18,25)           121.2346         estimate D2E/DX2                !
 ! A43   A(17,19,21)           119.8815         estimate D2E/DX2                !
 ! A44   A(17,19,26)           119.2006         estimate D2E/DX2                !
 ! A45   A(21,19,26)           120.9179         estimate D2E/DX2                !
 ! A46   A(18,20,22)           120.075          estimate D2E/DX2                !
 ! A47   A(18,20,23)           119.7928         estimate D2E/DX2                !
 ! A48   A(22,20,23)           120.1322         estimate D2E/DX2                !
 ! A49   A(19,21,22)           120.0634         estimate D2E/DX2                !
 ! A50   A(19,21,24)           119.8155         estimate D2E/DX2                !
 ! A51   A(22,21,24)           120.1211         estimate D2E/DX2                !
 ! A52   A(20,22,21)           119.9626         estimate D2E/DX2                !
 ! A53   A(20,22,27)           120.0454         estimate D2E/DX2                !
 ! A54   A(21,22,27)           119.9921         estimate D2E/DX2                !
 ! A55   A(4,29,7)             123.3324         estimate D2E/DX2                !
 ! A56   A(4,29,17)            117.6902         estimate D2E/DX2                !
 ! A57   A(7,29,17)            117.3331         estimate D2E/DX2                !
 ! A58   A(3,31,8)             100.2322         estimate D2E/DX2                !
 ! A59   A(12,32,33)           120.7965         estimate D2E/DX2                !
 ! A60   A(12,32,39)           118.7836         estimate D2E/DX2                !
 ! A61   A(33,32,39)           120.4198         estimate D2E/DX2                !
 ! A62   A(32,33,34)           119.9604         estimate D2E/DX2                !
 ! A63   A(32,33,36)           120.4091         estimate D2E/DX2                !
 ! A64   A(34,33,36)           119.6305         estimate D2E/DX2                !
 ! A65   A(11,35,36)           120.678          estimate D2E/DX2                !
 ! A66   A(11,35,38)           118.8125         estimate D2E/DX2                !
 ! A67   A(36,35,38)           120.5095         estimate D2E/DX2                !
 ! A68   A(33,36,35)           120.1158         estimate D2E/DX2                !
 ! A69   A(33,36,37)           119.7465         estimate D2E/DX2                !
 ! A70   A(35,36,37)           120.1377         estimate D2E/DX2                !
 ! D1    D(6,1,2,3)              0.6868         estimate D2E/DX2                !
 ! D2    D(6,1,2,14)           179.6359         estimate D2E/DX2                !
 ! D3    D(28,1,2,3)          -179.141          estimate D2E/DX2                !
 ! D4    D(28,1,2,14)           -0.1918         estimate D2E/DX2                !
 ! D5    D(2,1,6,5)              0.8949         estimate D2E/DX2                !
 ! D6    D(2,1,6,16)          -179.6307         estimate D2E/DX2                !
 ! D7    D(28,1,6,5)          -179.2786         estimate D2E/DX2                !
 ! D8    D(28,1,6,16)            0.1958         estimate D2E/DX2                !
 ! D9    D(1,2,3,4)             -2.1877         estimate D2E/DX2                !
 ! D10   D(1,2,3,31)           172.6155         estimate D2E/DX2                !
 ! D11   D(14,2,3,4)           178.8447         estimate D2E/DX2                !
 ! D12   D(14,2,3,31)           -6.3521         estimate D2E/DX2                !
 ! D13   D(2,3,4,5)              2.04           estimate D2E/DX2                !
 ! D14   D(2,3,4,29)          -178.5576         estimate D2E/DX2                !
 ! D15   D(31,3,4,5)          -172.6267         estimate D2E/DX2                !
 ! D16   D(31,3,4,29)            6.7757         estimate D2E/DX2                !
 ! D17   D(2,3,31,8)           154.7103         estimate D2E/DX2                !
 ! D18   D(4,3,31,8)           -30.4967         estimate D2E/DX2                !
 ! D19   D(3,4,5,6)             -0.4667         estimate D2E/DX2                !
 ! D20   D(3,4,5,15)           178.9866         estimate D2E/DX2                !
 ! D21   D(29,4,5,6)          -179.8696         estimate D2E/DX2                !
 ! D22   D(29,4,5,15)           -0.4163         estimate D2E/DX2                !
 ! D23   D(3,4,29,7)            25.5814         estimate D2E/DX2                !
 ! D24   D(3,4,29,17)         -169.4462         estimate D2E/DX2                !
 ! D25   D(5,4,29,7)          -155.0359         estimate D2E/DX2                !
 ! D26   D(5,4,29,17)            9.9364         estimate D2E/DX2                !
 ! D27   D(4,5,6,1)             -1.001          estimate D2E/DX2                !
 ! D28   D(4,5,6,16)           179.5179         estimate D2E/DX2                !
 ! D29   D(15,5,6,1)           179.5441         estimate D2E/DX2                !
 ! D30   D(15,5,6,16)            0.063          estimate D2E/DX2                !
 ! D31   D(13,7,8,9)            -2.8201         estimate D2E/DX2                !
 ! D32   D(13,7,8,31)          170.8201         estimate D2E/DX2                !
 ! D33   D(29,7,8,9)           177.8728         estimate D2E/DX2                !
 ! D34   D(29,7,8,31)           -8.487          estimate D2E/DX2                !
 ! D35   D(8,7,13,12)            0.9038         estimate D2E/DX2                !
 ! D36   D(8,7,13,30)         -178.8672         estimate D2E/DX2                !
 ! D37   D(29,7,13,12)        -179.7964         estimate D2E/DX2                !
 ! D38   D(29,7,13,30)           0.4326         estimate D2E/DX2                !
 ! D39   D(8,7,29,4)           -24.5163         estimate D2E/DX2                !
 ! D40   D(8,7,29,17)          170.4615         estimate D2E/DX2                !
 ! D41   D(13,7,29,4)          156.2011         estimate D2E/DX2                !
 ! D42   D(13,7,29,17)          -8.8212         estimate D2E/DX2                !
 ! D43   D(7,8,9,10)          -178.9905         estimate D2E/DX2                !
 ! D44   D(7,8,9,11)             2.6731         estimate D2E/DX2                !
 ! D45   D(31,8,9,10)            7.2363         estimate D2E/DX2                !
 ! D46   D(31,8,9,11)         -171.1001         estimate D2E/DX2                !
 ! D47   D(7,8,31,3)            31.2111         estimate D2E/DX2                !
 ! D48   D(9,8,31,3)          -154.9956         estimate D2E/DX2                !
 ! D49   D(8,9,11,12)           -0.547          estimate D2E/DX2                !
 ! D50   D(8,9,11,35)          178.9908         estimate D2E/DX2                !
 ! D51   D(10,9,11,12)        -178.8837         estimate D2E/DX2                !
 ! D52   D(10,9,11,35)           0.6542         estimate D2E/DX2                !
 ! D53   D(9,11,12,13)          -1.3461         estimate D2E/DX2                !
 ! D54   D(9,11,12,32)         179.3767         estimate D2E/DX2                !
 ! D55   D(35,11,12,13)        179.0998         estimate D2E/DX2                !
 ! D56   D(35,11,12,32)         -0.1774         estimate D2E/DX2                !
 ! D57   D(9,11,35,36)        -179.4931         estimate D2E/DX2                !
 ! D58   D(9,11,35,38)           0.4509         estimate D2E/DX2                !
 ! D59   D(12,11,35,36)          0.0388         estimate D2E/DX2                !
 ! D60   D(12,11,35,38)        179.9828         estimate D2E/DX2                !
 ! D61   D(11,12,13,7)           1.1526         estimate D2E/DX2                !
 ! D62   D(11,12,13,30)       -179.0719         estimate D2E/DX2                !
 ! D63   D(32,12,13,7)        -179.5952         estimate D2E/DX2                !
 ! D64   D(32,12,13,30)          0.1803         estimate D2E/DX2                !
 ! D65   D(11,12,32,33)          0.1972         estimate D2E/DX2                !
 ! D66   D(11,12,32,39)       -179.9081         estimate D2E/DX2                !
 ! D67   D(13,12,32,33)       -179.0596         estimate D2E/DX2                !
 ! D68   D(13,12,32,39)          0.8351         estimate D2E/DX2                !
 ! D69   D(19,17,18,20)          0.0832         estimate D2E/DX2                !
 ! D70   D(19,17,18,25)       -179.894          estimate D2E/DX2                !
 ! D71   D(29,17,18,20)        179.8725         estimate D2E/DX2                !
 ! D72   D(29,17,18,25)         -0.1047         estimate D2E/DX2                !
 ! D73   D(18,17,19,21)         -0.0787         estimate D2E/DX2                !
 ! D74   D(18,17,19,26)        179.8883         estimate D2E/DX2                !
 ! D75   D(29,17,19,21)       -179.8646         estimate D2E/DX2                !
 ! D76   D(29,17,19,26)          0.1025         estimate D2E/DX2                !
 ! D77   D(18,17,29,4)          96.9081         estimate D2E/DX2                !
 ! D78   D(18,17,29,7)         -97.2062         estimate D2E/DX2                !
 ! D79   D(19,17,29,4)         -83.304          estimate D2E/DX2                !
 ! D80   D(19,17,29,7)          82.5816         estimate D2E/DX2                !
 ! D81   D(17,18,20,22)         -0.0463         estimate D2E/DX2                !
 ! D82   D(17,18,20,23)        179.9702         estimate D2E/DX2                !
 ! D83   D(25,18,20,22)        179.9304         estimate D2E/DX2                !
 ! D84   D(25,18,20,23)         -0.0531         estimate D2E/DX2                !
 ! D85   D(17,19,21,22)          0.0372         estimate D2E/DX2                !
 ! D86   D(17,19,21,24)       -179.9635         estimate D2E/DX2                !
 ! D87   D(26,19,21,22)       -179.9293         estimate D2E/DX2                !
 ! D88   D(26,19,21,24)          0.07           estimate D2E/DX2                !
 ! D89   D(18,20,22,21)          0.0049         estimate D2E/DX2                !
 ! D90   D(18,20,22,27)       -179.9911         estimate D2E/DX2                !
 ! D91   D(23,20,22,21)        179.9883         estimate D2E/DX2                !
 ! D92   D(23,20,22,27)         -0.0076         estimate D2E/DX2                !
 ! D93   D(19,21,22,20)         -0.0003         estimate D2E/DX2                !
 ! D94   D(19,21,22,27)        179.9956         estimate D2E/DX2                !
 ! D95   D(24,21,22,20)       -179.9996         estimate D2E/DX2                !
 ! D96   D(24,21,22,27)         -0.0037         estimate D2E/DX2                !
 ! D97   D(12,32,33,34)        179.9338         estimate D2E/DX2                !
 ! D98   D(12,32,33,36)         -0.0763         estimate D2E/DX2                !
 ! D99   D(39,32,33,34)          0.0409         estimate D2E/DX2                !
 ! D100  D(39,32,33,36)       -179.9693         estimate D2E/DX2                !
 ! D101  D(32,33,36,35)         -0.0674         estimate D2E/DX2                !
 ! D102  D(32,33,36,37)        179.9713         estimate D2E/DX2                !
 ! D103  D(34,33,36,35)        179.9225         estimate D2E/DX2                !
 ! D104  D(34,33,36,37)         -0.0388         estimate D2E/DX2                !
 ! D105  D(11,35,36,33)          0.0849         estimate D2E/DX2                !
 ! D106  D(11,35,36,37)       -179.9539         estimate D2E/DX2                !
 ! D107  D(38,35,36,33)       -179.8582         estimate D2E/DX2                !
 ! D108  D(38,35,36,37)          0.103          estimate D2E/DX2                !
 --------------------------------------------------------------------------------
 Trust Radius=3.00D-01 FncErr=1.00D-07 GrdErr=1.00D-06
 Number of steps in this run=    231 maximum allowed number of steps=    234.
 GradGradGradGradGradGradGradGradGradGradGradGradGradGradGradGradGradGrad

 Leave Link  103 at Sun Apr  4 03:25:19 2021, MaxMem=  5242880000 cpu:         0.2
 (Enter /opt/nce/packages/global/g09/l202.exe)
                          Input orientation:                          
 ---------------------------------------------------------------------
 Center     Atomic      Atomic             Coordinates (Angstroms)
 Number     Number       Type             X           Y           Z
 ---------------------------------------------------------------------
      1          6           0       -4.195640   -2.381889   -0.509409
      2          6           0       -2.965719   -2.883167   -0.079432
      3          6           0       -1.897024   -2.023528    0.190694
      4          6           0       -2.023805   -0.631880   -0.009455
      5          6           0       -3.269114   -0.142903   -0.444877
      6          6           0       -4.341245   -1.005492   -0.680932
      7          6           0        0.410374   -0.160012    0.166936
      8          6           0        0.770816   -1.533199    0.368262
      9          6           0        2.083152   -1.941475    0.263775
     10          1           0        2.325117   -2.997641    0.406185
     11          6           0        3.133153   -1.019539    0.010227
     12          6           0        2.790763    0.360674   -0.148140
     13          6           0        1.427059    0.751503   -0.076188
     14          1           0       -2.826023   -3.956585    0.068790
     15          1           0       -3.404222    0.926870   -0.592576
     16          1           0       -5.295333   -0.588129   -1.010701
     17          6           0       -1.209177    1.651351    0.230103
     18          6           0       -1.425016    2.304349    1.446070
     19          6           0       -1.251269    2.370763   -0.970518
     20          6           0       -1.684993    3.677298    1.463358
     21          6           0       -1.511081    3.742351   -0.950786
     22          6           0       -1.728209    4.397023    0.266220
     23          1           0       -1.853956    4.185776    2.415315
     24          1           0       -1.544263    4.302451   -1.888163
     25          1           0       -1.385807    1.724078    2.369655
     26          1           0       -1.078654    1.846005   -1.912236
     27          1           0       -1.931338    5.470316    0.280309
     28          1           0       -5.027429   -3.061776   -0.703902
     29          7           0       -0.941038    0.242611    0.231476
     30          1           0        1.190722    1.804919   -0.215152
     31         16           0       -0.434327   -2.707364    0.920097
     32          6           0        3.831095    1.298177   -0.389013
     33          6           0        5.146614    0.888074   -0.473214
     34          1           0        5.935646    1.620526   -0.659970
     35          6           0        4.493900   -1.412883   -0.080814
     36          6           0        5.482637   -0.479160   -0.318692
     37          1           0        6.527138   -0.791798   -0.387838
     38          1           0        4.746237   -2.469452    0.041762
     39          1           0        3.571500    2.353304   -0.508745
 ---------------------------------------------------------------------
                    Distance matrix (angstroms):
                    1          2          3          4          5
     1  C    0.000000
     2  C    1.396018   0.000000
     3  C    2.429445   1.397876   0.000000
     4  C    2.833611   2.441391   1.411672   0.000000
     5  C    2.423979   2.781123   2.413158   1.406942   0.000000
     6  C    1.394665   2.404067   2.787534   2.441515   1.396154
     7  C    5.158444   4.344453   2.966031   2.485760   3.730046
     8  C    5.114320   3.998067   2.718331   2.960566   4.349155
     9  C    6.341530   5.147395   3.981692   4.319351   5.690677
    10  H    6.613451   5.314308   4.338411   4.968169   6.337922
    11  C    7.472431   6.377883   5.132567   5.171545   6.478012
    12  C    7.514120   6.607898   5.270159   4.917770   6.088001
    13  C    6.451401   5.701520   4.338381   3.718422   4.794782
    14  H    2.165602   1.092571   2.148164   3.421014   3.873545
    15  H    3.403108   3.869365   3.404410   2.162240   1.088340
    16  H    2.162913   3.400230   3.879720   3.421594   2.150336
    17  C    5.072757   4.872690   3.738907   2.436011   2.813945
    18  C    5.784555   5.622388   4.530925   3.331447   3.600753
    19  C    5.609781   5.597960   4.590774   3.245970   3.265963
    20  C    6.849008   6.860041   5.845002   4.566507   4.554639
    21  C    6.701342   6.839058   5.890440   4.503653   4.294394
    22  C    7.255582   7.392704   6.423214   5.045120   4.846749
    23  H    7.561198   7.578241   6.595927   5.396125   5.377809
    24  H    7.321964   7.544876   6.668140   5.301615   4.981903
    25  H    5.748316   5.451684   4.365062   3.408481   3.867047
    26  H    5.436783   5.411585   4.479434   3.264016   3.302577
    27  H    8.210228   8.424965   7.494458   6.109772   5.815820
    28  H    1.091763   2.161599   3.417264   3.925355   3.417395
    29  N    4.246098   3.737176   2.459870   1.412504   2.454794
    30  H    6.828532   6.266783   4.935169   4.038995   4.872055
    31  S    4.036942   2.727253   1.771763   2.774552   4.059019
    32  C    8.830960   7.985998   6.646889   6.176491   7.245192
    33  C    9.898064   8.954734   7.650558   7.344402   8.478691
    34  H   10.894262   9.992726   8.680638   8.297552   9.374623
    35  C    8.753900   7.603134   6.425769   6.564719   7.874629
    36  C    9.865384   8.786991   7.556715   7.514361   8.759117
    37  H   10.840717   9.725393   8.533368   8.560804   9.817885
    38  H    8.959276   7.723996   6.659876   7.015181   8.360353
    39  H    9.096731   8.386905   7.039221   6.361450   7.282110
                    6          7          8          9         10
     6  C    0.000000
     7  C    4.900163   0.000000
     8  C    5.245231   1.433908   0.000000
     9  C    6.560595   2.445644   1.378344   0.000000
    10  H    7.042078   3.431562   2.135856   1.092847   0.000000
    11  C    7.506299   2.859523   2.443905   1.420125   2.173153
    12  C    7.281196   2.456957   2.816667   2.443415   3.435460
    13  C    6.060204   1.386945   2.418275   2.792519   3.885264
    14  H    3.401019   4.989776   4.347382   5.310244   5.250491
    15  H    2.149382   4.038479   4.940252   6.250761   7.016027
    16  H    1.092348   5.841678   6.292286   7.609065   8.116931
    17  C    4.206976   2.430632   3.752442   4.873291   5.842548
    18  C    4.897303   3.328350   4.550838   5.633124   6.576926
    19  C    4.585947   3.234143   4.595876   5.589028   6.595878
    20  C    5.795013   4.560287   5.863404   6.870846   7.858334
    21  C    5.533955   4.491072   5.897319   6.833707   7.873073
    22  C    6.075543   5.034875   6.436076   7.396150   8.433866
    23  H    6.536254   5.391500   6.617139   7.594284   8.550014
    24  H    6.120031   5.287496   6.671271   7.534958   8.574816
    25  H    5.048886   3.409990   4.389356   5.468518   6.318291
    26  H    4.504625   3.250271   4.476632   5.392314   6.357801
    27  H    6.976226   6.098939   7.507236   8.429178   9.478373
    28  H    2.167875   6.224813   6.091447   7.263046   7.436151
    29  N    3.735192   1.411590   2.470355   3.730550   4.604077
    30  H    6.222381   2.148462   3.414634   3.880885   4.973680
    31  S    4.552326   2.787431   1.770750   2.712019   2.821861
    32  C    8.495837   3.759884   4.237389   3.738553   4.621078
    33  C    9.677200   4.892877   5.071317   4.234891   4.881902
    34  H   10.607115   5.863678   6.138299   5.327557   5.958194
    35  C    8.864869   4.278580   3.751999   2.491958   2.729880
    36  C    9.844638   5.105442   4.876901   3.746216   4.103429
    37  H   10.874434   6.174280   5.852914   4.636310   4.811777
    38  H    9.232973   4.914152   4.097212   2.723981   2.504718
    39  H    8.597831   4.094633   4.870100   4.610542   5.569846
                   11         12         13         14         15
    11  C    0.000000
    12  C    1.430839   0.000000
    13  C    2.460653   1.420427   0.000000
    14  H    6.643903   7.087600   6.346323   0.000000
    15  H    6.847565   6.236661   4.861963   4.961840   0.000000
    16  H    8.501046   8.187135   6.917983   4.313848   2.458933
    17  C    5.102728   4.220004   2.802371   5.838592   2.453548
    18  C    5.821235   4.908378   3.586493   6.561937   3.157655
    19  C    5.628425   4.588549   3.255038   6.602677   2.619709
    20  C    6.883778   5.799079   4.540413   7.843656   3.840243
    21  C    6.720718   5.530447   4.282845   7.876689   3.411632
    22  C    7.282686   6.073295   4.833506   8.427748   3.948229
    23  H    7.599408   6.540346   5.363476   8.529310   4.698000
    24  H    7.335236   6.112098   4.972046   8.583953   4.066023
    25  H    5.789243   5.063783   3.852306   6.295882   3.672105
    26  H    5.444862   4.504512   3.293570   6.375564   2.827469
    27  H    8.236518   6.970671   5.802854   9.471624   4.855329
    28  H    8.442500   8.552553   7.523001   2.498785   4.307725
    29  N    4.270949   3.752917   2.441621   4.605744   2.685991
    30  H    3.435316   2.156494   1.088509   7.029210   4.693286
    31  S    4.050127   4.577684   4.052296   2.829397   4.931137
    32  C    2.453227   1.420993   2.485176   8.493487   7.247697
    33  C    2.815445   2.435951   3.743177   9.344915   8.551757
    34  H    3.908078   3.426293   4.628537  10.411633   9.365833
    35  C    1.419380   2.459820   3.753678   7.750747   8.253283
    36  C    2.433161   2.824995   4.245121   9.015346   9.001566
    37  H    3.424829   3.917416   5.337575   9.884635  10.081054
    38  H    2.169166   3.445222   4.626598   7.716956   8.852535
    39  H    3.440574   2.170290   2.711365   9.004252   7.120565
                   16         17         18         19         20
    16  H    0.000000
    17  C    4.821985   0.000000
    18  C    5.420471   1.396986   0.000000
    19  C    5.011099   1.400291   2.423736   0.000000
    20  C    6.111415   2.419045   1.397453   2.796230   0.000000
    21  C    5.751279   2.420315   2.796458   1.396118   2.421274
    22  C    6.261521   2.794533   2.421416   2.421306   1.397502
    23  H    6.809613   3.407961   2.159443   3.888620   1.092392
    24  H    6.225611   3.409936   3.888925   2.158550   3.412230
    25  H    5.661934   2.148062   1.091449   3.404858   2.173926
    26  H    4.951581   2.155120   3.407090   1.091787   3.887919
    27  H    7.048966   3.886969   3.411555   3.410908   2.162222
    28  H    2.506956   6.137180   6.811392   6.621401   7.828411
    29  N    4.603587   1.434032   2.441360   2.463750   3.723987
    30  H    6.959058   2.445680   3.138658   2.618029   3.820070
    31  S    5.643449   4.480500   5.135697   5.479890   6.528645
    32  C    9.340039   5.090420   5.657439   5.226759   6.286392
    33  C   10.559466   6.439979   6.991123   6.586242   7.628954
    34  H   11.451465   7.200116   7.686505   7.232637   8.173920
    35  C    9.867826   6.481611   7.154212   6.936463   8.153105
    36  C   10.800712   7.044191   7.653625   7.341146   8.475067
    37  H   11.840619   8.136424   8.728465   8.416943   9.530941
    38  H   10.270355   7.244546   7.927523   7.773189   9.009117
    39  H    9.355464   4.888099   5.365526   4.844857   5.768264
                   21         22         23         24         25
    21  C    0.000000
    22  C    1.398872   0.000000
    23  H    3.412451   2.163110   0.000000
    24  H    1.092469   2.164289   4.316184   0.000000
    25  H    3.887730   3.418525   2.506233   4.980174   0.000000
    26  H    2.169679   3.416912   4.980293   2.500300   4.294625
    27  H    2.162886   1.092437   2.492846   2.493192   4.324034
    28  H    7.663015   8.213384   8.504555   8.232057   6.753707
    29  N    3.737763   4.228473   4.599035   4.619421   2.639010
    30  H    3.405076   3.933304   4.675243   4.064084   3.650516
    31  S    6.801355   7.250793   7.194887   7.632548   4.758593
    32  C    5.901561   6.398284   6.965794   6.337790   5.916731
    33  C    7.259468   7.753881   8.259928   7.643814   7.173098
    34  H    7.748578   8.203745   8.758755   8.040536   7.924205
    35  C    7.961977   8.519981   8.824450   8.508288   7.100442
    36  C    8.193460   8.724424   9.113837   8.643169   7.697856
    37  H    9.245993   9.772533  10.142813   9.661773   8.749177
    38  H    8.872749   9.440197   9.668938   9.442122   7.785033
    39  H    5.287483   5.732737   6.429903   5.645618   5.766802
                   26         27         28         29         30
    26  H    0.000000
    27  H    4.320874   0.000000
    28  H    6.413985   9.129679   0.000000
    29  N    2.680543   5.320900   5.337836   0.000000
    30  H    2.834052   4.840235   7.911321   2.680426   0.000000
    31  S    5.400966   8.338155   4.884626   3.071369   4.928516
    32  C    5.169716   7.145654   9.878350   4.926711   2.694176
    33  C    6.460834   8.465350  10.916304   6.162201   4.068941
    34  H    7.128774   8.808771  11.921195   7.069803   4.769294
    35  C    6.710277   9.422978   9.683119   5.690056   4.613381
    36  C    7.141170   9.524815  10.829579   6.487468   4.862949
    37  H    8.193282  10.545440  11.779674   7.564866   5.937179
    38  H    7.508038  10.377226   9.819950   6.303679   5.565783
    39  H    4.883756   6.373350  10.163796   5.036462   2.460696
                   31         32         33         34         35
    31  S    0.000000
    32  C    5.995995   0.000000
    33  C    6.783465   1.380531   0.000000
    34  H    7.861539   2.146267   1.092673   0.000000
    35  C    5.192776   2.807872   2.423720   3.408170   0.000000
    36  C    6.442822   2.427234   1.416375   2.174941   1.380589
    37  H    7.337716   3.411253   2.176030   2.498645   2.148038
    38  H    5.259878   3.901036   3.420304   4.316832   1.093177
    39  H    6.610492   1.093169   2.151545   2.479722   3.901040
                   36         37         38         39
    36  C    0.000000
    37  H    1.092477   0.000000
    38  H    2.152551   2.484087   0.000000
    39  H    3.422195   4.317648   4.994201   0.000000
 Symmetry turned off by external request.
 Stoichiometry    C22H15NS
 Framework group  C1[X(C22H15NS)]
 Deg. of freedom   111
 Full point group                 C1      NOp   1
 Rotational constants (GHZ):      0.3129755      0.1882478      0.1258670
 Leave Link  202 at Sun Apr  4 03:25:19 2021, MaxMem=  5242880000 cpu:         0.1
 (Enter /opt/nce/packages/global/g09/l301.exe)
 Standard basis: def2TZVP (5D, 7F)
 Ernie: Thresh=  0.10000D-02 Tol=  0.10000D-05 Strict=F.
   840 basis functions,  1362 primitive gaussians,   960 cartesian basis functions
    85 alpha electrons       85 beta electrons
       nuclear repulsion energy      1999.4749647159 Hartrees.
 IExCor= 4639 DFT=T Ex+Corr=wB97XD ExCW=0 ScaHFX=  1.000000
 ScaDFX=  1.000000  1.000000  1.000000  1.000000 ScalE2=  1.000000  1.000000
 IRadAn=      5 IRanWt=     -1 IRanGd=            0 ICorTp=0 IEmpDi=121
  HFx wShort=  0.000000 wLong=  0.200000 cFull=  0.222036 cShort=  0.000000 cLong=  0.777964
  DFx wShort=  0.000000 wLong=  0.200000 cFull=  0.000000 cShort=  0.000000 cLong=  1.000000
 NAtoms=   39 NActive=   39 NUniq=   39 SFac= 1.00D+00 NAtFMM=   60 NAOKFM=F Big=F
 Integral buffers will be    131072 words long.
 Raffenetti 2 integral format.
 Two-electron integral symmetry is turned off.
 R6Disp:  Grimme-D2 Dispersion energy=       -0.0294436448 Hartrees.
 Nuclear repulsion after empirical dispersion term =     1999.4455210711 Hartrees.
 ------------------------------------------------------------------------------
 Polarizable Continuum Model (PCM)
 =================================
 Model                : PCM (using non-symmetric T matrix).
 Atomic radii         : SMD-Coulomb.
 Polarization charges : Total charges.
 Charge compensation  : None.
 Solution method      : On-the-fly selection.
 Cavity type          : VdW (van der Waals Surface) (Alpha=1.000).
 Cavity algorithm     : GePol (No added spheres)
                        Default sphere list used, NSphG=   39.
                        Lebedev-Laikov grids with approx.  5.0 points / Ang**2.
                        Smoothing algorithm: York/Karplus (Gamma=1.0000).
                        Polarization charges: spherical gaussians, with
                                              point-specific exponents (IZeta= 3).
                        Self-potential: point-specific (ISelfS= 7).
                        Self-field    : sphere-specific E.n sum rule (ISelfD= 2).
 1st derivatives      : Analytical E(r).r(x)/FMM algorithm (CHGder, D1EAlg=3).
                        Cavity 1st derivative terms included.
 Solvent              : n,n-DiMethylAcetamide, Eps=  37.781000 Eps(inf)=   2.067844
 ------------------------------------------------------------------------------
 GePol: Number of generator spheres                  =      39
 GePol: Total number of spheres                      =      39
 GePol: Number of exposed spheres                    =      39 (100.00%)
 GePol: Number of points                             =    3047
 GePol: Average weight of points                     =       0.11
 GePol: Minimum weight of points                     =   0.64D-10
 GePol: Maximum weight of points                     =    0.19854
 GePol: Number of points with low weight             =     166
 GePol: Fraction of low-weight points (<1% of avg)   =       5.45%
 GePol: Cavity surface area                          =    340.370 Ang**2
 GePol: Cavity volume                                =    342.163 Ang**3
 ------------------------------------------------------------------------------
 Atomic radii for non-electrostatic terms: SMD-CDS.
 ------------------------------------------------------------------------------
 PCM non-electrostatic energy =        -0.0064338808 Hartrees.
 Nuclear repulsion after PCM non-electrostatic terms =     1999.4390871903 Hartrees.
 Leave Link  301 at Sun Apr  4 03:25:19 2021, MaxMem=  5242880000 cpu:         1.5
 (Enter /opt/nce/packages/global/g09/l302.exe)
 NPDir=0 NMtPBC=     1 NCelOv=     1 NCel=       1 NClECP=     1 NCelD=      1
         NCelK=      1 NCelE2=     1 NClLst=     1 CellRange=     0.0.
 One-electron integrals computed using PRISM.
   1 Symmetry operations used in ECPInt.
 ECPInt:  NShTT=   53301 NPrTT=  167340 LenC2=   45736 LenP2D=  100262.
 LDataN:  DoStor=T MaxTD1= 6 Len=  172
 NBasis=   840 RedAO= T EigKep=  4.60D-06  NBF=   840
 NBsUse=   840 1.00D-06 EigRej= -1.00D+00 NBFU=   840
 Precomputing XC quadrature grid using
 IXCGrd= 4 IRadAn=           5 IRanWt=          -1 IRanGd=           0 AccXCQ= 0.00D+00.
 Generated NRdTot=       0 NPtTot=           0 NUsed=           0 NTot=          32
 NSgBfM=   944   944   944   944   944 MxSgAt=    39 MxSgA2=    39.
 Leave Link  302 at Sun Apr  4 03:25:21 2021, MaxMem=  5242880000 cpu:        18.3
 (Enter /opt/nce/packages/global/g09/l303.exe)
 DipDrv:  MaxL=1.
 Leave Link  303 at Sun Apr  4 03:25:21 2021, MaxMem=  5242880000 cpu:         2.0
 (Enter /opt/nce/packages/global/g09/l401.exe)
 ExpMin= 9.52D-02 ExpMax= 6.07D+04 ExpMxC= 2.07D+03 IAcc=3 IRadAn=         5 AccDes= 0.00D+00
 Harris functional with IExCor= 4639 and IRadAn=       5 diagonalized for initial guess.
 HarFok:  IExCor= 4639 AccDes= 0.00D+00 IRadAn=         5 IDoV= 1 UseB2=F ITyADJ=14
 ICtDFT=  3500011 ScaDFX=  1.000000  1.000000  1.000000  1.000000
 FoFCou: FMM=F IPFlag=           0 FMFlag=      100000 FMFlg1=           0
         NFxFlg=           0 DoJE=T BraDBF=F KetDBF=T FulRan=T
         wScrn=  0.000000 ICntrl=     500 IOpCl=  0 I1Cent=   200000004 NGrid=           0
         NMat0=    1 NMatS0=      1 NMatT0=    0 NMatD0=    1 NMtDS0=    0 NMtDT0=    0
 Symmetry not used in FoFCou.
 Harris En= -1252.85460920756    
 JPrj=0 DoOrth=F DoCkMO=F.
 Leave Link  401 at Sun Apr  4 03:25:28 2021, MaxMem=  5242880000 cpu:        87.0
 (Enter /opt/nce/packages/global/g09/l502.exe)
 Closed shell SCF:
 Using DIIS extrapolation, IDIIS=  1040.
 Two-electron integral symmetry not used.
 IVT=     2800708 IEndB=     2800708 NGot=  5242880000 MDV=  5241018493
 LenX=  5241018493 LenY=  5240095933
 Requested convergence on RMS density matrix=1.00D-08 within 128 cycles.
 Requested convergence on MAX density matrix=1.00D-06.
 Requested convergence on             energy=1.00D-06.
 No special actions if energy rises.
 Fock matrices will be formed incrementally for  20 cycles.

 Cycle   1  Pass 1  IDiag  1:
 FoFJK:  IHMeth= 1 ICntrl=       0 DoSepK=T KAlg= 0 I1Cent=   0 FoldK=F
 IRaf=         1 NMat=   1 IRICut=       1 DoRegI=T DoRafI=F ISym2E= 0.
 FoFCou: FMM=F IPFlag=           0 FMFlag=      100000 FMFlg1=           0
         NFxFlg=           0 DoJE=T BraDBF=F KetDBF=F FulRan=T
         wScrn=  0.000000 ICntrl=     500 IOpCl=  0 I1Cent=           0 NGrid=           0
         NMat0=    1 NMatS0=      1 NMatT0=    0 NMatD0=    1 NMtDS0=    0 NMtDT0=    0
 Symmetry not used in FoFCou.
 Inv3:  Mode=1 IEnd=    27852627.
 Iteration    1 A*A^-1 deviation from unit magnitude is 6.66D-15 for   3047.
 Iteration    1 A*A^-1 deviation from orthogonality  is 4.08D-15 for   1379   1250.
 Iteration    1 A^-1*A deviation from unit magnitude is 6.44D-15 for   3047.
 Iteration    1 A^-1*A deviation from orthogonality  is 2.13D-08 for   2066   2059.
 Iteration    2 A*A^-1 deviation from unit magnitude is 3.11D-15 for    224.
 Iteration    2 A*A^-1 deviation from orthogonality  is 3.65D-15 for    136    118.
 Iteration    2 A^-1*A deviation from unit magnitude is 9.99D-16 for   2973.
 Iteration    2 A^-1*A deviation from orthogonality  is 9.63D-16 for   3018    118.
 E= -1299.88875276802    
 DIIS: error= 3.52D-02 at cycle   1 NSaved=   1.
 NSaved= 1 IEnMin= 1 EnMin= -1299.88875276802     IErMin= 1 ErrMin= 3.52D-02
 ErrMax= 3.52D-02  0.00D+00 EMaxC= 1.00D-01 BMatC= 2.55D+00 BMatP= 2.55D+00
 IDIUse=3 WtCom= 6.48D-01 WtEn= 3.52D-01
 Coeff-Com:  0.100D+01
 Coeff-En:   0.100D+01
 Coeff:      0.100D+01
 Gap=     0.327 Goal=   None    Shift=    0.000
 GapD=    0.327 DampG=1.000 DampE=0.500 DampFc=0.5000 IDamp=-1.
 Damping current iteration by 5.00D-01
 RMSDP=3.47D-03 MaxDP=2.57D-01              OVMax= 2.36D-01

 Cycle   2  Pass 1  IDiag  1:
 RMSU=  1.43D-03    CP:  8.68D-01
 E= -1300.11489360181     Delta-E=       -0.226140833789 Rises=F Damp=T
 DIIS: error= 1.73D-02 at cycle   2 NSaved=   2.
 NSaved= 2 IEnMin= 2 EnMin= -1300.11489360181     IErMin= 2 ErrMin= 1.73D-02
 ErrMax= 1.73D-02  0.00D+00 EMaxC= 1.00D-01 BMatC= 4.76D-01 BMatP= 2.55D+00
 IDIUse=3 WtCom= 8.27D-01 WtEn= 1.73D-01
 Coeff-Com: -0.539D+00 0.154D+01
 Coeff-En:   0.000D+00 0.100D+01
 Coeff:     -0.446D+00 0.145D+01
 Gap=     0.416 Goal=   None    Shift=    0.000
 RMSDP=1.21D-03 MaxDP=8.88D-02 DE=-2.26D-01 OVMax= 2.29D-01

 Cycle   3  Pass 1  IDiag  1:
 RMSU=  8.63D-04    CP:  7.88D-01  1.42D+00
 E= -1300.24643362009     Delta-E=       -0.131540018274 Rises=F Damp=F
 DIIS: error= 9.42D-03 at cycle   3 NSaved=   3.
 NSaved= 3 IEnMin= 3 EnMin= -1300.24643362009     IErMin= 3 ErrMin= 9.42D-03
 ErrMax= 9.42D-03  0.00D+00 EMaxC= 1.00D-01 BMatC= 1.20D-01 BMatP= 4.76D-01
 IDIUse=3 WtCom= 9.06D-01 WtEn= 9.42D-02
 Coeff-Com: -0.317D+00 0.727D+00 0.589D+00
 Coeff-En:   0.000D+00 0.000D+00 0.100D+01
 Coeff:     -0.287D+00 0.659D+00 0.628D+00
 Gap=     0.289 Goal=   None    Shift=    0.000
 RMSDP=6.72D-04 MaxDP=4.58D-02 DE=-1.32D-01 OVMax= 1.22D-01

 Cycle   4  Pass 1  IDiag  1:
 RMSU=  3.04D-04    CP:  7.50D-01  1.72D+00  6.46D-01
 E= -1300.35097614309     Delta-E=       -0.104542523007 Rises=F Damp=F
 DIIS: error= 2.76D-03 at cycle   4 NSaved=   4.
 NSaved= 4 IEnMin= 4 EnMin= -1300.35097614309     IErMin= 4 ErrMin= 2.76D-03
 ErrMax= 2.76D-03  0.00D+00 EMaxC= 1.00D-01 BMatC= 1.01D-02 BMatP= 1.20D-01
 IDIUse=3 WtCom= 9.72D-01 WtEn= 2.76D-02
 Coeff-Com: -0.106D+00 0.233D+00 0.312D+00 0.561D+00
 Coeff-En:   0.000D+00 0.000D+00 0.000D+00 0.100D+01
 Coeff:     -0.103D+00 0.226D+00 0.304D+00 0.573D+00
 Gap=     0.273 Goal=   None    Shift=    0.000
 RMSDP=1.17D-04 MaxDP=1.03D-02 DE=-1.05D-01 OVMax= 2.21D-02

 Cycle   5  Pass 1  IDiag  1:
 RMSU=  8.08D-05    CP:  7.50D-01  1.72D+00  7.17D-01  8.08D-01
 E= -1300.35956913415     Delta-E=       -0.008592991058 Rises=F Damp=F
 DIIS: error= 3.39D-04 at cycle   5 NSaved=   5.
 NSaved= 5 IEnMin= 5 EnMin= -1300.35956913415     IErMin= 5 ErrMin= 3.39D-04
 ErrMax= 3.39D-04  0.00D+00 EMaxC= 1.00D-01 BMatC= 1.08D-04 BMatP= 1.01D-02
 IDIUse=3 WtCom= 9.97D-01 WtEn= 3.39D-03
 Coeff-Com:  0.110D-01-0.256D-01 0.954D-03 0.668D-01 0.947D+00
 Coeff-En:   0.000D+00 0.000D+00 0.000D+00 0.000D+00 0.100D+01
 Coeff:      0.109D-01-0.255D-01 0.951D-03 0.666D-01 0.947D+00
 Gap=     0.273 Goal=   None    Shift=    0.000
 RMSDP=5.63D-05 MaxDP=3.69D-03 DE=-8.59D-03 OVMax= 1.18D-02

 Cycle   6  Pass 1  IDiag  1:
 RMSU=  3.72D-05    CP:  7.48D-01  1.73D+00  7.26D-01  9.06D-01  1.32D+00
 E= -1300.35984719004     Delta-E=       -0.000278055892 Rises=F Damp=F
 DIIS: error= 1.50D-04 at cycle   6 NSaved=   6.
 NSaved= 6 IEnMin= 6 EnMin= -1300.35984719004     IErMin= 6 ErrMin= 1.50D-04
 ErrMax= 1.50D-04  0.00D+00 EMaxC= 1.00D-01 BMatC= 2.24D-05 BMatP= 1.08D-04
 IDIUse=3 WtCom= 9.98D-01 WtEn= 1.50D-03
 Coeff-Com:  0.138D-01-0.304D-01-0.327D-01-0.570D-01 0.254D+00 0.852D+00
 Coeff-En:   0.000D+00 0.000D+00 0.000D+00 0.000D+00 0.000D+00 0.100D+01
 Coeff:      0.138D-01-0.304D-01-0.327D-01-0.569D-01 0.254D+00 0.852D+00
 Gap=     0.274 Goal=   None    Shift=    0.000
 RMSDP=2.37D-05 MaxDP=1.59D-03 DE=-2.78D-04 OVMax= 6.21D-03

 Cycle   7  Pass 1  IDiag  1:
 RMSU=  9.54D-06    CP:  7.48D-01  1.73D+00  7.28D-01  9.23D-01  1.50D+00
                    CP:  1.39D+00
 E= -1300.35991096712     Delta-E=       -0.000063777076 Rises=F Damp=F
 DIIS: error= 6.43D-05 at cycle   7 NSaved=   7.
 NSaved= 7 IEnMin= 7 EnMin= -1300.35991096712     IErMin= 7 ErrMin= 6.43D-05
 ErrMax= 6.43D-05  0.00D+00 EMaxC= 1.00D-01 BMatC= 3.63D-06 BMatP= 2.24D-05
 IDIUse=1 WtCom= 1.00D+00 WtEn= 0.00D+00
 Coeff-Com:  0.167D-02-0.347D-02-0.721D-02-0.248D-01-0.665D-01 0.241D+00
 Coeff-Com:  0.859D+00
 Coeff:      0.167D-02-0.347D-02-0.721D-02-0.248D-01-0.665D-01 0.241D+00
 Coeff:      0.859D+00
 Gap=     0.274 Goal=   None    Shift=    0.000
 RMSDP=1.31D-05 MaxDP=9.54D-04 DE=-6.38D-05 OVMax= 3.32D-03

 Cycle   8  Pass 1  IDiag  1:
 RMSU=  4.40D-06    CP:  7.48D-01  1.73D+00  7.26D-01  9.23D-01  1.57D+00
                    CP:  1.66D+00  1.45D+00
 E= -1300.35992431762     Delta-E=       -0.000013350496 Rises=F Damp=F
 DIIS: error= 3.48D-05 at cycle   8 NSaved=   8.
 NSaved= 8 IEnMin= 8 EnMin= -1300.35992431762     IErMin= 8 ErrMin= 3.48D-05
 ErrMax= 3.48D-05  0.00D+00 EMaxC= 1.00D-01 BMatC= 7.12D-07 BMatP= 3.63D-06
 IDIUse=1 WtCom= 1.00D+00 WtEn= 0.00D+00
 Coeff-Com: -0.226D-02 0.500D-02 0.542D-02 0.585D-02-0.732D-01-0.108D+00
 Coeff-Com:  0.232D+00 0.936D+00
 Coeff:     -0.226D-02 0.500D-02 0.542D-02 0.585D-02-0.732D-01-0.108D+00
 Coeff:      0.232D+00 0.936D+00
 Gap=     0.274 Goal=   None    Shift=    0.000
 RMSDP=8.63D-06 MaxDP=6.35D-04 DE=-1.34D-05 OVMax= 1.83D-03

 Cycle   9  Pass 1  IDiag  1:
 RMSU=  1.89D-06    CP:  7.49D-01  1.73D+00  7.25D-01  9.22D-01  1.59D+00
                    CP:  1.82D+00  1.85D+00  1.51D+00
 E= -1300.35992772775     Delta-E=       -0.000003410138 Rises=F Damp=F
 DIIS: error= 1.52D-05 at cycle   9 NSaved=   9.
 NSaved= 9 IEnMin= 9 EnMin= -1300.35992772775     IErMin= 9 ErrMin= 1.52D-05
 ErrMax= 1.52D-05  0.00D+00 EMaxC= 1.00D-01 BMatC= 1.11D-07 BMatP= 7.12D-07
 IDIUse=1 WtCom= 1.00D+00 WtEn= 0.00D+00
 Coeff-Com: -0.648D-03 0.141D-02 0.228D-02 0.481D-02-0.563D-02-0.627D-01
 Coeff-Com: -0.921D-01 0.214D+00 0.939D+00
 Coeff:     -0.648D-03 0.141D-02 0.228D-02 0.481D-02-0.563D-02-0.627D-01
 Coeff:     -0.921D-01 0.214D+00 0.939D+00
 Gap=     0.274 Goal=   None    Shift=    0.000
 RMSDP=3.81D-06 MaxDP=2.65D-04 DE=-3.41D-06 OVMax= 7.05D-04

 Cycle  10  Pass 1  IDiag  1:
 RMSU=  8.01D-07    CP:  7.49D-01  1.72D+00  7.25D-01  9.20D-01  1.60D+00
                    CP:  1.88D+00  2.01D+00  1.81D+00  1.31D+00
 E= -1300.35992830059     Delta-E=       -0.000000572838 Rises=F Damp=F
 DIIS: error= 7.36D-06 at cycle  10 NSaved=  10.
 NSaved=10 IEnMin=10 EnMin= -1300.35992830059     IErMin=10 ErrMin= 7.36D-06
 ErrMax= 7.36D-06  0.00D+00 EMaxC= 1.00D-01 BMatC= 2.01D-08 BMatP= 1.11D-07
 IDIUse=1 WtCom= 1.00D+00 WtEn= 0.00D+00
 Coeff-Com:  0.304D-03-0.673D-03-0.627D-03-0.295D-03 0.134D-01 0.650D-02
 Coeff-Com: -0.675D-01-0.125D+00 0.255D+00 0.920D+00
 Coeff:      0.304D-03-0.673D-03-0.627D-03-0.295D-03 0.134D-01 0.650D-02
 Coeff:     -0.675D-01-0.125D+00 0.255D+00 0.920D+00
 Gap=     0.274 Goal=   None    Shift=    0.000
 RMSDP=1.18D-06 MaxDP=7.07D-05 DE=-5.73D-07 OVMax= 2.45D-04

 Cycle  11  Pass 1  IDiag  1:
 RMSU=  3.46D-07    CP:  7.49D-01  1.72D+00  7.25D-01  9.19D-01  1.60D+00
                    CP:  1.89D+00  2.06D+00  1.91D+00  1.49D+00  1.39D+00
 E= -1300.35992839727     Delta-E=       -0.000000096681 Rises=F Damp=F
 DIIS: error= 2.97D-06 at cycle  11 NSaved=  11.
 NSaved=11 IEnMin=11 EnMin= -1300.35992839727     IErMin=11 ErrMin= 2.97D-06
 ErrMax= 2.97D-06  0.00D+00 EMaxC= 1.00D-01 BMatC= 4.10D-09 BMatP= 2.01D-08
 IDIUse=1 WtCom= 1.00D+00 WtEn= 0.00D+00
 Coeff-Com:  0.162D-03-0.358D-03-0.521D-03-0.753D-03 0.525D-02 0.129D-01
 Coeff-Com: -0.364D-02-0.787D-01-0.842D-01 0.279D+00 0.871D+00
 Coeff:      0.162D-03-0.358D-03-0.521D-03-0.753D-03 0.525D-02 0.129D-01
 Coeff:     -0.364D-02-0.787D-01-0.842D-01 0.279D+00 0.871D+00
 Gap=     0.274 Goal=   None    Shift=    0.000
 RMSDP=2.96D-07 MaxDP=1.59D-05 DE=-9.67D-08 OVMax= 7.85D-05

 Cycle  12  Pass 1  IDiag  1:
 RMSU=  1.32D-07    CP:  7.49D-01  1.72D+00  7.25D-01  9.19D-01  1.60D+00
                    CP:  1.89D+00  2.07D+00  1.93D+00  1.55D+00  1.59D+00
                    CP:  1.31D+00
 E= -1300.35992841232     Delta-E=       -0.000000015043 Rises=F Damp=F
 DIIS: error= 1.32D-06 at cycle  12 NSaved=  12.
 NSaved=12 IEnMin=12 EnMin= -1300.35992841232     IErMin=12 ErrMin= 1.32D-06
 ErrMax= 1.32D-06  0.00D+00 EMaxC= 1.00D-01 BMatC= 5.92D-10 BMatP= 4.10D-09
 IDIUse=1 WtCom= 1.00D+00 WtEn= 0.00D+00
 Coeff-Com:  0.489D-05-0.110D-04-0.748D-04-0.167D-03-0.866D-03 0.283D-02
 Coeff-Com:  0.119D-01-0.279D-02-0.701D-01-0.797D-01 0.251D+00 0.888D+00
 Coeff:      0.489D-05-0.110D-04-0.748D-04-0.167D-03-0.866D-03 0.283D-02
 Coeff:      0.119D-01-0.279D-02-0.701D-01-0.797D-01 0.251D+00 0.888D+00
 Gap=     0.274 Goal=   None    Shift=    0.000
 RMSDP=1.57D-07 MaxDP=1.09D-05 DE=-1.50D-08 OVMax= 3.60D-05

 Cycle  13  Pass 1  IDiag  1:
 RMSU=  5.22D-08    CP:  7.49D-01  1.72D+00  7.25D-01  9.19D-01  1.60D+00
                    CP:  1.89D+00  2.06D+00  1.93D+00  1.55D+00  1.64D+00
                    CP:  1.51D+00  1.49D+00
 E= -1300.35992841447     Delta-E=       -0.000000002156 Rises=F Damp=F
 DIIS: error= 5.41D-07 at cycle  13 NSaved=  13.
 NSaved=13 IEnMin=13 EnMin= -1300.35992841447     IErMin=13 ErrMin= 5.41D-07
 ErrMax= 5.41D-07  0.00D+00 EMaxC= 1.00D-01 BMatC= 6.69D-11 BMatP= 5.92D-10
 IDIUse=1 WtCom= 1.00D+00 WtEn= 0.00D+00
 Coeff-Com: -0.158D-04 0.353D-04 0.415D-04 0.543D-04-0.907D-03-0.104D-02
 Coeff-Com:  0.364D-02 0.868D-02-0.678D-02-0.589D-01-0.434D-01 0.232D+00
 Coeff-Com:  0.866D+00
 Coeff:     -0.158D-04 0.353D-04 0.415D-04 0.543D-04-0.907D-03-0.104D-02
 Coeff:      0.364D-02 0.868D-02-0.678D-02-0.589D-01-0.434D-01 0.232D+00
 Coeff:      0.866D+00
 Gap=     0.274 Goal=   None    Shift=    0.000
 RMSDP=7.39D-08 MaxDP=5.72D-06 DE=-2.16D-09 OVMax= 1.30D-05

 Cycle  14  Pass 1  IDiag  1:
 RMSU=  2.11D-08    CP:  7.49D-01  1.72D+00  7.25D-01  9.19D-01  1.60D+00
                    CP:  1.89D+00  2.06D+00  1.92D+00  1.54D+00  1.65D+00
                    CP:  1.56D+00  1.71D+00  1.38D+00
 E= -1300.35992841474     Delta-E=       -0.000000000266 Rises=F Damp=F
 DIIS: error= 1.73D-07 at cycle  14 NSaved=  14.
 NSaved=14 IEnMin=14 EnMin= -1300.35992841474     IErMin=14 ErrMin= 1.73D-07
 ErrMax= 1.73D-07  0.00D+00 EMaxC= 1.00D-01 BMatC= 1.03D-11 BMatP= 6.69D-11
 IDIUse=1 WtCom= 1.00D+00 WtEn= 0.00D+00
 Coeff-Com: -0.359D-05 0.798D-05 0.162D-04 0.241D-04-0.620D-04-0.548D-03
 Coeff-Com: -0.641D-03 0.184D-02 0.802D-02-0.163D-02-0.365D-01-0.757D-01
 Coeff-Com:  0.189D+00 0.916D+00
 Coeff:     -0.359D-05 0.798D-05 0.162D-04 0.241D-04-0.620D-04-0.548D-03
 Coeff:     -0.641D-03 0.184D-02 0.802D-02-0.163D-02-0.365D-01-0.757D-01
 Coeff:      0.189D+00 0.916D+00
 Gap=     0.274 Goal=   None    Shift=    0.000
 RMSDP=3.92D-08 MaxDP=3.40D-06 DE=-2.66D-10 OVMax= 4.33D-06

 Cycle  15  Pass 1  IDiag  1:
 RMSU=  7.99D-09    CP:  7.49D-01  1.72D+00  7.25D-01  9.19D-01  1.60D+00
                    CP:  1.89D+00  2.06D+00  1.92D+00  1.54D+00  1.64D+00
                    CP:  1.57D+00  1.80D+00  1.61D+00  1.38D+00
 E= -1300.35992841476     Delta-E=       -0.000000000023 Rises=F Damp=F
 DIIS: error= 7.41D-08 at cycle  15 NSaved=  15.
 NSaved=15 IEnMin=15 EnMin= -1300.35992841476     IErMin=15 ErrMin= 7.41D-08
 ErrMax= 7.41D-08  0.00D+00 EMaxC= 1.00D-01 BMatC= 2.08D-12 BMatP= 1.03D-11
 IDIUse=1 WtCom= 1.00D+00 WtEn= 0.00D+00
 Coeff-Com:  0.142D-06-0.400D-06 0.127D-05 0.236D-05 0.107D-03-0.571D-04
 Coeff-Com: -0.726D-03-0.699D-03 0.370D-02 0.724D-02-0.616D-02-0.614D-01
 Coeff-Com: -0.602D-01 0.316D+00 0.802D+00
 Coeff:      0.142D-06-0.400D-06 0.127D-05 0.236D-05 0.107D-03-0.571D-04
 Coeff:     -0.726D-03-0.699D-03 0.370D-02 0.724D-02-0.616D-02-0.614D-01
 Coeff:     -0.602D-01 0.316D+00 0.802D+00
 Gap=     0.274 Goal=   None    Shift=    0.000
 RMSDP=1.18D-08 MaxDP=1.05D-06 DE=-2.27D-11 OVMax= 2.12D-06

 Cycle  16  Pass 1  IDiag  1:
 RMSU=  2.83D-09    CP:  7.49D-01  1.72D+00  7.25D-01  9.19D-01  1.60D+00
                    CP:  1.89D+00  2.06D+00  1.92D+00  1.54D+00  1.64D+00
                    CP:  1.56D+00  1.82D+00  1.70D+00  1.59D+00  1.30D+00
 E= -1300.35992841476     Delta-E=        0.000000000002 Rises=F Damp=F
 DIIS: error= 3.18D-08 at cycle  16 NSaved=  16.
 NSaved=16 IEnMin=15 EnMin= -1300.35992841476     IErMin=16 ErrMin= 3.18D-08
 ErrMax= 3.18D-08  0.00D+00 EMaxC= 1.00D-01 BMatC= 3.25D-13 BMatP= 2.08D-12
 IDIUse=1 WtCom= 1.00D+00 WtEn= 0.00D+00
 Coeff-Com:  0.611D-06-0.135D-05-0.222D-05-0.262D-05 0.318D-04 0.723D-04
 Coeff-Com: -0.314D-04-0.410D-03-0.392D-03 0.184D-02 0.473D-02-0.546D-03
 Coeff-Com: -0.501D-01-0.112D+00 0.173D+00 0.984D+00
 Coeff:      0.611D-06-0.135D-05-0.222D-05-0.262D-05 0.318D-04 0.723D-04
 Coeff:     -0.314D-04-0.410D-03-0.392D-03 0.184D-02 0.473D-02-0.546D-03
 Coeff:     -0.501D-01-0.112D+00 0.173D+00 0.984D+00
 Gap=     0.274 Goal=   None    Shift=    0.000
 RMSDP=5.62D-09 MaxDP=5.17D-07 DE= 1.82D-12 OVMax= 8.31D-07

 Error on total polarization charges =  0.05970
 SCF Done:  E(RwB97XD) =  -1300.35992841     A.U. after   16 cycles
            NFock= 16  Conv=0.56D-08     -V/T= 2.0046
 KE= 1.294468239600D+03 PE=-7.039767847809D+03 EE= 2.445500592604D+03
 SMD-CDS (non-electrostatic) energy       (kcal/mol) =      -4.04
 (included in total energy above)
 Leave Link  502 at Sun Apr  4 03:48:19 2021, MaxMem=  5242880000 cpu:     16413.6
 (Enter /opt/nce/packages/global/g09/l601.exe)
 Copying SCF densities to generalized density rwf, IOpCl= 0 IROHF=0.

 **********************************************************************

            Population analysis using the SCF density.

 **********************************************************************

 Alpha  occ. eigenvalues --  -89.03880 -14.48088 -10.35129 -10.34924 -10.33322
 Alpha  occ. eigenvalues --  -10.33289 -10.32816 -10.30467 -10.30191 -10.29966
 Alpha  occ. eigenvalues --  -10.29779 -10.29567 -10.29559 -10.29506 -10.29482
 Alpha  occ. eigenvalues --  -10.29416 -10.29263 -10.29171 -10.29170 -10.29054
 Alpha  occ. eigenvalues --  -10.28989 -10.28983 -10.28859 -10.28784  -8.07189
 Alpha  occ. eigenvalues --   -6.02055  -6.01692  -6.01135  -1.08441  -0.98317
 Alpha  occ. eigenvalues --   -0.97213  -0.95384  -0.93684  -0.89764  -0.87663
 Alpha  occ. eigenvalues --   -0.85818  -0.85153  -0.85104  -0.84188  -0.81006
 Alpha  occ. eigenvalues --   -0.78720  -0.73829  -0.72802  -0.70869  -0.70652
 Alpha  occ. eigenvalues --   -0.69238  -0.68090  -0.66972  -0.63664  -0.62612
 Alpha  occ. eigenvalues --   -0.59821  -0.58905  -0.58542  -0.56213  -0.55335
 Alpha  occ. eigenvalues --   -0.55220  -0.53995  -0.53425  -0.52725  -0.51908
 Alpha  occ. eigenvalues --   -0.51504  -0.51203  -0.50695  -0.50123  -0.49683
 Alpha  occ. eigenvalues --   -0.48381  -0.47893  -0.46299  -0.45335  -0.44824
 Alpha  occ. eigenvalues --   -0.44552  -0.44207  -0.43289  -0.42462  -0.41749
 Alpha  occ. eigenvalues --   -0.40847  -0.40360  -0.38279  -0.36862  -0.34131
 Alpha  occ. eigenvalues --   -0.33654  -0.33234  -0.32510  -0.28340  -0.26094
 Alpha virt. eigenvalues --    0.01283   0.02728   0.04236   0.04585   0.05392
 Alpha virt. eigenvalues --    0.06808   0.08356   0.09539   0.12702   0.13026
 Alpha virt. eigenvalues --    0.14549   0.14677   0.14966   0.16104   0.16466
 Alpha virt. eigenvalues --    0.16515   0.16642   0.17172   0.18437   0.18602
 Alpha virt. eigenvalues --    0.18722   0.19259   0.19516   0.20031   0.20412
 Alpha virt. eigenvalues --    0.20947   0.21261   0.21437   0.22400   0.22449
 Alpha virt. eigenvalues --    0.23356   0.23911   0.24980   0.25771   0.26232
 Alpha virt. eigenvalues --    0.26490   0.27141   0.27219   0.27443   0.28156
 Alpha virt. eigenvalues --    0.28513   0.28685   0.29147   0.29766   0.29959
 Alpha virt. eigenvalues --    0.30320   0.30465   0.31101   0.31434   0.31675
 Alpha virt. eigenvalues --    0.31985   0.32611   0.32954   0.33128   0.33529
 Alpha virt. eigenvalues --    0.33978   0.34482   0.34875   0.35201   0.35413
 Alpha virt. eigenvalues --    0.35546   0.35905   0.37188   0.37354   0.37752
 Alpha virt. eigenvalues --    0.37941   0.38078   0.38694   0.38975   0.39745
 Alpha virt. eigenvalues --    0.40129   0.41252   0.41465   0.41650   0.42064
 Alpha virt. eigenvalues --    0.42266   0.42512   0.43052   0.43711   0.43897
 Alpha virt. eigenvalues --    0.44328   0.44727   0.45034   0.45554   0.45660
 Alpha virt. eigenvalues --    0.46432   0.46577   0.47207   0.47607   0.47737
 Alpha virt. eigenvalues --    0.48618   0.48917   0.49270   0.49390   0.49786
 Alpha virt. eigenvalues --    0.50168   0.50326   0.50938   0.51112   0.51632
 Alpha virt. eigenvalues --    0.52341   0.52527   0.53075   0.53413   0.54043
 Alpha virt. eigenvalues --    0.54335   0.54482   0.55311   0.55554   0.55883
 Alpha virt. eigenvalues --    0.56322   0.57102   0.57556   0.57679   0.58168
 Alpha virt. eigenvalues --    0.58457   0.59029   0.59430   0.59637   0.60616
 Alpha virt. eigenvalues --    0.60974   0.61696   0.62358   0.62386   0.63028
 Alpha virt. eigenvalues --    0.63429   0.63825   0.64448   0.65933   0.66694
 Alpha virt. eigenvalues --    0.67191   0.67755   0.68586   0.69221   0.69291
 Alpha virt. eigenvalues --    0.70258   0.70944   0.72253   0.72563   0.72999
 Alpha virt. eigenvalues --    0.73319   0.73691   0.74694   0.75413   0.75878
 Alpha virt. eigenvalues --    0.76046   0.76486   0.77304   0.77442   0.77679
 Alpha virt. eigenvalues --    0.77975   0.78258   0.78618   0.79170   0.79582
 Alpha virt. eigenvalues --    0.80141   0.80366   0.80892   0.81604   0.81831
 Alpha virt. eigenvalues --    0.82880   0.83346   0.83684   0.83983   0.84401
 Alpha virt. eigenvalues --    0.84498   0.85446   0.86686   0.87388   0.87754
 Alpha virt. eigenvalues --    0.88451   0.89057   0.89433   0.90069   0.90317
 Alpha virt. eigenvalues --    0.90572   0.91690   0.92606   0.93466   0.93519
 Alpha virt. eigenvalues --    0.93898   0.94245   0.94645   0.95176   0.95883
 Alpha virt. eigenvalues --    0.96253   0.97514   0.97833   0.98482   0.99233
 Alpha virt. eigenvalues --    0.99392   1.00050   1.00580   1.01238   1.02350
 Alpha virt. eigenvalues --    1.02517   1.03305   1.04494   1.05218   1.06265
 Alpha virt. eigenvalues --    1.07002   1.08059   1.08813   1.10066   1.10780
 Alpha virt. eigenvalues --    1.11323   1.12003   1.13185   1.13832   1.14561
 Alpha virt. eigenvalues --    1.15715   1.16232   1.16729   1.17975   1.18891
 Alpha virt. eigenvalues --    1.20083   1.20366   1.20740   1.22035   1.22323
 Alpha virt. eigenvalues --    1.22962   1.23407   1.23711   1.25889   1.26547
 Alpha virt. eigenvalues --    1.27295   1.27923   1.28063   1.29013   1.30380
 Alpha virt. eigenvalues --    1.30591   1.31332   1.31856   1.32335   1.32969
 Alpha virt. eigenvalues --    1.33198   1.33852   1.34110   1.34561   1.35419
 Alpha virt. eigenvalues --    1.35628   1.36092   1.36933   1.37047   1.38159
 Alpha virt. eigenvalues --    1.38785   1.38906   1.39814   1.41061   1.41623
 Alpha virt. eigenvalues --    1.43039   1.43428   1.44626   1.46114   1.46132
 Alpha virt. eigenvalues --    1.47345   1.48345   1.49242   1.49618   1.49952
 Alpha virt. eigenvalues --    1.50690   1.52380   1.52631   1.53263   1.54619
 Alpha virt. eigenvalues --    1.54875   1.55647   1.56492   1.57190   1.57683
 Alpha virt. eigenvalues --    1.58646   1.58961   1.59584   1.59875   1.60354
 Alpha virt. eigenvalues --    1.60791   1.61251   1.62355   1.62480   1.62538
 Alpha virt. eigenvalues --    1.62999   1.64142   1.64822   1.65253   1.65729
 Alpha virt. eigenvalues --    1.66263   1.67222   1.68012   1.68332   1.69193
 Alpha virt. eigenvalues --    1.69677   1.70800   1.71321   1.71964   1.73104
 Alpha virt. eigenvalues --    1.73652   1.74334   1.74629   1.74827   1.75363
 Alpha virt. eigenvalues --    1.75622   1.75891   1.77142   1.77424   1.77844
 Alpha virt. eigenvalues --    1.78346   1.78542   1.79539   1.79966   1.80489
 Alpha virt. eigenvalues --    1.81403   1.81662   1.82329   1.82534   1.83268
 Alpha virt. eigenvalues --    1.83555   1.85183   1.85821   1.86607   1.86946
 Alpha virt. eigenvalues --    1.87406   1.90027   1.90194   1.91350   1.92267
 Alpha virt. eigenvalues --    1.92854   1.93828   1.94379   1.94855   1.95168
 Alpha virt. eigenvalues --    1.96870   1.98019   1.98312   2.00277   2.00999
 Alpha virt. eigenvalues --    2.01273   2.02749   2.03124   2.04159   2.06018
 Alpha virt. eigenvalues --    2.06865   2.07154   2.07600   2.08232   2.09367
 Alpha virt. eigenvalues --    2.10017   2.11387   2.11729   2.12567   2.13035
 Alpha virt. eigenvalues --    2.14030   2.15273   2.16350   2.16939   2.17920
 Alpha virt. eigenvalues --    2.18529   2.19260   2.19604   2.20631   2.20993
 Alpha virt. eigenvalues --    2.21983   2.23559   2.24190   2.24623   2.25080
 Alpha virt. eigenvalues --    2.25593   2.26285   2.26546   2.27088   2.28042
 Alpha virt. eigenvalues --    2.28644   2.29516   2.29715   2.30347   2.31985
 Alpha virt. eigenvalues --    2.32980   2.33453   2.33816   2.34569   2.36028
 Alpha virt. eigenvalues --    2.37163   2.37884   2.39604   2.40927   2.41560
 Alpha virt. eigenvalues --    2.43598   2.44643   2.46472   2.49197   2.50184
 Alpha virt. eigenvalues --    2.52017   2.53004   2.53451   2.54793   2.55211
 Alpha virt. eigenvalues --    2.56921   2.57697   2.59412   2.60025   2.60380
 Alpha virt. eigenvalues --    2.60797   2.61934   2.63299   2.64214   2.64811
 Alpha virt. eigenvalues --    2.65420   2.66098   2.66954   2.68247   2.68536
 Alpha virt. eigenvalues --    2.69081   2.70190   2.70325   2.70584   2.72176
 Alpha virt. eigenvalues --    2.72530   2.72835   2.73959   2.74053   2.74289
 Alpha virt. eigenvalues --    2.74731   2.75935   2.76310   2.76763   2.76849
 Alpha virt. eigenvalues --    2.77676   2.78342   2.78769   2.79289   2.79871
 Alpha virt. eigenvalues --    2.80351   2.80669   2.81060   2.82380   2.82693
 Alpha virt. eigenvalues --    2.83062   2.83382   2.84057   2.84864   2.85363
 Alpha virt. eigenvalues --    2.85825   2.86072   2.86645   2.87016   2.87320
 Alpha virt. eigenvalues --    2.88344   2.89066   2.89212   2.89979   2.90266
 Alpha virt. eigenvalues --    2.91603   2.91830   2.92067   2.92878   2.93075
 Alpha virt. eigenvalues --    2.93859   2.94227   2.94956   2.95019   2.95442
 Alpha virt. eigenvalues --    2.96163   2.96456   2.97136   2.98620   2.99072
 Alpha virt. eigenvalues --    2.99703   3.00386   3.00553   3.01813   3.02277
 Alpha virt. eigenvalues --    3.02429   3.02479   3.03798   3.04301   3.05235
 Alpha virt. eigenvalues --    3.06263   3.07071   3.07242   3.07979   3.08792
 Alpha virt. eigenvalues --    3.09483   3.10549   3.11021   3.12272   3.12783
 Alpha virt. eigenvalues --    3.13390   3.14010   3.14708   3.15363   3.15977
 Alpha virt. eigenvalues --    3.17188   3.17667   3.19518   3.19785   3.20593
 Alpha virt. eigenvalues --    3.21067   3.21231   3.22162   3.22302   3.22724
 Alpha virt. eigenvalues --    3.23892   3.24147   3.24590   3.24894   3.25313
 Alpha virt. eigenvalues --    3.25779   3.26127   3.26539   3.27565   3.27706
 Alpha virt. eigenvalues --    3.28511   3.28777   3.29430   3.30169   3.30318
 Alpha virt. eigenvalues --    3.30961   3.31693   3.32861   3.33242   3.33794
 Alpha virt. eigenvalues --    3.34592   3.35503   3.35944   3.36388   3.37300
 Alpha virt. eigenvalues --    3.37347   3.38114   3.38614   3.39818   3.40233
 Alpha virt. eigenvalues --    3.40507   3.41177   3.42159   3.42220   3.42893
 Alpha virt. eigenvalues --    3.43148   3.43921   3.44173   3.45283   3.45414
 Alpha virt. eigenvalues --    3.46186   3.46881   3.47454   3.47950   3.48588
 Alpha virt. eigenvalues --    3.48970   3.49105   3.49659   3.50743   3.51099
 Alpha virt. eigenvalues --    3.51785   3.52851   3.53158   3.54392   3.55098
 Alpha virt. eigenvalues --    3.55636   3.56162   3.56343   3.57320   3.57570
 Alpha virt. eigenvalues --    3.57917   3.58554   3.58693   3.59447   3.59836
 Alpha virt. eigenvalues --    3.60514   3.61108   3.61861   3.62099   3.63121
 Alpha virt. eigenvalues --    3.63414   3.64073   3.65017   3.65553   3.66022
 Alpha virt. eigenvalues --    3.67014   3.67546   3.68453   3.69181   3.69471
 Alpha virt. eigenvalues --    3.71468   3.72953   3.74213   3.74904   3.76515
 Alpha virt. eigenvalues --    3.77129   3.77182   3.79058   3.80618   3.81351
 Alpha virt. eigenvalues --    3.81482   3.82473   3.82976   3.84737   3.86304
 Alpha virt. eigenvalues --    3.87136   3.89030   3.89431   3.91714   3.92370
 Alpha virt. eigenvalues --    3.95149   3.96326   3.98150   3.98892   3.99654
 Alpha virt. eigenvalues --    4.00754   4.01618   4.02494   4.03637   4.04613
 Alpha virt. eigenvalues --    4.05589   4.06724   4.07200   4.08262   4.09853
 Alpha virt. eigenvalues --    4.11080   4.13439   4.13898   4.14192   4.16358
 Alpha virt. eigenvalues --    4.16949   4.18450   4.19469   4.20727   4.21442
 Alpha virt. eigenvalues --    4.22013   4.22619   4.22807   4.24462   4.24671
 Alpha virt. eigenvalues --    4.25945   4.26352   4.27178   4.27726   4.28513
 Alpha virt. eigenvalues --    4.28931   4.29209   4.30051   4.30417   4.30686
 Alpha virt. eigenvalues --    4.31253   4.32357   4.32834   4.33407   4.34238
 Alpha virt. eigenvalues --    4.35793   4.35991   4.36972   4.38080   4.38204
 Alpha virt. eigenvalues --    4.39978   4.40259   4.41564   4.42183   4.43780
 Alpha virt. eigenvalues --    4.44453   4.46597   4.48965   4.49806   4.51248
 Alpha virt. eigenvalues --    4.54076   4.56359   4.57903   4.61094   4.62564
 Alpha virt. eigenvalues --    4.63899   4.67318   4.69092   4.70539   4.70932
 Alpha virt. eigenvalues --    4.72066   4.74359   4.75355   4.79570   4.80670
 Alpha virt. eigenvalues --    4.81613   4.83157   4.83396   4.85078   4.86435
 Alpha virt. eigenvalues --    4.86746   4.87150   4.89151   4.91199   4.92515
 Alpha virt. eigenvalues --    4.93058   4.94604   4.99264   5.01062   5.05478
 Alpha virt. eigenvalues --    5.05930   5.06323   5.09820   5.10989   5.13423
 Alpha virt. eigenvalues --    5.17184   5.18256   5.21746   5.22399   5.24757
 Alpha virt. eigenvalues --    5.26794   5.27672   5.31134   5.33133   5.33523
 Alpha virt. eigenvalues --    5.35020   5.37251   5.38915   5.39577   5.42966
 Alpha virt. eigenvalues --    5.45323   5.47715   5.53730   5.56081   5.60172
 Alpha virt. eigenvalues --    5.62788   5.65227   5.67490   5.71660   5.74652
 Alpha virt. eigenvalues --    5.76344   5.83512   5.89551   5.98084   6.03778
 Alpha virt. eigenvalues --    6.16694   6.21592   6.28982   9.05832   9.50252
 Alpha virt. eigenvalues --    9.70348  20.44520  22.21125  22.27711  22.40472
 Alpha virt. eigenvalues --   22.67370  22.67823  22.69413  22.71642  22.73276
 Alpha virt. eigenvalues --   22.73803  22.76206  22.85383  22.90498  22.90955
 Alpha virt. eigenvalues --   22.92993  22.94047  22.97446  23.00532  23.16587
 Alpha virt. eigenvalues --   23.20851  23.30624  23.36038  23.72424  33.34979
          Condensed to atoms (all electrons):
               1          2          3          4          5          6
     1  C    5.116904   0.328406   0.111468  -0.143144   0.053363   0.376162
     2  C    0.328406   5.276608   0.245694   0.063087  -0.133377   0.051991
     3  C    0.111468   0.245694   5.379441   0.121514   0.102104  -0.114246
     4  C   -0.143144   0.063087   0.121514   5.242710   0.298104   0.038386
     5  C    0.053363  -0.133377   0.102104   0.298104   5.314455   0.358356
     6  C    0.376162   0.051991  -0.114246   0.038386   0.358356   5.084553
[...]
    37  H   -0.000011   0.000014  -0.000620  -0.000025   0.012799  -0.003443
    38  H    0.000335   0.000419  -0.003412   0.004589  -0.066359   0.016190
    39  H    0.001898  -0.000127   0.000060   0.000010   0.014296  -0.064568
              13         14         15         16         17         18
     1  C   -0.000024  -0.061693   0.008295  -0.060279  -0.001097  -0.000192
     2  C   -0.000553   0.470974  -0.002474   0.013410   0.000498   0.000577
     3  C   -0.005679  -0.095465   0.006449  -0.004845   0.004359  -0.011873
     4  C    0.017780   0.028587  -0.052791   0.014692  -0.066208  -0.010328
     5  C    0.005890  -0.007792   0.448792  -0.059847  -0.008349  -0.001686
     6  C   -0.000012   0.014773  -0.037033   0.458924  -0.004774   0.000724
     7  C    0.314606   0.000411  -0.000817   0.000024  -0.038035  -0.016328
     8  C    0.062367   0.000082  -0.000091  -0.000005   0.002331  -0.013611
     9  C   -0.150785   0.000111   0.000002  -0.000000   0.000156   0.000670
    10  H   -0.007678   0.000036   0.000000   0.000000   0.000058   0.000004
    11  C   -0.001723  -0.000009  -0.000001   0.000000  -0.000389  -0.000013
    12  C    0.262927   0.000003   0.000014  -0.000000  -0.003475   0.001549
    13  C    5.665180  -0.000014  -0.000035  -0.000002  -0.022327   0.004468
    14  H   -0.000014   0.493478  -0.000003  -0.000033   0.000050   0.000004
    15  H   -0.000035  -0.000003   0.464527  -0.006061   0.008295  -0.003063
    16  H   -0.000002  -0.000033  -0.006061   0.487695   0.000113   0.000022
    17  C   -0.022327   0.000050   0.008295   0.000113   5.658937   0.236856
    18  C    0.004468   0.000004  -0.003063   0.000022   0.236856   5.193093
    19  C    0.002723  -0.000001  -0.010652   0.000059   0.227869   0.124671
    20  C   -0.000191  -0.000000   0.001063  -0.000003   0.044456   0.362902
    21  C   -0.004204  -0.000000   0.001569  -0.000004   0.073343  -0.139615
    22  C    0.001223   0.000000  -0.000482   0.000001  -0.179034   0.093511
    23  H   -0.000016  -0.000000   0.000000   0.000000   0.020652  -0.063582
    24  H   -0.000052  -0.000000   0.000046   0.000000   0.015592  -0.004212
    25  H    0.000405   0.000001  -0.000050   0.000001  -0.085806   0.473822
    26  H    0.002995   0.000000  -0.001981   0.000016  -0.072430   0.016812
    27  H   -0.000002   0.000000  -0.000004   0.000000  -0.005122   0.011662
    28  H    0.000000  -0.007096  -0.000000  -0.006674  -0.000001   0.000001
    29  N   -0.117143  -0.000016  -0.006486  -0.000096   0.072359  -0.016093
    30  H    0.429660   0.000000   0.000012  -0.000000   0.004913  -0.002208
    31  S    0.022755   0.001740  -0.000127   0.000010  -0.006108   0.002142
    32  C   -0.136516   0.000000  -0.000000  -0.000000  -0.000108   0.000025
    33  C    0.000805  -0.000000   0.000000  -0.000000  -0.000016   0.000006
    34  H   -0.000597  -0.000000   0.000000  -0.000000   0.000001   0.000000
    35  C    0.027814  -0.000000  -0.000000   0.000000  -0.000015   0.000009
    36  C   -0.004509   0.000000  -0.000000   0.000000  -0.000005  -0.000002
    37  H    0.000168   0.000000   0.000000   0.000000   0.000000  -0.000000
    38  H   -0.000404  -0.000000   0.000000  -0.000000   0.000001  -0.000000
    39  H   -0.005177   0.000000   0.000000  -0.000000   0.000061  -0.000015
              19         20         21         22         23         24
     1  C   -0.000159   0.000016   0.000028  -0.000003   0.000000   0.000000
     2  C   -0.000052  -0.000005  -0.000047   0.000010  -0.000000   0.000000
     3  C    0.001931  -0.000008   0.001008  -0.000312   0.000019  -0.000003
     4  C   -0.003675   0.000063   0.003132  -0.001217   0.000057  -0.000002
     5  C   -0.009099   0.000791  -0.002586   0.000325   0.000008  -0.000033
     6  C    0.004868  -0.000244  -0.000053   0.000061  -0.000003  -0.000010
     7  C   -0.017065   0.000720   0.004598  -0.002014   0.000091   0.000023
     8  C    0.001487   0.000092   0.001254  -0.000369   0.000021  -0.000002
     9  C    0.000052  -0.000008  -0.000062   0.000013  -0.000001   0.000000
    10  H   -0.000001   0.000000  -0.000000   0.000000  -0.000000  -0.000000
    11  C   -0.000442   0.000005  -0.000016  -0.000000  -0.000000   0.000000
    12  C    0.011473  -0.000627  -0.000091   0.000123  -0.000007  -0.000020
    13  C    0.002723  -0.000191  -0.004204   0.001223  -0.000016  -0.000052
    14  H   -0.000001  -0.000000  -0.000000   0.000000  -0.000000  -0.000000
    15  H   -0.010652   0.001063   0.001569  -0.000482   0.000000   0.000046
    16  H    0.000059  -0.000003  -0.000004   0.000001   0.000000   0.000000
    17  C    0.227869   0.044456   0.073343  -0.179034   0.020652   0.015592
    18  C    0.124671   0.362902  -0.139615   0.093511  -0.063582  -0.004212
    19  C    5.288628  -0.111628   0.284564   0.099994  -0.006129  -0.061484
    20  C   -0.111628   5.055778   0.057791   0.335661   0.463407   0.011565
    21  C    0.284564   0.057791   5.139549   0.312182   0.013713   0.460356
    22  C    0.099994   0.335661   0.312182   5.130222  -0.065254  -0.059653
    23  H   -0.006129   0.463407   0.013713  -0.065254   0.488290  -0.000030
    24  H   -0.061484   0.011565   0.460356  -0.059653  -0.000030   0.486169
    25  H    0.014002  -0.050806  -0.006921   0.015624  -0.008024   0.000012
    26  H    0.477367  -0.005275  -0.061298   0.013620  -0.000011  -0.006998
    27  H    0.013168  -0.057141  -0.057759   0.457684  -0.006679  -0.006431
    28  H   -0.000001  -0.000000  -0.000000   0.000000  -0.000000   0.000000
    29  N   -0.011796   0.004630   0.009349   0.002913  -0.000442  -0.000250
    30  H   -0.011985   0.001070   0.000814  -0.000594  -0.000001   0.000029
    31  S    0.000031  -0.000022  -0.000043   0.000022  -0.000003  -0.000000
    32  C    0.000426   0.000008   0.000071   0.000004  -0.000000   0.000002
    33  C    0.000036  -0.000002  -0.000002  -0.000000  -0.000000  -0.000000
    34  H    0.000000  -0.000000  -0.000000  -0.000000  -0.000000  -0.000000
    35  C   -0.000015   0.000000  -0.000001  -0.000000  -0.000000  -0.000000
    36  C    0.000001   0.000000   0.000001   0.000000   0.000000   0.000000
    37  H    0.000000  -0.000000   0.000000   0.000000   0.000000  -0.000000
    38  H   -0.000000   0.000000   0.000000  -0.000000   0.000000   0.000000
    39  H    0.000226  -0.000012   0.000099   0.000011  -0.000000   0.000001
              25         26         27         28         29         30
     1  C   -0.000012  -0.000099   0.000000   0.469792  -0.000385  -0.000002
     2  C    0.000053   0.000094   0.000000  -0.068688   0.005800   0.000004
     3  C   -0.002518  -0.000490  -0.000000   0.016555  -0.067281  -0.000010
     4  C   -0.000025   0.001020  -0.000002  -0.006362   0.418588  -0.000810
     5  C    0.000014   0.001288  -0.000004   0.016014  -0.096606  -0.000036
     6  C    0.000084   0.000562  -0.000000  -0.065415   0.003370   0.000009
     7  C    0.000213  -0.000005  -0.000004  -0.000000   0.428615  -0.048365
     8  C   -0.002720  -0.000742  -0.000000   0.000010  -0.052428   0.004451
     9  C    0.000056   0.000114   0.000000  -0.000001   0.005571  -0.002092
    10  H    0.000001   0.000000   0.000000  -0.000000  -0.000032  -0.000007
    11  C    0.000008  -0.000079   0.000000   0.000000  -0.000111   0.012989
    12  C    0.000102   0.000903   0.000001  -0.000000  -0.000073  -0.027779
    13  C    0.000405   0.002995  -0.000002   0.000000  -0.117143   0.429660
    14  H    0.000001   0.000000   0.000000  -0.007096  -0.000016   0.000000
    15  H   -0.000050  -0.001981  -0.000004  -0.000000  -0.006486   0.000012
    16  H    0.000001   0.000016   0.000000  -0.006674  -0.000096  -0.000000
    17  C   -0.085806  -0.072430  -0.005122  -0.000001   0.072359   0.004913
    18  C    0.473822   0.016812   0.011662   0.000001  -0.016093  -0.002208
    19  C    0.014002   0.477367   0.013168  -0.000001  -0.011796  -0.011985
    20  C   -0.050806  -0.005275  -0.057141  -0.000000   0.004630   0.001070
    21  C   -0.006921  -0.061298  -0.057759  -0.000000   0.009349   0.000814
    22  C    0.015624   0.013620   0.457684   0.000000   0.002913  -0.000594
    23  H   -0.008024  -0.000011  -0.006679  -0.000000  -0.000442  -0.000001
    24  H    0.000012  -0.006998  -0.006431   0.000000  -0.000250   0.000029
    25  H    0.483046   0.000091   0.000028   0.000000   0.009211  -0.000040
    26  H    0.000091   0.470218   0.000022   0.000000  -0.002934  -0.002147
    27  H    0.000028   0.000022   0.484138   0.000000   0.000014  -0.000004
    28  H    0.000000   0.000000   0.000000   0.489591   0.000014  -0.000000
    29  N    0.009211  -0.002934   0.000014   0.000014   6.367975  -0.006936
    30  H   -0.000040  -0.002147  -0.000004  -0.000000  -0.006936   0.460022
    31  S    0.001458  -0.000019   0.000000  -0.000207  -0.007624  -0.000113
    32  C    0.000006   0.000023  -0.000000  -0.000000  -0.000328  -0.002753
    33  C   -0.000000   0.000002  -0.000000   0.000000  -0.000002   0.000374
    34  H    0.000000   0.000000   0.000000   0.000000  -0.000000  -0.000027
    35  C    0.000001   0.000000  -0.000000   0.000000   0.000037  -0.000197
    36  C   -0.000000   0.000000   0.000000  -0.000000  -0.000001   0.000058
    37  H   -0.000000  -0.000000   0.000000  -0.000000   0.000000  -0.000001
    38  H   -0.000000  -0.000000  -0.000000  -0.000000   0.000001   0.000003
    39  H    0.000001   0.000007   0.000000  -0.000000  -0.000032   0.004382
              31         32         33         34         35         36
     1  C    0.012821  -0.000000  -0.000000   0.000000  -0.000000  -0.000000
     2  C   -0.084527   0.000001  -0.000000  -0.000000  -0.000002   0.000000
     3  C    0.414434   0.000002  -0.000001  -0.000000   0.000016   0.000001
     4  C   -0.093548   0.000023   0.000004   0.000000   0.000034  -0.000003
     5  C    0.021233  -0.000007   0.000000   0.000000   0.000002  -0.000000
     6  C   -0.003594   0.000000   0.000000  -0.000000  -0.000000   0.000000
     7  C   -0.077608   0.012719  -0.003215   0.000011  -0.004132   0.000904
     8  C    0.409283  -0.000617   0.001004  -0.000012   0.011676  -0.001555
     9  C   -0.098347   0.022489  -0.002453   0.000109  -0.121424   0.008050
    10  H    0.002254  -0.000199   0.000057  -0.000001  -0.003579   0.000293
    11  C    0.014397   0.019959  -0.072816  -0.003641   0.342426   0.024536
    12  C   -0.002077   0.345167   0.021796   0.013654  -0.008918  -0.087377
    13  C    0.022755  -0.136516   0.000805  -0.000597   0.027814  -0.004509
    14  H    0.001740   0.000000  -0.000000  -0.000000  -0.000000   0.000000
    15  H   -0.000127  -0.000000   0.000000   0.000000  -0.000000  -0.000000
    16  H    0.000010  -0.000000  -0.000000  -0.000000   0.000000   0.000000
    17  C   -0.006108  -0.000108  -0.000016   0.000001  -0.000015  -0.000005
    18  C    0.002142   0.000025   0.000006   0.000000   0.000009  -0.000002
    19  C    0.000031   0.000426   0.000036   0.000000  -0.000015   0.000001
    20  C   -0.000022   0.000008  -0.000002  -0.000000   0.000000   0.000000
    21  C   -0.000043   0.000071  -0.000002  -0.000000  -0.000001   0.000001
    22  C    0.000022   0.000004  -0.000000  -0.000000  -0.000000   0.000000
    23  H   -0.000003  -0.000000  -0.000000  -0.000000  -0.000000   0.000000
    24  H   -0.000000   0.000002  -0.000000  -0.000000  -0.000000   0.000000
    25  H    0.001458   0.000006  -0.000000   0.000000   0.000001  -0.000000
    26  H   -0.000019   0.000023   0.000002   0.000000   0.000000   0.000000
    27  H    0.000000  -0.000000  -0.000000   0.000000  -0.000000   0.000000
    28  H   -0.000207  -0.000000   0.000000   0.000000   0.000000  -0.000000
    29  N   -0.007624  -0.000328  -0.000002  -0.000000   0.000037  -0.000001
    30  H   -0.000113  -0.002753   0.000374  -0.000027  -0.000197   0.000058
    31  S   15.520641  -0.000028   0.000007   0.000000  -0.001084  -0.000006
    32  C   -0.000028   5.251164   0.423029  -0.064482  -0.100008   0.038892
    33  C    0.000007   0.423029   5.051817   0.463698   0.035381   0.332480
    34  H    0.000000  -0.064482   0.463698   0.490991   0.012617  -0.059801
    35  C   -0.001084  -0.100008   0.035381   0.012617   5.229859   0.422982
    36  C   -0.000006   0.038892   0.332480  -0.059801   0.422982   5.053825
    37  H   -0.000000   0.012435  -0.060137  -0.006541  -0.064376   0.463965
    38  H   -0.000018  -0.004493   0.011149  -0.000052   0.460039  -0.056482
    39  H   -0.000002   0.461897  -0.056559  -0.006906  -0.004478   0.011219
              37         38         39
     1  C   -0.000000   0.000000   0.000000
     2  C   -0.000000   0.000000   0.000000
     3  C    0.000000  -0.000001  -0.000001
     4  C   -0.000000  -0.000001   0.000003
     5  C   -0.000000  -0.000000   0.000000
     6  C    0.000000  -0.000000  -0.000000
     7  C   -0.000011   0.000335   0.001898
     8  C    0.000014   0.000419  -0.000127
     9  C   -0.000620  -0.003412   0.000060
    10  H   -0.000025   0.004589   0.000010
    11  C    0.012799  -0.066359   0.014296
    12  C   -0.003443   0.016190  -0.064568
    13  C    0.000168  -0.000404  -0.005177
    14  H    0.000000  -0.000000   0.000000
    15  H    0.000000   0.000000   0.000000
    16  H    0.000000  -0.000000  -0.000000
    17  C    0.000000   0.000001   0.000061
    18  C   -0.000000  -0.000000  -0.000015
    19  C    0.000000  -0.000000   0.000226
    20  C   -0.000000   0.000000  -0.000012
    21  C    0.000000   0.000000   0.000099
    22  C    0.000000  -0.000000   0.000011
    23  H    0.000000   0.000000  -0.000000
    24  H   -0.000000   0.000000   0.000001
    25  H   -0.000000  -0.000000   0.000001
    26  H   -0.000000  -0.000000   0.000007
    27  H    0.000000  -0.000000   0.000000
    28  H   -0.000000  -0.000000  -0.000000
    29  N    0.000000   0.000001  -0.000032
    30  H   -0.000001   0.000003   0.004382
    31  S   -0.000000  -0.000018  -0.000002
    32  C    0.012435  -0.004493   0.461897
    33  C   -0.060137   0.011149  -0.056559
    34  H   -0.006541  -0.000052  -0.006906
    35  C   -0.064376   0.460039  -0.004478
    36  C    0.463965  -0.056482   0.011219
    37  H    0.490759  -0.006770  -0.000045
    38  H   -0.006770   0.488493   0.000016
    39  H   -0.000045   0.000016   0.488873
 Mulliken charges:
               1
     1  C   -0.206267
     2  C   -0.161440
     3  C   -0.078724
     4  C    0.232089
     5  C   -0.306751
     6  C   -0.157220
     7  C    0.181529
     8  C    0.023869
     9  C   -0.271157
    10  H    0.156150
    11  C    0.078054
    12  C    0.141755
    13  C   -0.364127
    14  H    0.161874
    15  H    0.183090
    16  H    0.162881
    17  C    0.122398
    18  C   -0.240708
    19  C   -0.309395
    20  C   -0.114046
    21  C   -0.090720
    22  C   -0.154271
    23  H    0.163923
    24  H    0.165383
    25  H    0.158683
    26  H    0.169350
    27  H    0.166436
    28  H    0.162469
    29  N    0.058649
    30  H    0.187315
    31  S   -0.048126
    32  C   -0.278802
    33  C   -0.146442
    34  H    0.160981
    35  C   -0.234665
    36  C   -0.147466
    37  H    0.161829
    38  H    0.156757
    39  H    0.154862
 Sum of Mulliken charges =  -0.00000
 Mulliken charges with hydrogens summed into heavy atoms:
               1
     1  C   -0.043798
     2  C    0.000435
     3  C   -0.078724
     4  C    0.232089
     5  C   -0.123661
     6  C    0.005660
     7  C    0.181529
     8  C    0.023869
     9  C   -0.115007
    11  C    0.078054
    12  C    0.141755
    13  C   -0.176812
    17  C    0.122398
    18  C   -0.082025
    19  C   -0.140045
    20  C    0.049877
    21  C    0.074663
    22  C    0.012165
    29  N    0.058649
    31  S   -0.048126
    32  C   -0.123941
    33  C    0.014539
    35  C   -0.077909
    36  C    0.014363
 Electronic spatial extent (au):  <R**2>=           8222.8249
 Charge=              0.0000 electrons
 Dipole moment (field-independent basis, Debye):
    X=             -1.0457    Y=              2.9882    Z=             -1.0778  Tot=              3.3444
 Quadrupole moment (field-independent basis, Debye-Ang):
   XX=           -129.5938   YY=           -125.4873   ZZ=           -145.8599
   XY=             -4.2577   XZ=              1.7596   YZ=             -1.1256
 Traceless Quadrupole moment (field-independent basis, Debye-Ang):
   XX=              4.0532   YY=              8.1597   ZZ=            -12.2129
   XY=             -4.2577   XZ=              1.7596   YZ=             -1.1256
 Octapole moment (field-independent basis, Debye-Ang**2):
  XXX=             39.5996  YYY=             41.9934  ZZZ=             10.0059  XYY=            -23.2214
  XXY=            -17.5353  XXZ=            -25.6550  XZZ=            -23.3181  YZZ=             26.5075
  YYZ=             -4.2418  XYZ=            -16.0077
 Hexadecapole moment (field-independent basis, Debye-Ang**3):
 XXXX=          -6157.2244 YYYY=          -3592.7558 ZZZZ=           -598.9411 XXXY=             84.1449
 XXXZ=             49.3664 YYYX=            -82.9856 YYYZ=             -5.2092 ZZZX=            -11.0962
 ZZZY=              7.9421 XXYY=          -1594.7926 XXZZ=          -1317.9433 YYZZ=           -743.4169
 XXYZ=              0.0249 YYXZ=             -4.0932 ZZXY=            -46.8141
 N-N= 2.013490389048D+03 E-N=-7.068652372208D+03  KE= 1.295338116769D+03
 Leave Link  601 at Sun Apr  4 13:36:44 2021, MaxMem=  5242880000 cpu:         4.1
 (Enter /opt/nce/packages/global/g09/l9999.exe)
 1\1\GINC-CN029\SP\RwB97XD TD-FC\Gen\C22H15N1S1\PNG4RJV\04-Apr-2021\0\\
 #p wB97XD chkbasis geom=allcheck Guess=Read int=ultrafine scrf=(SMD,so
 lvent=n,n-DiMethylAcetamide) td=(NStates=30)\\Title\\0,1\C,0,-4.103749
 9314,-2.3833012558,-0.5749939189\C,0,-2.9085650198,-2.8576802454,-0.05
 89723691\C,0,-1.8747312006,-1.9837978145,0.2447683131\C,0,-1.995629366
 2,-0.6127171084,-0.007162053\C,0,-3.2036830928,-0.1500575421,-0.531330
 5959\C,0,-4.2454118541,-1.0240896665,-0.799818748\C,0,0.4072776524,-0.
 1346361996,0.1958856577\C,0,0.7613812778,-1.4907594727,0.4546780289\C,
 0,2.0534813701,-1.9151292436,0.3459023186\H,0,2.296307374,-2.954774950
 2,0.5349256317\C,0,3.0965629148,-1.0149780426,0.02952528\C,0,2.7638432
 576,0.3421754184,-0.1860437764\C,0,1.4116972523,0.7498388343,-0.109070
 8049\H,0,-2.7792902646,-3.9163832916,0.1326239149\H,0,-3.3406746192,0.
 9037774083,-0.7248832603\H,0,-5.1719683566,-0.6297715159,-1.1981615046
 \C,0,-1.2132291616,1.6729556894,0.2820340758\C,0,-1.4525361199,2.30602
 98716,1.491326588\C,0,-1.2402032643,2.3944265278,-0.9047544584\C,0,-1.
 7215594726,3.6673798307,1.5157714187\C,0,-1.5084212111,3.7536114786,-0
 .8771264766\C,0,-1.7493321091,4.3913614346,0.3329217299\H,0,-1.9091385
 155,4.1612814369,2.4610795003\H,0,-1.5297389728,4.3162422548,-1.802127
 614\H,0,-1.4271667508,1.7275058902,2.4066165884\H,0,-1.0512820997,1.88
 69987195,-1.8429148381\H,0,-1.9589867348,5.4536858202,0.3524143561\H,0
 ,-4.9116047152,-3.0693843133,-0.7939348684\N,0,-0.9371965402,0.2666683
 159,0.2867505757\H,0,1.1887846524,1.7909501917,-0.2945093142\S,0,-0.45
 07870513,-2.6073287644,1.0686870422\C,0,3.7994406933,1.2576002552,-0.4
 913347376\C,0,5.0974761854,0.8362877569,-0.5783534134\H,0,5.8820788275
 ,1.5452790301,-0.8132776884\C,0,4.4464476593,-1.424263524,-0.065243650
 9\C,0,5.4263809195,-0.5185535547,-0.3638081928\H,0,6.4589163322,-0.837
 3263028,-0.436034677\H,0,4.6901361488,-2.4671025056,0.1032094867\H,0,3
 .5459149068,2.2985261486,-0.656782546\\Version=ES64L-G09RevE.01\State=
 1-A\HF=-1300.3636051\RMSD=7.989e-09\PG=C01 [X(C22H15N1S1)]\\@


 In the beginning the Universe was created.
 This has made a lot of people very angry
 and been widely regarded as a bad move.
                               -D.Adams
 Job cpu time:       1 days  8 hours 41 minutes 45.7 seconds.
 File lengths (MBytes):  RWF=   3480 Int=      0 D2E=      0 Chk=    629 Scr=      1
 Normal termination of Gaussian 09 at Sun Apr  4 13:36:44 2021.
