
                                 *****************
                                 * O   R   C   A *
                                 *****************

                                            #,                                       
                                            ###                                      
                                            ####                                     
                                            #####                                    
                                            ######                                   
                                           ########,                                 
                                     ,,################,,,,,                         
                               ,,#################################,,                 
                          ,,##########################################,,             
                       ,#########################################, ''#####,          
                    ,#############################################,,   '####,        
                  ,##################################################,,,,####,       
                ,###########''''           ''''###############################       
              ,#####''   ,,,,##########,,,,          '''####'''          '####       
            ,##' ,,,,###########################,,,                        '##       
           ' ,,###''''                  '''############,,,                           
         ,,##''                                '''############,,,,        ,,,,,,###''
      ,#''                                            '''#######################'''  
     '                                                          ''''####''''         
             ,#######,   #######,   ,#######,      ##                                
            ,#'     '#,  ##    ##  ,#'     '#,    #''#        ######   ,####,        
            ##       ##  ##   ,#'  ##            #'  '#       #        #'  '#        
            ##       ##  #######   ##           ,######,      #####,   #    #        
            '#,     ,#'  ##    ##  '#,     ,#' ,#      #,         ##   #,  ,#        
             '#######'   ##     ##  '#######'  #'      '#     #####' # '####'        



                  #######################################################
                  #                        -***-                        #
                  #          Department of theory and spectroscopy      #
                  #    Directorship and core code : Frank Neese         #
                  #        Max Planck Institute fuer Kohlenforschung    #
                  #                Kaiser Wilhelm Platz 1               #
                  #                 D-45470 Muelheim/Ruhr               #
                  #                      Germany                        #
                  #                                                     #
                  #                  All rights reserved                #
                  #                        -***-                        #
                  #######################################################


                         Program Version 5.0.2 -  RELEASE  -


 With contributions from (in alphabetic order):
   Daniel Aravena         : Magnetic Suceptibility
   Michael Atanasov       : Ab Initio Ligand Field Theory (pilot matlab implementation)
   Alexander A. Auer      : GIAO ZORA, VPT2 properties, NMR spectrum
   Ute Becker             : Parallelization
   Giovanni Bistoni       : ED, misc. LED, open-shell LED, HFLD
   Martin Brehm           : Molecular dynamics
   Dmytro Bykov           : SCF Hessian
   Vijay G. Chilkuri      : MRCI spin determinant printing, contributions to CSF-ICE
   Dipayan Datta          : RHF DLPNO-CCSD density
   Achintya Kumar Dutta   : EOM-CC, STEOM-CC
   Dmitry Ganyushin       : Spin-Orbit,Spin-Spin,Magnetic field MRCI
   Miquel Garcia          : C-PCM and meta-GGA Hessian, CC/C-PCM, Gaussian charge scheme
   Yang Guo               : DLPNO-NEVPT2, F12-NEVPT2, CIM, IAO-localization
   Andreas Hansen         : Spin unrestricted coupled pair/coupled cluster methods
   Benjamin Helmich-Paris : MC-RPA, TRAH-SCF, COSX integrals
   Lee Huntington         : MR-EOM, pCC
   Robert Izsak           : Overlap fitted RIJCOSX, COSX-SCS-MP3, EOM
   Marcus Kettner         : VPT2
   Christian Kollmar      : KDIIS, OOCD, Brueckner-CCSD(T), CCSD density, CASPT2, CASPT2-K
   Simone Kossmann        : Meta GGA functionals, TD-DFT gradient, OOMP2, MP2 Hessian
   Martin Krupicka        : Initial AUTO-CI
   Lucas Lang             : DCDCAS
   Marvin Lechner         : AUTO-CI (C++ implementation), FIC-MRCC
   Dagmar Lenk            : GEPOL surface, SMD
   Dimitrios Liakos       : Extrapolation schemes; Compound Job, initial MDCI parallelization
   Dimitrios Manganas     : Further ROCIS development; embedding schemes
   Dimitrios Pantazis     : SARC Basis sets
   Anastasios Papadopoulos: AUTO-CI, single reference methods and gradients
   Taras Petrenko         : DFT Hessian,TD-DFT gradient, ASA, ECA, R-Raman, ABS, FL, XAS/XES, NRVS
   Peter Pinski           : DLPNO-MP2, DLPNO-MP2 Gradient
   Christoph Reimann      : Effective Core Potentials
   Marius Retegan         : Local ZFS, SOC
   Christoph Riplinger    : Optimizer, TS searches, QM/MM, DLPNO-CCSD(T), (RO)-DLPNO pert. Triples
   Tobias Risthaus        : Range-separated hybrids, TD-DFT gradient, RPA, STAB
   Michael Roemelt        : Original ROCIS implementation
   Masaaki Saitow         : Open-shell DLPNO-CCSD energy and density
   Barbara Sandhoefer     : DKH picture change effects
   Avijit Sen             : IP-ROCIS
   Kantharuban Sivalingam : CASSCF convergence, NEVPT2, FIC-MRCI
   Bernardo de Souza      : ESD, SOC TD-DFT
   Georgi Stoychev        : AutoAux, RI-MP2 NMR, DLPNO-MP2 response
   Willem Van den Heuvel  : Paramagnetic NMR
   Boris Wezisla          : Elementary symmetry handling
   Frank Wennmohs         : Technical directorship


 We gratefully acknowledge several colleagues who have allowed us to
 interface, adapt or use parts of their codes:
   Stefan Grimme, W. Hujo, H. Kruse, P. Pracht,  : VdW corrections, initial TS optimization,
                  C. Bannwarth, S. Ehlert          DFT functionals, gCP, sTDA/sTD-DF
   Ed Valeev, F. Pavosevic, A. Kumar             : LibInt (2-el integral package), F12 methods
   Garnet Chan, S. Sharma, J. Yang, R. Olivares  : DMRG
   Ulf Ekstrom                                   : XCFun DFT Library
   Mihaly Kallay                                 : mrcc  (arbitrary order and MRCC methods)
   Jiri Pittner, Ondrej Demel                    : Mk-CCSD
   Frank Weinhold                                : gennbo (NPA and NBO analysis)
   Christopher J. Cramer and Donald G. Truhlar   : smd solvation model
   Lars Goerigk                                  : TD-DFT with DH, B97 family of functionals
   V. Asgeirsson, H. Jonsson                     : NEB implementation
   FAccTs GmbH                                   : IRC, NEB, NEB-TS, DLPNO-Multilevel, CI-OPT
                                                   MM, QMMM, 2- and 3-layer-ONIOM, Crystal-QMMM,
                                                   LR-CPCM, SF, NACMEs, symmetry and pop. for TD-DFT,
                                                   nearIR, NL-DFT gradient (VV10), updates on ESD,
                                                   ML-optimized integration grids
   S Lehtola, MJT Oliveira, MAL Marques          : LibXC Library
   Liviu Ungur et al                             : ANISO software


 Your calculation uses the libint2 library for the computation of 2-el integrals
 For citations please refer to: http://libint.valeyev.net

 Your ORCA version has been built with support for libXC version: 5.1.0
 For citations please refer to: https://tddft.org/programs/libxc/

 This ORCA versions uses:
   CBLAS   interface :  Fast vector & matrix operations
   LAPACKE interface :  Fast linear algebra routines
   SCALAPACK package :  Parallel linear algebra routines
   Shared memory     :  Shared parallel matrices
   BLAS/LAPACK       :  OpenBLAS 0.3.15  USE64BITINT DYNAMIC_ARCH NO_AFFINITY Prescott SINGLE_THREADED
        Core in use  :  Prescott
   Copyright (c) 2011-2014, The OpenBLAS Project


Your calculation utilizes the SMD solvation module
Please cite in your paper:
A.V. Marenich, C.J. Cramer, D.G. Truhlar J. Phys. Chem. B, 113, (2009), 6378 

================================================================================

----- Orbital basis set information -----
Your calculation utilizes the basis: def2-TZVP
   F. Weigend and R. Ahlrichs, Phys. Chem. Chem. Phys. 7, 3297 (2005).

----- AuxJ basis set information -----
Your calculation utilizes the auxiliary basis: def2/J
   F. Weigend, Phys. Chem. Chem. Phys. 8, 1057 (2006).

----- AuxC basis set information -----
Your calculation utilizes the auxiliary basis: def2-TZVP/C
  H-La, Hf-Rn : A. Hellweg, C. Hattig, S. Hofener and W. Klopper, Theor. Chem. Acc. 117, 587 (2007).
        Ce-Lu : J. Chmela and M. E. Harding, Mol. Phys. (2018).

================================================================================
                                        WARNINGS
                       Please study these warnings very carefully!
================================================================================

INFO   : Checking CIS options ...
  ===> : (D) CORRECTION FOUND - SETTING MODE=3
  ===> : JK MODE FOUND - ACTIVATING RI-MP2 CODE
  ===> : MP2 AND CIS FOUND - CHECKING
WARNING: CIS(D) and MP2 runs must have the same orbital window
  ===> : adjusting orbital windows

WARNING: No MP2 level density has been requested!
         To caclulate MP2 level properties use
         %mp2 Density relaxed end
         or
         %mp2 Density unrelaxed end
         Otherwise for double-hybrid DFT only the energy is correct!

WARNING: The frozen-core approximation is turned on by default for 
         the MP2 part of double-hybrid DFT.

WARNING: CIS/ROCIS methods need fully converged wavefunctions
  ===> : Setting SCFConvForced true
         You can overwrite this default with %scf ConvForced false 


INFO   : the flag for use of the SHARK integral package has been found!

================================================================================
                                       INPUT FILE
================================================================================
NAME = BF3-Acr_o_M06L_def2TZVP_coords.inp
|  1> %maxcore 20000
|  2> %pal
|  3>  nprocs= 6
|  4> end
|  5> ! RI-SCS-PBE-QIDH   def2-TZVP def2/J def2-TZVP/C RIJCOSX CPCM TightSCF
|  6> %TDDFT  
|  7>    NROOTS   30
|  8>    dcorr 4
|  9>    doscs true 
| 10>    TDA      FALSE
| 11> END
| 12> 
| 13> %CPCM
| 14>    SMD          TRUE
| 15>    SMDsolvent   "ACETONITRILE"
| 16> END
| 17>    
| 18> 
| 19> * xyz 0 1
| 20> C                   0.51206600   -3.37733400   -1.08785000
| 21> C                   1.22884200   -2.24509400   -0.80828200
| 22> C                   0.56165000   -1.02126100   -0.62618200
| 23> C                  -0.86012500   -0.97150600   -0.72114200
| 24> C                  -1.55487400   -2.16935100   -1.02289900
| 25> C                  -0.88833900   -3.34503000   -1.20246900
| 26> C                  -1.53090900    0.24740000   -0.52851900
| 27> C                  -0.78141900    1.40992600   -0.28087600
| 28> C                   0.63912100    1.33324000   -0.19816900
| 29> C                   1.38499600    2.49658800    0.06127700
| 30> H                   2.46163100    2.44273000    0.12000400
| 31> C                   0.74379800    3.69248600    0.24122900
| 32> C                  -0.65728900    3.78443900    0.18150400
| 33> C                  -1.39859100    2.66788800   -0.07049500
| 34> H                   1.03930600   -4.31217200   -1.22804700
| 35> H                   2.30474700   -2.28755300   -0.73063500
| 36> H                  -2.63192200   -2.12927900   -1.10706600
| 37> H                  -1.43132400   -4.25120600   -1.43393000
| 38> H                   1.33083600    4.57974000    0.44021300
| 39> H                  -1.14245800    4.73770200    0.34109200
| 40> H                  -2.47777800    2.72265700   -0.10929600
| 41> N                   1.26196200    0.12497200   -0.36242300
| 42> C                  -3.00776800    0.31074400   -0.62103700
| 43> C                  -3.82181400   -0.15021500    0.42765100
| 44> C                  -3.56027400    0.83683500   -1.79011500
| 45> C                  -5.20240200   -0.06342300    0.23014100
| 46> C                  -4.93460200    0.89491100   -1.95198700
| 47> C                  -5.76094300    0.43989300   -0.93537400
| 48> H                  -5.35402100    1.29720800   -2.86561400
| 49> H                  -2.90505900    1.19394500   -2.57652000
| 50> C                   2.70265600    0.05760100   -0.25217100
| 51> C                   3.28025100   -0.19015900    0.97867200
| 52> C                   3.48695300    0.24302400   -1.38238600
| 53> C                   4.66028500   -0.25514900    1.09451600
| 54> H                   2.65201400   -0.33305300    1.84897100
| 55> C                   4.86021200    0.18008400   -1.27363300
| 56> H                   3.01789800    0.43581500   -2.33896500
| 57> C                   5.45675800   -0.06886300   -0.03470800
| 58> H                   5.10417100   -0.44952000    2.05997400
| 59> H                   5.49135800    0.32230000   -2.14088200
| 60> O                   6.80413200   -0.11088500   -0.02720000
| 61> C                   7.44922400   -0.35785200    1.21347900
| 62> H                   8.51558400   -0.34820700    1.00662500
| 63> H                   7.21769000    0.41868800    1.94580100
| 64> H                   7.17066500   -1.33185700    1.62181200
| 65> H                  -6.83742600    0.48487900   -1.04899900
| 66> H                  -5.85834500   -0.39893200    1.02651800
| 67> F                  -4.15577500   -0.52196500    2.87376400
| 68> F                  -2.00974900   -0.14579500    2.17298200
| 69> F                  -3.02919000   -2.14709500    1.73288700
| 70> B                  -3.24534100   -0.74537200    1.81315300
| 71> *
| 72> 
| 73> 
| 74>                          ****END OF INPUT****
================================================================================

                       ****************************
                       * Single Point Calculation *
                       ****************************

---------------------------------
CARTESIAN COORDINATES (ANGSTROEM)
---------------------------------
  C      0.512066   -3.377334   -1.087850
  C      1.228842   -2.245094   -0.808282
  C      0.561650   -1.021261   -0.626182
  C     -0.860125   -0.971506   -0.721142
  C     -1.554874   -2.169351   -1.022899
  C     -0.888339   -3.345030   -1.202469
  C     -1.530909    0.247400   -0.528519
  C     -0.781419    1.409926   -0.280876
  C      0.639121    1.333240   -0.198169
  C      1.384996    2.496588    0.061277
  H      2.461631    2.442730    0.120004
  C      0.743798    3.692486    0.241229
  C     -0.657289    3.784439    0.181504
  C     -1.398591    2.667888   -0.070495
  H      1.039306   -4.312172   -1.228047
  H      2.304747   -2.287553   -0.730635
  H     -2.631922   -2.129279   -1.107066
  H     -1.431324   -4.251206   -1.433930
  H      1.330836    4.579740    0.440213
  H     -1.142458    4.737702    0.341092
  H     -2.477778    2.722657   -0.109296
  N      1.261962    0.124972   -0.362423
  C     -3.007768    0.310744   -0.621037
  C     -3.821814   -0.150215    0.427651
  C     -3.560274    0.836835   -1.790115
  C     -5.202402   -0.063423    0.230141
  C     -4.934602    0.894911   -1.951987
  C     -5.760943    0.439893   -0.935374
  H     -5.354021    1.297208   -2.865614
  H     -2.905059    1.193945   -2.576520
  C      2.702656    0.057601   -0.252171
  C      3.280251   -0.190159    0.978672
  C      3.486953    0.243024   -1.382386
  C      4.660285   -0.255149    1.094516
  H      2.652014   -0.333053    1.848971
  C      4.860212    0.180084   -1.273633
  H      3.017898    0.435815   -2.338965
  C      5.456758   -0.068863   -0.034708
  H      5.104171   -0.449520    2.059974
  H      5.491358    0.322300   -2.140882
  O      6.804132   -0.110885   -0.027200
  C      7.449224   -0.357852    1.213479
  H      8.515584   -0.348207    1.006625
  H      7.217690    0.418688    1.945801
  H      7.170665   -1.331857    1.621812
  H     -6.837426    0.484879   -1.048999
  H     -5.858345   -0.398932    1.026518
  F     -4.155775   -0.521965    2.873764
  F     -2.009749   -0.145795    2.172982
  F     -3.029190   -2.147095    1.732887
  B     -3.245341   -0.745372    1.813153

----------------------------
CARTESIAN COORDINATES (A.U.)
----------------------------
  NO LB      ZA    FRAG     MASS         X           Y           Z
   0 C     6.0000    0    12.011    0.967665   -6.382236   -2.055739
   1 C     6.0000    0    12.011    2.322175   -4.242613   -1.527432
   2 C     6.0000    0    12.011    1.061365   -1.929904   -1.183312
   3 C     6.0000    0    12.011   -1.625401   -1.835880   -1.362761
   4 C     6.0000    0    12.011   -2.938286   -4.099479   -1.932999
   5 C     6.0000    0    12.011   -1.678717   -6.321191   -2.272337
   6 C     6.0000    0    12.011   -2.892999    0.467518   -0.998756
   7 C     6.0000    0    12.011   -1.476668    2.664374   -0.530779
   8 C     6.0000    0    12.011    1.207764    2.519458   -0.374485
   9 C     6.0000    0    12.011    2.617263    4.717868    0.115797
  10 H     1.0000    0     1.008    4.651808    4.616091    0.226775
  11 C     6.0000    0    12.011    1.405575    6.977787    0.455857
  12 C     6.0000    0    12.011   -1.242096    7.151553    0.342993
  13 C     6.0000    0    12.011   -2.642954    5.041578   -0.133216
  14 H     1.0000    0     1.008    1.964004   -8.148824   -2.320673
  15 H     1.0000    0     1.008    4.355341   -4.322849   -1.380700
  16 H     1.0000    0     1.008   -4.973612   -4.023754   -2.092052
  17 H     1.0000    0     1.008   -2.704810   -8.033615   -2.709735
  18 H     1.0000    0     1.008    2.514916    8.654454    0.831882
  19 H     1.0000    0     1.008   -2.158933    8.952959    0.644570
  20 H     1.0000    0     1.008   -4.682322    5.145076   -0.206540
  21 N     7.0000    0    14.007    2.384763    0.236163   -0.684880
  22 C     6.0000    0    12.011   -5.683858    0.587221   -1.173590
  23 C     6.0000    0    12.011   -7.222182   -0.283865    0.808143
  24 C     6.0000    0    12.011   -6.727943    1.581389   -3.382827
  25 C     6.0000    0    12.011   -9.831115   -0.119852    0.434903
  26 C     6.0000    0    12.011   -9.325046    1.691137   -3.688721
  27 C     6.0000    0    12.011  -10.886605    0.831277   -1.767601
  28 H     1.0000    0     1.008  -10.117633    2.451368   -5.415226
  29 H     1.0000    0     1.008   -5.489766    2.256229   -4.868917
  30 C     6.0000    0    12.011    5.107280    0.108850   -0.476534
  31 C     6.0000    0    12.011    6.198776   -0.359348    1.849422
  32 C     6.0000    0    12.011    6.589386    0.459249   -2.612331
  33 C     6.0000    0    12.011    8.806662   -0.482162    2.068335
  34 H     1.0000    0     1.008    5.011580   -0.629379    3.494049
  35 C     6.0000    0    12.011    9.184470    0.340309   -2.406818
  36 H     1.0000    0     1.008    5.703001    0.823571   -4.420003
  37 C     6.0000    0    12.011   10.311778   -0.130132   -0.065589
  38 H     1.0000    0     1.008    9.645485   -0.849470    3.892787
  39 H     1.0000    0     1.008   10.377163    0.609059   -4.045681
  40 O     8.0000    0    15.999   12.857946   -0.209542   -0.051401
  41 C     6.0000    0    12.011   14.076993   -0.676242    2.293143
  42 H     1.0000    0     1.008   16.092122   -0.658016    1.902246
  43 H     1.0000    0     1.008   13.639457    0.791206    3.677031
  44 H     1.0000    0     1.008   13.550593   -2.516845    3.064781
  45 H     1.0000    0     1.008  -12.920863    0.916289   -1.982321
  46 H     1.0000    0     1.008  -11.070668   -0.753872    1.939838
  47 F     9.0000    0    18.998   -7.853277   -0.986371    5.430627
  48 F     9.0000    0    18.998   -3.797875   -0.275513    4.106341
  49 F     9.0000    0    18.998   -5.724340   -4.057422    3.274682
  50 B     5.0000    0    10.810   -6.132806   -1.408549    3.426363

--------------------------------
INTERNAL COORDINATES (ANGSTROEM)
--------------------------------
 C      0   0   0     0.000000000000     0.00000000     0.00000000
 C      1   0   0     1.368902304184     0.00000000     0.00000000
 C      2   1   0     1.405728560837   119.86951579     0.00000000
 C      3   2   1     1.425811036656   119.67193388     0.62361513
 C      4   3   2     1.417238901553   118.26251347   358.89322444
 C      5   4   3     1.363354466808   121.14669428     0.79978752
 C      4   3   2     1.404559230371   119.82641697   179.46001544
 C      7   4   3     1.405179353757   119.17000094     1.75968942
 C      8   7   4     1.425010555064   119.82883940   358.56995697
 C      9   8   7     1.406065543154   119.66909013   180.54935154
 H     10   9   8     1.079579764500   119.85349270   180.28378314
 C     10   9   8     1.368827828440   119.90891446     0.42024970
 C     12  10   9     1.405370844796   121.23687645     0.45555494
 C     13  12  10     1.363714884720   119.74991796   359.47353945
 H      1   2   3     1.082385930550   119.06234073   179.84810816
 H      2   1   3     1.079538508954   120.26563065   180.22290742
 H      5   4   3     1.081074578083   118.27052830   180.74783429
 H      6   5   4     1.081462827712   120.35100061   180.10046141
 H     12  10   9     1.082325231257   119.09783914   180.00051104
 H     13  12  10     1.081465503599   119.91114866   179.11480977
 H     14  13  12     1.081272279276   120.51080984   179.38207520
 N      3   2   1     1.368888526402   120.74001371   180.81740747
 C      7   4   3     1.481109229105   120.31502631   180.16680637
 C     23   7   4     1.405311570841   121.12851598    76.96967211
 C     23   7   4     1.395986386180   117.58574793   257.35653197
 C     24  23   7     1.397342576861   116.51724229   180.93926764
 C     25  23   7     1.385046142821   120.42403974   178.48980728
 C     27  25  23     1.386860779016   119.45878052     0.74840799
 H     27  25  23     1.082806293341   119.90323291   180.49885704
 H     25  23   7     1.084097353723   119.50019230   358.95733619
 C     22   3   2     1.446476255174   119.02772688   359.04350055
 C     31  22   3     1.382018629496   119.50492532   270.27662169
 C     31  22   3     1.388124425029   119.63449577    90.30837502
 C     32  31  22     1.386411689792   119.92285888   180.06785549
 H     32  31  22     1.082829983333   119.80093252     0.08552425
 C     33  31  22     1.378995627147   119.49492126   179.90803519
 H     33  31  22     1.082693098688   119.89234038   359.94339541
 C     34  32  31     1.394352378598   119.64695946     0.03135403
 H     34  32  31     1.080242572944   119.48105402   180.01912463
 H     36  33  31     1.081984977702   120.77608776   180.05137731
 O     38  34  32     1.348050041513   124.21167848   179.91554291
 C     41  38  34     1.420007312866   117.66801065   359.84154761
 H     42  41  38     1.086280466979   106.14306365   180.20955474
 H     42  41  38     1.092207799112   111.46083622   299.04725111
 H     42  41  38     1.092253036340   111.46089754    61.37213470
 H     28  27  25     1.083397447897   120.10129223   179.70417130
 H     26  24  23     1.084916510363   118.31963444   180.79885843
 F     24  23   7     2.496637102342   149.03215206    31.02372408
 F     48  24  23     2.288673605628    63.26274077   343.14358354
 F     48  24  23     2.282945818072    63.27941014   274.95918325
 B     48  24  23     1.415519851265    37.18916110   309.26415537

---------------------------
INTERNAL COORDINATES (A.U.)
---------------------------
 C      0   0   0     0.000000000000     0.00000000     0.00000000
 C      1   0   0     2.586850459001     0.00000000     0.00000000
 C      2   1   0     2.656441998613   119.86951579     0.00000000
 C      3   2   1     2.694392378002   119.67193388     0.62361513
 C      4   3   2     2.678193390274   118.26251347   358.89322444
 C      5   4   3     2.576366565726   121.14669428     0.79978752
 C      4   3   2     2.654232284273   119.82641697   179.46001544
 C      7   4   3     2.655404147641   119.17000094     1.75968942
 C      8   7   4     2.692879687019   119.82883940   358.56995697
 C      9   8   7     2.657078802904   119.66909013   180.54935154
 H     10   9   8     2.040110094628   119.85349270   180.28378314
 C     10   9   8     2.586709720242   119.90891446     0.42024970
 C     12  10   9     2.655766013262   121.23687645     0.45555494
 C     13  12  10     2.577047656872   119.74991796   359.47353945
 H      1   2   3     2.045412979949   119.06234073   179.84810816
 H      2   1   3     2.040032132945   120.26563065   180.22290742
 H      5   4   3     2.042934882921   118.27052830   180.74783429
 H      6   5   4     2.043668568391   120.35100061   180.10046141
 H     12  10   9     2.045298274909   119.09783914   180.00051104
 H     13  12  10     2.043673625085   119.91114866   179.11480977
 H     14  13  12     2.043308484033   120.51080984   179.38207520
 N      3   2   1     2.586824422766   120.74001371   180.81740747
 C      7   4   3     2.798890817432   120.31502631   180.16680637
 C     23   7   4     2.655654001721   121.12851598    76.96967211
 C     23   7   4     2.638031956563   117.58574793   257.35653197
 C     24  23   7     2.640594785535   116.51724229   180.93926764
 C     25  23   7     2.617357892776   120.42403974   178.48980728
 C     27  25  23     2.620787058218   119.45878052     0.74840799
 H     27  25  23     2.046207350501   119.90323291   180.49885704
 H     25  23   7     2.048647101046   119.50019230   358.95733619
 C     22   3   2     2.733443981498   119.02772688   359.04350055
 C     31  22   3     2.611636721725   119.50492532   270.27662169
 C     31  22   3     2.623175003112   119.63449577    90.30837502
 C     32  31  22     2.619938402574   119.92285888   180.06785549
 H     32  31  22     2.046252118099   119.80093252     0.08552425
 C     33  31  22     2.605924075182   119.49492126   179.90803519
 H     33  31  22     2.045993443607   119.89234038   359.94339541
 C     34  32  31     2.634944129731   119.64695946     0.03135403
 H     34  32  31     2.041362621067   119.48105402   180.01912463
 H     36  33  31     2.044655288874   120.77608776   180.05137731
 O     38  34  32     2.547445393281   124.21167848   179.91554291
 C     41  38  34     2.683424929483   117.66801065   359.84154761
 H     42  41  38     2.052772587219   106.14306365   180.20955474
 H     42  41  38     2.063973621654   111.46083622   299.04725111
 H     42  41  38     2.064059107627   111.46089754    61.37213470
 H     28  27  25     2.047324470715   120.10129223   179.70417130
 H     26  24  23     2.050195082756   118.31963444   180.79885843
 F     24  23   7     4.717960379213   149.03215206    31.02372408
 F     48  24  23     4.324966324572    63.26274077   343.14358354
 F     48  24  23     4.314142374738    63.27941014   274.95918325
 B     48  24  23     2.674944856020    37.18916110   309.26415537

---------------------
BASIS SET INFORMATION
---------------------
There are 6 groups of distinct atoms

 Group   1 Type C   : 11s6p2d1f contracted to 5s3p2d1f pattern {62111/411/11/1}
 Group   2 Type H   : 5s1p contracted to 3s1p pattern {311/1}
 Group   3 Type N   : 11s6p2d1f contracted to 5s3p2d1f pattern {62111/411/11/1}
 Group   4 Type O   : 11s6p2d1f contracted to 5s3p2d1f pattern {62111/411/11/1}
 Group   5 Type F   : 11s6p2d1f contracted to 5s3p2d1f pattern {62111/411/11/1}
 Group   6 Type B   : 11s6p2d1f contracted to 5s3p2d1f pattern {62111/411/11/1}

Atom   0C    basis set group =>   1
Atom   1C    basis set group =>   1
Atom   2C    basis set group =>   1
Atom   3C    basis set group =>   1
Atom   4C    basis set group =>   1
Atom   5C    basis set group =>   1
Atom   6C    basis set group =>   1
Atom   7C    basis set group =>   1
Atom   8C    basis set group =>   1
Atom   9C    basis set group =>   1
Atom  10H    basis set group =>   2
Atom  11C    basis set group =>   1
Atom  12C    basis set group =>   1
Atom  13C    basis set group =>   1
Atom  14H    basis set group =>   2
Atom  15H    basis set group =>   2
Atom  16H    basis set group =>   2
Atom  17H    basis set group =>   2
Atom  18H    basis set group =>   2
Atom  19H    basis set group =>   2
Atom  20H    basis set group =>   2
Atom  21N    basis set group =>   3
Atom  22C    basis set group =>   1
Atom  23C    basis set group =>   1
Atom  24C    basis set group =>   1
Atom  25C    basis set group =>   1
Atom  26C    basis set group =>   1
Atom  27C    basis set group =>   1
Atom  28H    basis set group =>   2
Atom  29H    basis set group =>   2
Atom  30C    basis set group =>   1
Atom  31C    basis set group =>   1
Atom  32C    basis set group =>   1
Atom  33C    basis set group =>   1
Atom  34H    basis set group =>   2
Atom  35C    basis set group =>   1
Atom  36H    basis set group =>   2
Atom  37C    basis set group =>   1
Atom  38H    basis set group =>   2
Atom  39H    basis set group =>   2
Atom  40O    basis set group =>   4
Atom  41C    basis set group =>   1
Atom  42H    basis set group =>   2
Atom  43H    basis set group =>   2
Atom  44H    basis set group =>   2
Atom  45H    basis set group =>   2
Atom  46H    basis set group =>   2
Atom  47F    basis set group =>   5
Atom  48F    basis set group =>   5
Atom  49F    basis set group =>   5
Atom  50B    basis set group =>   6
---------------------------------
AUXILIARY/J BASIS SET INFORMATION
---------------------------------
There are 6 groups of distinct atoms

 Group   1 Type C   : 12s5p4d2f1g contracted to 6s4p3d1f1g pattern {711111/2111/211/2/1}
 Group   2 Type H   : 5s2p1d contracted to 3s1p1d pattern {311/2/1}
 Group   3 Type N   : 12s5p4d2f1g contracted to 6s4p3d1f1g pattern {711111/2111/211/2/1}
 Group   4 Type O   : 12s5p4d2f1g contracted to 6s4p3d1f1g pattern {711111/2111/211/2/1}
 Group   5 Type F   : 12s5p4d2f1g contracted to 6s4p3d1f1g pattern {711111/2111/211/2/1}
 Group   6 Type B   : 12s5p4d2f1g contracted to 6s4p3d1f1g pattern {711111/2111/211/2/1}

Atom   0C    basis set group =>   1
Atom   1C    basis set group =>   1
Atom   2C    basis set group =>   1
Atom   3C    basis set group =>   1
Atom   4C    basis set group =>   1
Atom   5C    basis set group =>   1
Atom   6C    basis set group =>   1
Atom   7C    basis set group =>   1
Atom   8C    basis set group =>   1
Atom   9C    basis set group =>   1
Atom  10H    basis set group =>   2
Atom  11C    basis set group =>   1
Atom  12C    basis set group =>   1
Atom  13C    basis set group =>   1
Atom  14H    basis set group =>   2
Atom  15H    basis set group =>   2
Atom  16H    basis set group =>   2
Atom  17H    basis set group =>   2
Atom  18H    basis set group =>   2
Atom  19H    basis set group =>   2
Atom  20H    basis set group =>   2
Atom  21N    basis set group =>   3
Atom  22C    basis set group =>   1
Atom  23C    basis set group =>   1
Atom  24C    basis set group =>   1
Atom  25C    basis set group =>   1
Atom  26C    basis set group =>   1
Atom  27C    basis set group =>   1
Atom  28H    basis set group =>   2
Atom  29H    basis set group =>   2
Atom  30C    basis set group =>   1
Atom  31C    basis set group =>   1
Atom  32C    basis set group =>   1
Atom  33C    basis set group =>   1
Atom  34H    basis set group =>   2
Atom  35C    basis set group =>   1
Atom  36H    basis set group =>   2
Atom  37C    basis set group =>   1
Atom  38H    basis set group =>   2
Atom  39H    basis set group =>   2
Atom  40O    basis set group =>   4
Atom  41C    basis set group =>   1
Atom  42H    basis set group =>   2
Atom  43H    basis set group =>   2
Atom  44H    basis set group =>   2
Atom  45H    basis set group =>   2
Atom  46H    basis set group =>   2
Atom  47F    basis set group =>   5
Atom  48F    basis set group =>   5
Atom  49F    basis set group =>   5
Atom  50B    basis set group =>   6
---------------------------------
AUXILIARY/C BASIS SET INFORMATION
---------------------------------
There are 6 groups of distinct atoms

 Group   1 Type C   : 8s6p5d3f1g contracted to 8s6p4d3f1g pattern {11111111/111111/2111/111/1}
 Group   2 Type H   : 4s3p2d contracted to 4s2p1d pattern {1111/21/2}
 Group   3 Type N   : 8s6p5d3f1g contracted to 8s6p4d3f1g pattern {11111111/111111/2111/111/1}
 Group   4 Type O   : 8s6p5d3f1g contracted to 8s6p4d3f1g pattern {11111111/111111/2111/111/1}
 Group   5 Type F   : 8s6p5d3f1g contracted to 8s6p4d3f1g pattern {11111111/111111/2111/111/1}
 Group   6 Type B   : 8s6p5d3f1g contracted to 8s6p4d3f1g pattern {11111111/111111/2111/111/1}

Atom   0C    basis set group =>   1
Atom   1C    basis set group =>   1
Atom   2C    basis set group =>   1
Atom   3C    basis set group =>   1
Atom   4C    basis set group =>   1
Atom   5C    basis set group =>   1
Atom   6C    basis set group =>   1
Atom   7C    basis set group =>   1
Atom   8C    basis set group =>   1
Atom   9C    basis set group =>   1
Atom  10H    basis set group =>   2
Atom  11C    basis set group =>   1
Atom  12C    basis set group =>   1
Atom  13C    basis set group =>   1
Atom  14H    basis set group =>   2
Atom  15H    basis set group =>   2
Atom  16H    basis set group =>   2
Atom  17H    basis set group =>   2
Atom  18H    basis set group =>   2
Atom  19H    basis set group =>   2
Atom  20H    basis set group =>   2
Atom  21N    basis set group =>   3
Atom  22C    basis set group =>   1
Atom  23C    basis set group =>   1
Atom  24C    basis set group =>   1
Atom  25C    basis set group =>   1
Atom  26C    basis set group =>   1
Atom  27C    basis set group =>   1
Atom  28H    basis set group =>   2
Atom  29H    basis set group =>   2
Atom  30C    basis set group =>   1
Atom  31C    basis set group =>   1
Atom  32C    basis set group =>   1
Atom  33C    basis set group =>   1
Atom  34H    basis set group =>   2
Atom  35C    basis set group =>   1
Atom  36H    basis set group =>   2
Atom  37C    basis set group =>   1
Atom  38H    basis set group =>   2
Atom  39H    basis set group =>   2
Atom  40O    basis set group =>   4
Atom  41C    basis set group =>   1
Atom  42H    basis set group =>   2
Atom  43H    basis set group =>   2
Atom  44H    basis set group =>   2
Atom  45H    basis set group =>   2
Atom  46H    basis set group =>   2
Atom  47F    basis set group =>   5
Atom  48F    basis set group =>   5
Atom  49F    basis set group =>   5
Atom  50B    basis set group =>   6


           ************************************************************
           *        Program running with 6 parallel MPI-processes     *
           *              working on a common directory               *
           ************************************************************
------------------------------------------------------------------------------
                           ORCA GTO INTEGRAL CALCULATION
                           -- RI-GTO INTEGRALS CHOSEN --
------------------------------------------------------------------------------
------------------------------------------------------------------------------
                   ___                                                        
                  /   \      - P O W E R E D   B Y -                         
                 /     \                                                     
                 |  |  |   _    _      __       _____    __    __             
                 |  |  |  | |  | |    /  \     |  _  \  |  |  /  |          
                  \  \/   | |  | |   /    \    | | | |  |  | /  /          
                 / \  \   | |__| |  /  /\  \   | |_| |  |  |/  /          
                |  |  |   |  __  | /  /__\  \  |    /   |      \           
                |  |  |   | |  | | |   __   |  |    \   |  |\   \          
                \     /   | |  | | |  |  |  |  | |\  \  |  | \   \       
                 \___/    |_|  |_| |__|  |__|  |_| \__\ |__|  \__/        
                                                                              
                      - O R C A' S   B I G   F R I E N D -                    
                                      &                                       
                       - I N T E G R A L  F E E D E R -                       
                                                                              
 v1 FN, 2020, v2 2021                                                         
------------------------------------------------------------------------------


Reading SHARK input file BF3-Acr_o_M06L_def2TZVP_coords.SHARKINP.tmp ... ok
----------------------
SHARK INTEGRAL PACKAGE
----------------------

Number of atoms                             ...     51
Number of basis functions                   ...   1106
Number of shells                            ...    428
Maximum angular momentum                    ...      3
Integral batch strategy                     ... SHARK/LIBINT Hybrid
RI-J (if used) integral strategy            ... SPLIT-RIJ (Revised 2003 algorithm where possible)
Printlevel                                  ...      1
Contraction scheme used                     ... SEGMENTED contraction
Coulomb Range Separation                    ... NOT USED
Exchange Range Separation                   ... NOT USED
Finite Nucleus Model                        ... NOT USED
Auxiliary Coulomb fitting basis             ... AVAILABLE
   # of basis functions in Aux-J            ...   1777
   # of shells in Aux-J                     ...    575
   Maximum angular momentum in Aux-J        ...      4
Auxiliary J/K fitting basis                 ... NOT available
Auxiliary Correlation fitting basis         ... AVAILABLE
   # of basis functions in Aux-C            ...   2717
   # of shells in Aux-C                     ...    837
   Maximum angular momentum in Aux-C        ...      4
Auxiliary 'external' fitting basis          ... NOT available
Integral threshold                          ...     2.500000e-11
Primitive cut-off                           ...     2.500000e-12
Primitive pair pre-selection threshold      ...     2.500000e-12

Calculating pre-screening integrals         ... done (  0.1 sec) Dimension = 428
Organizing shell pair data                  ... done ( 18.8 sec)
Shell pair information
Total number of shell pairs                 ...     91806
Shell pairs after pre-screening             ...     58036
Total number of primitive shell pairs       ...    285396
Primitive shell pairs kept                  ...    116091
          la=0 lb=0:  14093 shell pairs
          la=1 lb=0:  16652 shell pairs
          la=1 lb=1:   4889 shell pairs
          la=2 lb=0:   8352 shell pairs
          la=2 lb=1:   5018 shell pairs
          la=2 lb=2:   1304 shell pairs
          la=3 lb=0:   3880 shell pairs
          la=3 lb=1:   2384 shell pairs
          la=3 lb=2:   1172 shell pairs
          la=3 lb=3:    292 shell pairs

Calculating one electron integrals          ... done (  0.2 sec)
Calculating RI/J V-Matrix + Cholesky decomp.... done (  0.3 sec)
Calculating RI/C V-Matrix + Cholesky decomp.... done (  0.5 sec)
Calculating Nuclear repulsion               ... done (  0.0 sec) ENN=   3113.274768508527 Eh

SHARK setup successfully completed in  20.6 seconds

Maximum memory used throughout the entire GTOINT-calculation: 103.4 MB


           ************************************************************
           *        Program running with 6 parallel MPI-processes     *
           *              working on a common directory               *
           ************************************************************
-------------------------------------------------------------------------------
                                 ORCA SCF
-------------------------------------------------------------------------------

------------
SCF SETTINGS
------------
Hamiltonian:
 Density Functional     Method          .... DFT(GTOs)
 Exchange Functional    Exchange        .... PBE
   PBE kappa parameter   XKappa         ....  0.804000
   PBE mue parameter    XMuePBE         ....  0.219520
 Correlation Functional Correlation     .... PBE
   PBE beta parameter  CBetaPBE         ....  0.066725
 LDA part of GGA corr.  LDAOpt          .... PW91-LDA
 Gradients option       PostSCFGGA      .... off
 Hybrid DFT is turned on
   Fraction HF Exchange ScalHFX         ....  0.690000
   Scaling of DF-GGA-X  ScalDFX         ....  0.310000
   Scaling of DF-GGA-C  ScalDFC         ....  0.670000
   Scaling of DF-LDA-C  ScalLDAC        ....  0.670000
   Perturbative correction              ....  0.330000
   Density functional embedding theory  .... OFF
 RI-approximation to the Coulomb term is turned on
   Number of AuxJ basis functions       .... 1777
   RIJ-COSX (HFX calculated with COS-X)).... on


General Settings:
 Integral files         IntName         .... BF3-Acr_o_M06L_def2TZVP_coords
 Hartree-Fock type      HFTyp           .... RHF
 Total Charge           Charge          ....    0
 Multiplicity           Mult            ....    1
 Number of Electrons    NEL             ....  222
 Basis Dimension        Dim             .... 1106
 Nuclear Repulsion      ENuc            ....   3113.2747685085 Eh

Convergence Acceleration:
 DIIS                   CNVDIIS         .... on
   Start iteration      DIISMaxIt       ....    12
   Startup error        DIISStart       ....  0.200000
   # of expansion vecs  DIISMaxEq       ....     5
   Bias factor          DIISBfac        ....   1.050
   Max. coefficient     DIISMaxC        ....  10.000
 Trust-Rad. Augm. Hess. CNVTRAH         .... auto
   Auto Start mean grad. ratio tolernc. ....  1.125000
   Auto Start start iteration           ....    20
   Auto Start num. interpolation iter.  ....    10
   Max. Number of Micro iterations      ....    16
   Max. Number of Macro iterations      .... Maxiter - #DIIS iter
   Number of Davidson start vectors     ....     2
   Converg. threshold I  (grad. norm)   ....   1.000e-05
   Converg. threshold II (energy diff.) ....   1.000e-08
   Grad. Scal. Fac. for Micro threshold ....   0.100
   Minimum threshold for Micro iter.    ....   0.010
   NR start threshold (gradient norm)   ....   0.001
   Initial trust radius                 ....   0.400
   Minimum AH scaling param. (alpha)    ....   1.000
   Maximum AH scaling param. (alpha)    .... 1000.000
   Orbital update algorithm             .... Taylor
   White noise on init. David. guess    .... on
   Maximum white noise                  ....   0.010
   Quad. conv. algorithm                .... NR
 SOSCF                  CNVSOSCF        .... on
   Start iteration      SOSCFMaxIt      ....   150
   Startup grad/error   SOSCFStart      ....  0.003300
 Level Shifting         CNVShift        .... on
   Level shift para.    LevelShift      ....    0.2500
   Turn off err/grad.   ShiftErr        ....    0.0010
 Zerner damping         CNVZerner       .... off
 Static damping         CNVDamp         .... on
   Fraction old density DampFac         ....    0.7000
   Max. Damping (<1)    DampMax         ....    0.9800
   Min. Damping (>=0)   DampMin         ....    0.0000
   Turn off err/grad.   DampErr         ....    0.1000
 Fernandez-Rico         CNVRico         .... off

SCF Procedure:
 Maximum # iterations   MaxIter         ....   125
 SCF integral mode      SCFMode         .... Direct
   Integral package                     .... SHARK and LIBINT hybrid scheme
 Reset frequency        DirectResetFreq ....    20
 Integral Threshold     Thresh          ....  2.500e-11 Eh
 Primitive CutOff       TCut            ....  2.500e-12 Eh

Convergence Tolerance:
 Convergence Check Mode ConvCheckMode   .... Total+1el-Energy
 Convergence forced     ConvForced      .... 1
 Energy Change          TolE            ....  1.000e-08 Eh
 1-El. energy change                    ....  1.000e-05 Eh
 Orbital Gradient       TolG            ....  1.000e-05
 Orbital Rotation angle TolX            ....  1.000e-05
 DIIS Error             TolErr          ....  5.000e-07


Diagonalization of the overlap matrix:
Smallest eigenvalue                        ... 4.236e-06
Time for diagonalization                   ...    0.281 sec
Threshold for overlap eigenvalues          ... 1.000e-08
Number of eigenvalues below threshold      ... 0
Time for construction of square roots      ...    0.198 sec
Total time needed                          ...    0.485 sec

Time for model grid setup =    0.491 sec

------------------------------
INITIAL GUESS: MODEL POTENTIAL
------------------------------
Loading Hartree-Fock densities                     ... done
Calculating cut-offs                               ... done
Initializing the effective Hamiltonian             ... done
Setting up the integral package (SHARK)            ... done
Starting the Coulomb interaction                   ... done (   1.1 sec)
Reading the grid                                   ... done
Mapping shells                                     ... done
Starting the XC term evaluation                    ... done (   0.7 sec)
  promolecular density results
     # of electrons  =    221.994062438
     EX              =   -187.230528458
     EC              =     -2.747137285
     EX+EC           =   -189.977665743
Transforming the Hamiltonian                       ... done (   0.1 sec)
Diagonalizing the Hamiltonian                      ... done (   0.2 sec)
Back transforming the eigenvectors                 ... done (   0.1 sec)
Now organizing SCF variables                       ... done
                      ------------------
                      INITIAL GUESS DONE (   2.7 sec)
                      ------------------
-------------------
DFT GRID GENERATION
-------------------

General Integration Accuracy     IntAcc      ... 4.388
Radial Grid Type                 RadialGrid  ... OptM3 with GC (2021)
Angular Grid (max. ang.)         AngularGrid ... 4 (Lebedev-302)
Angular grid pruning method      GridPruning ... 4 (adaptive)
Weight generation scheme         WeightScheme... Becke
Basis function cutoff            BFCut       ... 1.0000e-11
Integration weight cutoff        WCut        ... 1.0000e-14
Angular grids for H and He will be reduced by one unit
Partially contracted basis set               ... off
Rotationally invariant grid construction     ... off

Total number of grid points                  ...   250600
Total number of batches                      ...     3945
Average number of points per batch           ...       63
Average number of grid points per atom       ...     4914
Time for grid setup =    1.986 sec

--------------------
COSX GRID GENERATION
--------------------

GRIDX 1
-------
General Integration Accuracy     IntAcc      ... 3.816
Radial Grid Type                 RadialGrid  ... OptM3 with GC (2021)
Angular Grid (max. ang.)         AngularGrid ... 1 (Lebedev-50)
Angular grid pruning method      GridPruning ... 4 (adaptive)
Weight generation scheme         WeightScheme... Becke
Basis function cutoff            BFCut       ... 1.0000e-11
Integration weight cutoff        WCut        ... 1.0000e-14
Angular grids for H and He will be reduced by one unit
Partially contracted basis set               ... on
Rotationally invariant grid construction     ... off

Total number of grid points                  ...    31756
Total number of batches                      ...      517
Average number of points per batch           ...       61
Average number of grid points per atom       ...      623
UseSFitting                                  ... on

GRIDX 2
-------
General Integration Accuracy     IntAcc      ... 4.020
Radial Grid Type                 RadialGrid  ... OptM3 with GC (2021)
Angular Grid (max. ang.)         AngularGrid ... 2 (Lebedev-110)
Angular grid pruning method      GridPruning ... 4 (adaptive)
Weight generation scheme         WeightScheme... Becke
Basis function cutoff            BFCut       ... 1.0000e-11
Integration weight cutoff        WCut        ... 1.0000e-14
Angular grids for H and He will be reduced by one unit
Partially contracted basis set               ... on
Rotationally invariant grid construction     ... off

Total number of grid points                  ...    69439
Total number of batches                      ...     1109
Average number of points per batch           ...       62
Average number of grid points per atom       ...     1362
UseSFitting                                  ... on

GRIDX 3
-------
General Integration Accuracy     IntAcc      ... 4.338
Radial Grid Type                 RadialGrid  ... OptM3 with GC (2021)
Angular Grid (max. ang.)         AngularGrid ... 3 (Lebedev-194)
Angular grid pruning method      GridPruning ... 4 (adaptive)
Weight generation scheme         WeightScheme... Becke
Basis function cutoff            BFCut       ... 1.0000e-11
Integration weight cutoff        WCut        ... 1.0000e-14
Angular grids for H and He will be reduced by one unit
Partially contracted basis set               ... on
Rotationally invariant grid construction     ... off

Total number of grid points                  ...   151841
Total number of batches                      ...     2401
Average number of points per batch           ...       63
Average number of grid points per atom       ...     2977
UseSFitting                                  ... on

Time for X-Grid setup             =    4.758 sec


--------------------
CPCM SOLVATION MODEL
--------------------
CPCM parameters:
  Epsilon                                         ...      35.6880
  Refrac                                          ...       1.3442
  Rsolv                                           ...       1.3000
  Surface type                                    ... GAUSSIAN VDW
  Epsilon function type                           ...         CPCM
Solvent:                                     ... ACETONITRILE
SMD-CDS solvent descriptors:
  Soln                                       ...    1.3442
  Soln25                                     ...    1.3416
  Sola                                       ...    0.0700
  Solb                                       ...    0.3200
  Solg                                       ...   41.2500
  Solc                                       ...    0.0000
  Solh                                       ...    0.0000
Radii:
 Radius for C  used is    3.4960 Bohr (=   1.8500 Ang.)
 Radius for H  used is    2.2677 Bohr (=   1.2000 Ang.)
 Radius for N  used is    3.5716 Bohr (=   1.8900 Ang.)
 Radius for O  used is    4.0969 Bohr (=   2.1680 Ang.)
 Radius for F  used is    3.2692 Bohr (=   1.7300 Ang.)
 Radius for B  used is    3.6283 Bohr (=   1.9200 Ang.)
Calculating surface                               ...        done! (  0.0s)
GEPOL surface points                              ...         2837
GEPOL Volume                                      ...    2852.2870
GEPOL Surface-area                                ...    1515.1971
Calculating surface distance matrix               ...        done! (  0.0s)
Performing Cholesky decomposition & store         ...        done! (  1.0s)
Overall time for CPCM initialization              ...                 1.0s
--------------
SCF ITERATIONS
--------------
ITER       Energy         Delta-E        Max-DP      RMS-DP      [F,P]     Damp
               ***  Starting incremental Fock matrix formation  ***
  0  -1452.8122364742   0.000000000000 0.04563050  0.00052194  0.1885357 0.7000
  1  -1453.0519765214  -0.239740047202 0.03501949  0.00044096  0.1062490 0.7000
                               ***Turning on DIIS***
  2  -1453.1908203254  -0.138843803983 0.09741362  0.00103243  0.0554355 0.0000
  3  -1453.4482054762  -0.257385150813 0.04356698  0.00029976  0.0360340 0.0000
  4  -1453.4692339073  -0.021028431091 0.01420146  0.00011115  0.0085281 0.0000
  5  -1453.4701150898  -0.000881182458 0.00615261  0.00004699  0.0039410 0.0000
                      *** Initiating the SOSCF procedure ***
                           *** Shutting down DIIS ***
                      *** Re-Reading the Fockian *** 
                      *** Removing any level shift *** 
ITER      Energy       Delta-E        Grad      Rot      Max-DP    RMS-DP
  6  -1453.47032348  -0.0002083920  0.001735  0.001735  0.002138  0.000021
               *** Restarting incremental Fock matrix formation ***
  7  -1453.47015488   0.0001685976  0.001139  0.004732  0.009819  0.000105
  8  -1453.47019435  -0.0000394611  0.000580  0.006011  0.003980  0.000047
  9  -1453.47020984  -0.0000154938  0.000190  0.000420  0.003810  0.000040
 10  -1453.47021199  -0.0000021542  0.000057  0.000152  0.000227  0.000003
 11  -1453.47021228  -0.0000002818  0.000022  0.000082  0.000531  0.000005
 12  -1453.47021233  -0.0000000538  0.000018  0.000109  0.000419  0.000002
 13  -1453.47021234  -0.0000000075  0.000003  0.000011  0.000354  0.000003
 14  -1453.47021234  -0.0000000036  0.000003  0.000006  0.000478  0.000002
                  ***Gradient check signals convergence***
              ***Rediagonalizing the Fockian in SOSCF/NRSCF***

               *****************************************************
               *                     SUCCESS                       *
               *           SCF CONVERGED AFTER  15 CYCLES          *
               *****************************************************

Old exchange energy                            =   -131.848736027 Eh
New exchange energy                            =   -131.848667998 Eh
Exchange energy change after final integration =      0.000068029 Eh
Total energy after final integration           =  -1453.470144319 Eh
Final COS-X integration done in                =    72.472 sec

SMD CDS free energy correction energy :                -4.36622     Kcal/mol
Total Energy after SMD CDS correction =             -1453.477102339 Eh

----------------
TOTAL SCF ENERGY
----------------

Total Energy       :        -1453.47710234 Eh          -39551.12269 eV

Components:
Nuclear Repulsion  :         3113.27476851 Eh           84716.51336 eV
Electronic Energy  :        -4566.75187085 Eh         -124267.63605 eV
One Electron Energy:        -8179.81494320 Eh         -222584.08056 eV
Two Electron Energy:         3613.06307235 Eh           98316.44451 eV
Max COSX asymmetry :            0.00001359 Eh               0.00037 eV
CPCM Dielectric    :           -0.07156354 Eh              -1.94734 eV
SMD CDS (Gcds)     :           -0.00695802 Eh              -0.18934 eV

Virial components:
Potential Energy   :        -2901.51378626 Eh          -78954.20408 eV
Kinetic Energy     :         1448.03668392 Eh           39403.08138 eV
Virial Ratio       :            2.00375710


DFT components:
N(Alpha)           :      110.999992010780 electrons
N(Beta)            :      110.999992010780 electrons
N(Total)           :      221.999984021561 electrons
E(X)               :      -59.004063119281 Eh       
E(C)               :       -5.030313436135 Eh       
E(XC)              :      -64.034376555416 Eh       
DFET-embed. en.    :        0.000000000000 Eh       
CPCM Solvation Model Properties:
Surface-charge          :           -0.05587871
Charge-correction       :           -0.00061576 Eh              -0.01676 eV
Free-energy (cav+disp)  :           -0.00695802 Eh              -0.18934 eV

---------------
SCF CONVERGENCE
---------------

  Last Energy change         ...   -8.4747e-09  Tolerance :   1.0000e-08
  Last MAX-Density change    ...    2.2204e-15  Tolerance :   1.0000e-07
  Last RMS-Density change    ...    1.3175e-17  Tolerance :   5.0000e-09
  Last Orbital Gradient      ...    4.3704e-07  Tolerance :   1.0000e-05
  Last Orbital Rotation      ...    1.3825e-06  Tolerance :   1.0000e-05

             **** THE GBW FILE WAS UPDATED (BF3-Acr_o_M06L_def2TZVP_coords.gbw) ****
             **** DENSITY BF3-Acr_o_M06L_def2TZVP_coords.scfp WAS UPDATED ****
             **** ENERGY FILE WAS UPDATED (BF3-Acr_o_M06L_def2TZVP_coords.en.tmp) ****
             **** THE GBW FILE WAS UPDATED (BF3-Acr_o_M06L_def2TZVP_coords.gbw) ****
             **** DENSITY BF3-Acr_o_M06L_def2TZVP_coords.scfp WAS UPDATED ****
----------------
ORBITAL ENERGIES
----------------

  NO   OCC          E(Eh)            E(eV) 
   0   2.0000     -25.606455      -696.7871 
   1   2.0000     -25.605387      -696.7580 
   2   2.0000     -25.603895      -696.7174 
   3   2.0000     -20.039202      -545.2944 
   4   2.0000     -15.181791      -413.1175 
   5   2.0000     -10.912065      -296.9324 
   6   2.0000     -10.911978      -296.9300 
   7   2.0000     -10.896926      -296.5204 
   8   2.0000     -10.896639      -296.5126 
   9   2.0000     -10.869896      -295.7849 
  10   2.0000     -10.859775      -295.5095 
  11   2.0000     -10.859546      -295.5033 
  12   2.0000     -10.857521      -295.4482 
  13   2.0000     -10.848152      -295.1932 
  14   2.0000     -10.848113      -295.1922 
  15   2.0000     -10.843481      -295.0661 
  16   2.0000     -10.843061      -295.0547 
  17   2.0000     -10.838453      -294.9293 
  18   2.0000     -10.838204      -294.9225 
  19   2.0000     -10.837759      -294.9104 
  20   2.0000     -10.835923      -294.8604 
  21   2.0000     -10.835066      -294.8371 
  22   2.0000     -10.831365      -294.7364 
  23   2.0000     -10.830042      -294.7004 
  24   2.0000     -10.826599      -294.6067 
  25   2.0000     -10.825494      -294.5767 
  26   2.0000     -10.824491      -294.5494 
  27   2.0000     -10.819404      -294.4109 
  28   2.0000     -10.818299      -294.3809 
  29   2.0000     -10.814650      -294.2816 
  30   2.0000     -10.801130      -293.9137 
  31   2.0000      -7.314599      -199.0404 
  32   2.0000      -1.424723       -38.7687 
  33   2.0000      -1.379807       -37.5465 
  34   2.0000      -1.377447       -37.4822 
  35   2.0000      -1.299863       -35.3711 
  36   2.0000      -1.239833       -33.7376 
  37   2.0000      -1.096604       -29.8401 
  38   2.0000      -1.081765       -29.4363 
  39   2.0000      -1.062652       -28.9162 
  40   2.0000      -1.050050       -28.5733 
  41   2.0000      -1.017099       -27.6767 
  42   2.0000      -0.967870       -26.3371 
  43   2.0000      -0.953571       -25.9480 
  44   2.0000      -0.949410       -25.8348 
  45   2.0000      -0.943798       -25.6820 
  46   2.0000      -0.930638       -25.3239 
  47   2.0000      -0.921321       -25.0704 
  48   2.0000      -0.914707       -24.8904 
  49   2.0000      -0.865117       -23.5410 
  50   2.0000      -0.842124       -22.9154 
  51   2.0000      -0.816363       -22.2144 
  52   2.0000      -0.803032       -21.8516 
  53   2.0000      -0.777754       -21.1638 
  54   2.0000      -0.762499       -20.7487 
  55   2.0000      -0.754329       -20.5263 
  56   2.0000      -0.751178       -20.4406 
  57   2.0000      -0.724735       -19.7210 
  58   2.0000      -0.706393       -19.2219 
  59   2.0000      -0.703840       -19.1524 
  60   2.0000      -0.685328       -18.6487 
  61   2.0000      -0.681926       -18.5562 
  62   2.0000      -0.657693       -17.8967 
  63   2.0000      -0.645214       -17.5572 
  64   2.0000      -0.633153       -17.2290 
  65   2.0000      -0.622391       -16.9361 
  66   2.0000      -0.616077       -16.7643 
  67   2.0000      -0.613153       -16.6847 
  68   2.0000      -0.606802       -16.5119 
  69   2.0000      -0.603851       -16.4316 
  70   2.0000      -0.598391       -16.2830 
  71   2.0000      -0.594095       -16.1662 
  72   2.0000      -0.581915       -15.8347 
  73   2.0000      -0.576811       -15.6958 
  74   2.0000      -0.570352       -15.5201 
  75   2.0000      -0.568694       -15.4749 
  76   2.0000      -0.562824       -15.3152 
  77   2.0000      -0.560305       -15.2467 
  78   2.0000      -0.555188       -15.1074 
  79   2.0000      -0.552879       -15.0446 
  80   2.0000      -0.547188       -14.8897 
  81   2.0000      -0.536483       -14.5984 
  82   2.0000      -0.534126       -14.5343 
  83   2.0000      -0.526193       -14.3184 
  84   2.0000      -0.523291       -14.2395 
  85   2.0000      -0.513514       -13.9734 
  86   2.0000      -0.504555       -13.7296 
  87   2.0000      -0.501635       -13.6502 
  88   2.0000      -0.500841       -13.6286 
  89   2.0000      -0.490075       -13.3356 
  90   2.0000      -0.488263       -13.2863 
  91   2.0000      -0.487690       -13.2707 
  92   2.0000      -0.485474       -13.2104 
  93   2.0000      -0.476510       -12.9665 
  94   2.0000      -0.473824       -12.8934 
  95   2.0000      -0.467375       -12.7179 
  96   2.0000      -0.461423       -12.5560 
  97   2.0000      -0.457237       -12.4420 
  98   2.0000      -0.447391       -12.1741 
  99   2.0000      -0.434623       -11.8267 
 100   2.0000      -0.432677       -11.7737 
 101   2.0000      -0.430608       -11.7174 
 102   2.0000      -0.402869       -10.9626 
 103   2.0000      -0.387922       -10.5559 
 104   2.0000      -0.352403        -9.5894 
 105   2.0000      -0.334036        -9.0896 
 106   2.0000      -0.328153        -8.9295 
 107   2.0000      -0.319901        -8.7049 
 108   2.0000      -0.314994        -8.5714 
 109   2.0000      -0.304746        -8.2926 
 110   2.0000      -0.294745        -8.0204 
 111   0.0000      -0.053561        -1.4575 
 112   0.0000       0.020678         0.5627 
 113   0.0000       0.040184         1.0935 
 114   0.0000       0.053078         1.4443 
 115   0.0000       0.058373         1.5884 
 116   0.0000       0.061624         1.6769 
 117   0.0000       0.071192         1.9372 
 118   0.0000       0.075091         2.0433 
 119   0.0000       0.103694         2.8216 
 120   0.0000       0.113602         3.0913 
 121   0.0000       0.117434         3.1956 
 122   0.0000       0.121379         3.3029 
 123   0.0000       0.130248         3.5442 
 124   0.0000       0.130516         3.5515 
 125   0.0000       0.134284         3.6541 
 126   0.0000       0.140552         3.8246 
 127   0.0000       0.145182         3.9506 
 128   0.0000       0.147711         4.0194 
 129   0.0000       0.153436         4.1752 
 130   0.0000       0.158291         4.3073 
 131   0.0000       0.162816         4.4304 
 132   0.0000       0.166070         4.5190 
 133   0.0000       0.168238         4.5780 
 134   0.0000       0.176189         4.7944 
 135   0.0000       0.179723         4.8905 
 136   0.0000       0.183522         4.9939 
 137   0.0000       0.185739         5.0542 
 138   0.0000       0.190905         5.1948 
 139   0.0000       0.193101         5.2546 
 140   0.0000       0.196675         5.3518 
 141   0.0000       0.202177         5.5015 
 142   0.0000       0.206784         5.6269 
 143   0.0000       0.212295         5.7768 
 144   0.0000       0.219918         5.9843 
 145   0.0000       0.227944         6.2027 
 146   0.0000       0.230668         6.2768 
 147   0.0000       0.233510         6.3541 
 148   0.0000       0.233874         6.3640 
 149   0.0000       0.240365         6.5407 
 150   0.0000       0.243046         6.6136 
 151   0.0000       0.250965         6.8291 
 152   0.0000       0.252545         6.8721 
 153   0.0000       0.266768         7.2591 
 154   0.0000       0.270576         7.3627 
 155   0.0000       0.272786         7.4229 
 156   0.0000       0.274019         7.4564 
 157   0.0000       0.277675         7.5559 
 158   0.0000       0.281722         7.6661 
 159   0.0000       0.284446         7.7402 
 160   0.0000       0.285458         7.7677 
 161   0.0000       0.292645         7.9633 
 162   0.0000       0.297367         8.0918 
 163   0.0000       0.298633         8.1262 
 164   0.0000       0.303992         8.2720 
 165   0.0000       0.306446         8.3388 
 166   0.0000       0.308548         8.3960 
 167   0.0000       0.310095         8.4381 
 168   0.0000       0.313191         8.5223 
 169   0.0000       0.316400         8.6097 
 170   0.0000       0.319117         8.6836 
 171   0.0000       0.320552         8.7227 
 172   0.0000       0.325002         8.8438 
 173   0.0000       0.332187         9.0393 
 174   0.0000       0.332590         9.0502 
 175   0.0000       0.338078         9.1996 
 176   0.0000       0.343687         9.3522 
 177   0.0000       0.344991         9.3877 
 178   0.0000       0.351424         9.5627 
 179   0.0000       0.355550         9.6750 
 180   0.0000       0.358237         9.7481 
 181   0.0000       0.359153         9.7730 
 182   0.0000       0.366019         9.9599 
 183   0.0000       0.370144        10.0721 
 184   0.0000       0.371342        10.1047 
 185   0.0000       0.374247        10.1838 
 186   0.0000       0.378928        10.3112 
 187   0.0000       0.379491        10.3265 
 188   0.0000       0.381557        10.3827 
 189   0.0000       0.387785        10.5522 
 190   0.0000       0.396379        10.7860 
 191   0.0000       0.400841        10.9074 
 192   0.0000       0.404906        11.0181 
 193   0.0000       0.408999        11.1294 
 194   0.0000       0.411603        11.2003 
 195   0.0000       0.419487        11.4148 
 196   0.0000       0.423234        11.5168 
 197   0.0000       0.429828        11.6962 
 198   0.0000       0.431559        11.7433 
 199   0.0000       0.436275        11.8717 
 200   0.0000       0.439690        11.9646 
 201   0.0000       0.442587        12.0434 
 202   0.0000       0.446541        12.1510 
 203   0.0000       0.450337        12.2543 
 204   0.0000       0.454145        12.3579 
 205   0.0000       0.454912        12.3788 
 206   0.0000       0.456756        12.4290 
 207   0.0000       0.460226        12.5234 
 208   0.0000       0.467051        12.7091 
 209   0.0000       0.467195        12.7130 
 210   0.0000       0.471339        12.8258 
 211   0.0000       0.474599        12.9145 
 212   0.0000       0.479641        13.0517 
 213   0.0000       0.483460        13.1556 
 214   0.0000       0.485767        13.2184 
 215   0.0000       0.488322        13.2879 
 216   0.0000       0.491335        13.3699 
 217   0.0000       0.494273        13.4498 
 218   0.0000       0.496967        13.5231 
 219   0.0000       0.501943        13.6586 
 220   0.0000       0.503119        13.6906 
 221   0.0000       0.505036        13.7427 
 222   0.0000       0.506217        13.7749 
 223   0.0000       0.511021        13.9056 
 224   0.0000       0.513549        13.9744 
 225   0.0000       0.515534        14.0284 
 226   0.0000       0.517368        14.0783 
 227   0.0000       0.521837        14.1999 
 228   0.0000       0.523097        14.2342 
 229   0.0000       0.529446        14.4070 
 230   0.0000       0.532609        14.4930 
 231   0.0000       0.533691        14.5225 
 232   0.0000       0.538554        14.6548 
 233   0.0000       0.540663        14.7122 
 234   0.0000       0.544233        14.8093 
 235   0.0000       0.546387        14.8680 
 236   0.0000       0.550202        14.9718 
 237   0.0000       0.553693        15.0667 
 238   0.0000       0.558569        15.1994 
 239   0.0000       0.561021        15.2662 
 240   0.0000       0.567469        15.4416 
 241   0.0000       0.572221        15.5709 
 242   0.0000       0.577860        15.7244 
 243   0.0000       0.578219        15.7341 
 244   0.0000       0.579869        15.7790 
 245   0.0000       0.584267        15.8987 
 246   0.0000       0.585880        15.9426 
 247   0.0000       0.592970        16.1355 
 248   0.0000       0.596613        16.2347 
 249   0.0000       0.600383        16.3373 
 250   0.0000       0.601773        16.3751 
 251   0.0000       0.605103        16.4657 
 252   0.0000       0.607378        16.5276 
 253   0.0000       0.609146        16.5757 
 254   0.0000       0.612499        16.6670 
 255   0.0000       0.617319        16.7981 
 256   0.0000       0.620671        16.8893 
 257   0.0000       0.632470        17.2104 
 258   0.0000       0.645270        17.5587 
 259   0.0000       0.647607        17.6223 
 260   0.0000       0.652866        17.7654 
 261   0.0000       0.655821        17.8458 
 262   0.0000       0.659452        17.9446 
 263   0.0000       0.664112        18.0714 
 264   0.0000       0.667943        18.1756 
 265   0.0000       0.679072        18.4785 
 266   0.0000       0.687072        18.6962 
 267   0.0000       0.691170        18.8077 
 268   0.0000       0.694386        18.8952 
 269   0.0000       0.696758        18.9597 
 270   0.0000       0.699806        19.0427 
 271   0.0000       0.704821        19.1791 
 272   0.0000       0.713644        19.4193 
 273   0.0000       0.721638        19.6368 
 274   0.0000       0.725977        19.7548 
 275   0.0000       0.731307        19.8999 
 276   0.0000       0.735027        20.0011 
 277   0.0000       0.735753        20.0209 
 278   0.0000       0.744881        20.2692 
 279   0.0000       0.749013        20.3817 
 280   0.0000       0.751802        20.4576 
 281   0.0000       0.754102        20.5202 
 282   0.0000       0.760455        20.6930 
 283   0.0000       0.764238        20.7960 
 284   0.0000       0.766918        20.8689 
 285   0.0000       0.769373        20.9357 
 286   0.0000       0.775857        21.1122 
 287   0.0000       0.776756        21.1366 
 288   0.0000       0.778844        21.1934 
 289   0.0000       0.784069        21.3356 
 290   0.0000       0.789458        21.4822 
 291   0.0000       0.793549        21.5936 
 292   0.0000       0.804589        21.8940 
 293   0.0000       0.805833        21.9278 
 294   0.0000       0.810532        22.0557 
 295   0.0000       0.812971        22.1221 
 296   0.0000       0.818204        22.2645 
 297   0.0000       0.820272        22.3207 
 298   0.0000       0.823311        22.4034 
 299   0.0000       0.826786        22.4980 
 300   0.0000       0.829048        22.5595 
 301   0.0000       0.830761        22.6061 
 302   0.0000       0.835452        22.7338 
 303   0.0000       0.838517        22.8172 
 304   0.0000       0.842148        22.9160 
 305   0.0000       0.843046        22.9404 
 306   0.0000       0.848662        23.0933 
 307   0.0000       0.851741        23.1770 
 308   0.0000       0.853308        23.2197 
 309   0.0000       0.854547        23.2534 
 310   0.0000       0.857572        23.3357 
 311   0.0000       0.859000        23.3746 
 312   0.0000       0.861701        23.4481 
 313   0.0000       0.863700        23.5025 
 314   0.0000       0.871035        23.7021 
 315   0.0000       0.882438        24.0124 
 316   0.0000       0.886222        24.1153 
 317   0.0000       0.889122        24.1942 
 318   0.0000       0.892381        24.2829 
 319   0.0000       0.896766        24.4022 
 320   0.0000       0.907007        24.6809 
 321   0.0000       0.911331        24.7986 
 322   0.0000       0.916907        24.9503 
 323   0.0000       0.920462        25.0470 
 324   0.0000       0.924660        25.1613 
 325   0.0000       0.927717        25.2445 
 326   0.0000       0.929670        25.2976 
 327   0.0000       0.933702        25.4073 
 328   0.0000       0.942467        25.6458 
 329   0.0000       0.948467        25.8091 
 330   0.0000       0.950436        25.8627 
 331   0.0000       0.951231        25.8843 
 332   0.0000       0.957946        26.0670 
 333   0.0000       0.960869        26.1466 
 334   0.0000       0.965266        26.2662 
 335   0.0000       0.967596        26.3296 
 336   0.0000       0.971973        26.4487 
 337   0.0000       0.978528        26.6271 
 338   0.0000       0.984377        26.7863 
 339   0.0000       0.988947        26.9106 
 340   0.0000       0.991620        26.9834 
 341   0.0000       0.995391        27.0860 
 342   0.0000       0.999431        27.1959 
 343   0.0000       1.008069        27.4309 
 344   0.0000       1.009495        27.4697 
 345   0.0000       1.015265        27.6268 
 346   0.0000       1.019658        27.7463 
 347   0.0000       1.027538        27.9607 
 348   0.0000       1.029772        28.0215 
 349   0.0000       1.039263        28.2798 
 350   0.0000       1.049023        28.5454 
 351   0.0000       1.052978        28.6530 
 352   0.0000       1.058815        28.8118 
 353   0.0000       1.061764        28.8921 
 354   0.0000       1.065736        29.0002 
 355   0.0000       1.072003        29.1707 
 356   0.0000       1.082606        29.4592 
 357   0.0000       1.089819        29.6555 
 358   0.0000       1.095851        29.8196 
 359   0.0000       1.102621        30.0038 
 360   0.0000       1.106144        30.0997 
 361   0.0000       1.110591        30.2207 
 362   0.0000       1.117980        30.4218 
 363   0.0000       1.120547        30.4916 
 364   0.0000       1.135820        30.9072 
 365   0.0000       1.142074        31.0774 
 366   0.0000       1.147845        31.2344 
 367   0.0000       1.154790        31.4234 
 368   0.0000       1.158528        31.5251 
 369   0.0000       1.166976        31.7550 
 370   0.0000       1.175158        31.9777 
 371   0.0000       1.175893        31.9977 
 372   0.0000       1.180323        32.1182 
 373   0.0000       1.190593        32.3977 
 374   0.0000       1.195826        32.5401 
 375   0.0000       1.201142        32.6847 
 376   0.0000       1.203526        32.7496 
 377   0.0000       1.210014        32.9262 
 378   0.0000       1.215306        33.0702 
 379   0.0000       1.221083        33.2274 
 380   0.0000       1.230814        33.4922 
 381   0.0000       1.233740        33.5718 
 382   0.0000       1.237933        33.6859 
 383   0.0000       1.240527        33.7565 
 384   0.0000       1.245852        33.9013 
 385   0.0000       1.260839        34.3092 
 386   0.0000       1.271602        34.6020 
 387   0.0000       1.275997        34.7216 
 388   0.0000       1.284303        34.9477 
 389   0.0000       1.290745        35.1230 
 390   0.0000       1.296906        35.2906 
 391   0.0000       1.300867        35.3984 
 392   0.0000       1.304882        35.5077 
 393   0.0000       1.308682        35.6110 
 394   0.0000       1.318098        35.8673 
 395   0.0000       1.321357        35.9560 
 396   0.0000       1.333195        36.2781 
 397   0.0000       1.343819        36.5672 
 398   0.0000       1.347496        36.6672 
 399   0.0000       1.354934        36.8696 
 400   0.0000       1.362066        37.0637 
 401   0.0000       1.366575        37.1864 
 402   0.0000       1.368970        37.2516 
 403   0.0000       1.375010        37.4159 
 404   0.0000       1.379011        37.5248 
 405   0.0000       1.382832        37.6288 
 406   0.0000       1.386242        37.7216 
 407   0.0000       1.388018        37.7699 
 408   0.0000       1.392239        37.8847 
 409   0.0000       1.395925        37.9851 
 410   0.0000       1.403438        38.1895 
 411   0.0000       1.407478        38.2994 
 412   0.0000       1.414226        38.4831 
 413   0.0000       1.417720        38.5781 
 414   0.0000       1.426747        38.8238 
 415   0.0000       1.433475        39.0068 
 416   0.0000       1.436819        39.0978 
 417   0.0000       1.440735        39.2044 
 418   0.0000       1.448363        39.4119 
 419   0.0000       1.455400        39.6034 
 420   0.0000       1.458391        39.6848 
 421   0.0000       1.468680        39.9648 
 422   0.0000       1.475307        40.1452 
 423   0.0000       1.481342        40.3094 
 424   0.0000       1.495183        40.6860 
 425   0.0000       1.499129        40.7934 
 426   0.0000       1.504653        40.9437 
 427   0.0000       1.512492        41.1570 
 428   0.0000       1.520416        41.3726 
 429   0.0000       1.525255        41.5043 
 430   0.0000       1.539851        41.9015 
 431   0.0000       1.543825        42.0096 
 432   0.0000       1.557656        42.3860 
 433   0.0000       1.564876        42.5824 
 434   0.0000       1.570252        42.7287 
 435   0.0000       1.571848        42.7722 
 436   0.0000       1.589015        43.2393 
 437   0.0000       1.594502        43.3886 
 438   0.0000       1.599080        43.5132 
 439   0.0000       1.607073        43.7307 
 440   0.0000       1.610858        43.8337 
 441   0.0000       1.615449        43.9586 
 442   0.0000       1.621630        44.1268 
 443   0.0000       1.624399        44.2022 
 444   0.0000       1.629353        44.3370 
 445   0.0000       1.633337        44.4454 
 446   0.0000       1.636990        44.5448 
 447   0.0000       1.646777        44.8111 
 448   0.0000       1.657455        45.1016 
 449   0.0000       1.660020        45.1714 
 450   0.0000       1.666898        45.3586 
 451   0.0000       1.668437        45.4005 
 452   0.0000       1.675648        45.5967 
 453   0.0000       1.678245        45.6674 
 454   0.0000       1.682683        45.7881 
 455   0.0000       1.686447        45.8906 
 456   0.0000       1.687903        45.9302 
 457   0.0000       1.696420        46.1619 
 458   0.0000       1.701130        46.2901 
 459   0.0000       1.708928        46.5023 
 460   0.0000       1.711255        46.5656 
 461   0.0000       1.713516        46.6271 
 462   0.0000       1.719399        46.7872 
 463   0.0000       1.726200        46.9723 
 464   0.0000       1.728299        47.0294 
 465   0.0000       1.732077        47.1322 
 466   0.0000       1.739567        47.3360 
 467   0.0000       1.745382        47.4943 
 468   0.0000       1.750298        47.6280 
 469   0.0000       1.752369        47.6844 
 470   0.0000       1.760303        47.9003 
 471   0.0000       1.766459        48.0678 
 472   0.0000       1.772732        48.2385 
 473   0.0000       1.774662        48.2910 
 474   0.0000       1.780360        48.4461 
 475   0.0000       1.783241        48.5245 
 476   0.0000       1.790978        48.7350 
 477   0.0000       1.797362        48.9087 
 478   0.0000       1.801149        49.0118 
 479   0.0000       1.806672        49.1620 
 480   0.0000       1.817213        49.4489 
 481   0.0000       1.820302        49.5329 
 482   0.0000       1.822658        49.5970 
 483   0.0000       1.831324        49.8328 
 484   0.0000       1.837626        50.0043 
 485   0.0000       1.846241        50.2388 
 486   0.0000       1.853311        50.4312 
 487   0.0000       1.859699        50.6050 
 488   0.0000       1.866612        50.7931 
 489   0.0000       1.867317        50.8123 
 490   0.0000       1.876151        51.0527 
 491   0.0000       1.878082        51.1052 
 492   0.0000       1.884140        51.2701 
 493   0.0000       1.889558        51.4175 
 494   0.0000       1.891965        51.4830 
 495   0.0000       1.898017        51.6477 
 496   0.0000       1.906479        51.8779 
 497   0.0000       1.911460        52.0135 
 498   0.0000       1.915679        52.1283 
 499   0.0000       1.917801        52.1860 
 500   0.0000       1.922408        52.3114 
 501   0.0000       1.933580        52.6154 
 502   0.0000       1.936145        52.6852 
 503   0.0000       1.938777        52.7568 
 504   0.0000       1.943949        52.8976 
 505   0.0000       1.950588        53.0782 
 506   0.0000       1.956700        53.2445 
 507   0.0000       1.957492        53.2661 
 508   0.0000       1.970809        53.6284 
 509   0.0000       1.975887        53.7666 
 510   0.0000       1.983811        53.9823 
 511   0.0000       1.994053        54.2609 
 512   0.0000       1.997987        54.3680 
 513   0.0000       2.011628        54.7392 
 514   0.0000       2.018661        54.9305 
 515   0.0000       2.025083        55.1053 
 516   0.0000       2.030953        55.2650 
 517   0.0000       2.037480        55.4427 
 518   0.0000       2.046489        55.6878 
 519   0.0000       2.047585        55.7176 
[...]
    96a -> 111a  :     0.011209 
    98a -> 111a  :     0.023759 
    99a -> 111a  :     0.041377 
   100a -> 111a  :     0.021220 
   102a -> 111a  :     0.110610 
   103a -> 111a  :     0.078923 
   104a -> 112a  :     0.227622 
   105a -> 112a  :     0.086164 
   106a -> 113a  :     0.080424 
   106a -> 117a  :     0.047012 
   107a -> 112a  :     0.010395 
   107a -> 113a  :     0.010322 
   107a -> 114a  :     0.011045 
   108a -> 112a  :     0.029227 
   108a -> 113a  :     0.018478 
   110a -> 122a  :     0.048846 

STATE 17:  E=   0.207786 au      5.654 eV    45603.8 cm**-1 <S**2> =   0.000000
    96a -> 111a  :     0.061011 
    99a -> 111a  :     0.025148 
   100a -> 111a  :     0.246133 
   102a -> 111a  :     0.286783 
   104a -> 112a  :     0.072475 
   105a -> 112a  :     0.030166 
   106a -> 112a  :     0.047390 
   106a -> 113a  :     0.010547 
   107a -> 114a  :     0.013561 
   108a -> 112a  :     0.010393 
   108a -> 113a  :     0.012636 
   110a -> 122a  :     0.018800 

STATE 18:  E=   0.227965 au      6.203 eV    50032.5 cm**-1 <S**2> =   0.000000
    98a -> 111a  :     0.010956 
   104a -> 113a  :     0.037495 
   104a -> 117a  :     0.015933 
   106a -> 112a  :     0.108573 
   107a -> 112a  :     0.014575 
   107a -> 114a  :     0.096349 
   108a -> 112a  :     0.054736 
   108a -> 113a  :     0.021892 
   110a -> 114a  :     0.146581 
   110a -> 118a  :     0.352944 

STATE 19:  E=   0.206394 au      5.616 eV    45298.3 cm**-1 <S**2> =   0.000000
   101a -> 112a  :     0.012844 
   105a -> 113a  :     0.012210 
   105a -> 115a  :     0.061003 
   105a -> 116a  :     0.012356 
   109a -> 112a  :     0.742618 
   109a -> 113a  :     0.078232 
   109a -> 115a  :     0.026356 
   109a -> 116a  :     0.011196 

STATE 20:  E=   0.222977 au      6.068 eV    48937.7 cm**-1 <S**2> =   0.000000
    99a -> 111a  :     0.011426 
   100a -> 111a  :     0.026182 
   102a -> 111a  :     0.091348 
   103a -> 111a  :     0.042650 
   106a -> 112a  :     0.015617 
   106a -> 114a  :     0.012493 
   107a -> 112a  :     0.278528 
   107a -> 113a  :     0.079428 
   107a -> 115a  :     0.013896 
   107a -> 116a  :     0.027202 
   107a -> 117a  :     0.045322 
   108a -> 112a  :     0.027088 
   108a -> 114a  :     0.211424 
   108a -> 118a  :     0.017659 

STATE 21:  E=   0.235607 au      6.411 eV    51709.8 cm**-1 <S**2> =   0.000000
    98a -> 111a  :     0.013964 
   100a -> 111a  :     0.012095 
   104a -> 113a  :     0.016578 
   104a -> 116a  :     0.010754 
   105a -> 112a  :     0.193943 
   105a -> 113a  :     0.238801 
   105a -> 115a  :     0.026571 
   105a -> 116a  :     0.058127 
   105a -> 117a  :     0.016421 
   106a -> 117a  :     0.012253 
   107a -> 114a  :     0.013305 
   108a -> 113a  :     0.014639 
   109a -> 112a  :     0.020291 
   109a -> 115a  :     0.120600 
   109a -> 116a  :     0.104771 

STATE 22:  E=   0.215273 au      5.858 eV    47247.0 cm**-1 <S**2> =   0.000000
    96a -> 111a  :     0.075369 
    99a -> 111a  :     0.077858 
   100a -> 111a  :     0.196393 
   102a -> 111a  :     0.117441 
   103a -> 111a  :     0.093683 
   103a -> 114a  :     0.012552 
   106a -> 112a  :     0.011187 
   107a -> 112a  :     0.088588 
   107a -> 113a  :     0.010432 
   107a -> 114a  :     0.055801 
   108a -> 112a  :     0.071606 
   108a -> 113a  :     0.020053 
   108a -> 114a  :     0.013700 
   108a -> 116a  :     0.012271 
   108a -> 117a  :     0.013210 
   110a -> 114a  :     0.012319 

STATE 23:  E=   0.229137 au      6.235 eV    50289.7 cm**-1 <S**2> =   0.000000
    99a -> 111a  :     0.012842 
   102a -> 111a  :     0.055877 
   103a -> 114a  :     0.010220 
   105a -> 113a  :     0.010076 
   106a -> 112a  :     0.023513 
   106a -> 113a  :     0.034416 
   107a -> 114a  :     0.056325 
   108a -> 112a  :     0.034333 
   108a -> 116a  :     0.010436 
   108a -> 117a  :     0.021666 
   110a -> 113a  :     0.026673 
   110a -> 114a  :     0.166937 
   110a -> 115a  :     0.348692 
   110a -> 116a  :     0.019391 

STATE 24:  E=   0.229876 au      6.255 eV    50452.0 cm**-1 <S**2> =   0.000000
    96a -> 111a  :     0.014721 
    99a -> 111a  :     0.016060 
   102a -> 111a  :     0.055988 
   105a -> 113a  :     0.011360 
   106a -> 112a  :     0.021522 
   106a -> 113a  :     0.028288 
   106a -> 118a  :     0.021560 
   107a -> 114a  :     0.037836 
   107a -> 115a  :     0.028117 
   107a -> 116a  :     0.031916 
   107a -> 117a  :     0.014621 
   108a -> 112a  :     0.056845 
   108a -> 114a  :     0.051528 
   108a -> 117a  :     0.012292 
   110a -> 113a  :     0.031191 
   110a -> 114a  :     0.031026 
   110a -> 115a  :     0.300137 
   110a -> 116a  :     0.035467 
   110a -> 117a  :     0.022844 

STATE 25:  E=   0.236221 au      6.428 eV    51844.6 cm**-1 <S**2> =   0.000000
   104a -> 115a  :     0.024774 
   104a -> 116a  :     0.017259 
   105a -> 115a  :     0.223236 
   105a -> 116a  :     0.155729 
   106a -> 118a  :     0.012422 
   107a -> 112a  :     0.093008 
   107a -> 113a  :     0.012252 
   107a -> 114a  :     0.027485 
   107a -> 115a  :     0.016520 
   107a -> 116a  :     0.020036 
   108a -> 112a  :     0.010831 
   108a -> 114a  :     0.013285 
   108a -> 116a  :     0.025812 
   109a -> 113a  :     0.152390 
   110a -> 115a  :     0.052452 

STATE 26:  E=   0.234642 au      6.385 eV    51497.9 cm**-1 <S**2> =   0.000000
   104a -> 115a  :     0.014166 
   105a -> 115a  :     0.131018 
   105a -> 116a  :     0.078848 
   106a -> 118a  :     0.029380 
   107a -> 112a  :     0.145951 
   107a -> 113a  :     0.029792 
   107a -> 114a  :     0.042836 
   107a -> 115a  :     0.030587 
   107a -> 116a  :     0.060816 
   107a -> 117a  :     0.014024 
   108a -> 112a  :     0.029399 
   108a -> 113a  :     0.010636 
   108a -> 114a  :     0.054271 
   108a -> 115a  :     0.014083 
   108a -> 116a  :     0.031968 
   108a -> 117a  :     0.012274 
   109a -> 113a  :     0.080656 
   110a -> 115a  :     0.054544 

STATE 27:  E=   0.231682 au      6.304 eV    50848.3 cm**-1 <S**2> =   0.000000
    95a -> 111a  :     0.026384 
   102a -> 113a  :     0.010444 
   103a -> 113a  :     0.011708 
   106a -> 114a  :     0.039204 
   106a -> 118a  :     0.099965 
   107a -> 112a  :     0.039086 
   108a -> 112a  :     0.043136 
   108a -> 118a  :     0.012906 
   110a -> 112a  :     0.018145 
   110a -> 113a  :     0.056851 
   110a -> 114a  :     0.031931 
   110a -> 116a  :     0.397320 
   110a -> 117a  :     0.077169 

STATE 28:  E=   0.233852 au      6.363 eV    51324.5 cm**-1 <S**2> =   0.000000
    65a -> 111a  :     0.014198 
    78a -> 111a  :     0.014080 
    88a -> 117a  :     0.013049 
    94a -> 111a  :     0.107850 
    95a -> 111a  :     0.584446 
    97a -> 111a  :     0.084848 
   101a -> 111a  :     0.035668 
   110a -> 116a  :     0.019452 

STATE 29:  E=   0.229595 au      6.248 eV    50390.3 cm**-1 <S**2> =   0.000000
    98a -> 111a  :     0.012664 
   103a -> 114a  :     0.026564 
   106a -> 112a  :     0.054970 
   106a -> 113a  :     0.026878 
   106a -> 118a  :     0.013283 
   107a -> 112a  :     0.075501 
   108a -> 112a  :     0.326295 
   108a -> 113a  :     0.032367 
   108a -> 115a  :     0.031880 
   108a -> 116a  :     0.045699 
   110a -> 114a  :     0.068360 
   110a -> 116a  :     0.096670 
   110a -> 117a  :     0.022795 
   110a -> 118a  :     0.024325 

STATE 30:  E=   0.239787 au      6.525 eV    52627.1 cm**-1 <S**2> =   0.000000
   102a -> 113a  :     0.015690 
   102a -> 117a  :     0.013027 
   103a -> 112a  :     0.011548 
   103a -> 113a  :     0.018299 
   103a -> 114a  :     0.015792 
   104a -> 118a  :     0.014316 
   105a -> 118a  :     0.016342 
   106a -> 112a  :     0.010113 
   106a -> 114a  :     0.126448 
   106a -> 118a  :     0.192342 
   107a -> 112a  :     0.049372 
   107a -> 113a  :     0.024055 
   107a -> 115a  :     0.010011 
   107a -> 116a  :     0.015926 
   107a -> 118a  :     0.032121 
   108a -> 118a  :     0.042605 
   110a -> 113a  :     0.017490 
   110a -> 114a  :     0.058811 
   110a -> 115a  :     0.028517 
   110a -> 116a  :     0.078279 
   110a -> 117a  :     0.040925 
   110a -> 118a  :     0.038165 


-------------------------
TD-DFT-EXCITATION SPECTRA
-------------------------

Center of mass = ( -0.1290, -0.0270,  0.0583)
Calculating the Dipole integrals                  ... done
Transforming integrals                            ... done
Calculating the Linear Momentum integrals         ... done
Transforming integrals                            ... done
Calculating angular momentum integrals            ... done
Transforming integrals                            ... done

-----------------------------------------------------------------------------
         ABSORPTION SPECTRUM VIA TRANSITION ELECTRIC DIPOLE MOMENTS
-----------------------------------------------------------------------------
State   Energy    Wavelength  fosc         T2        TX        TY        TZ  
        (cm-1)      (nm)                 (au**2)    (au)      (au)      (au) 
-----------------------------------------------------------------------------
   1   24210.8    413.0   0.222438456   3.02466   1.73504  -0.04312   0.11148
   2   29019.4    344.6   0.327975645   3.72073  -0.02991  -1.89629  -0.35205
   3   29861.8    334.9   0.018565259   0.20467   0.45211   0.01587  -0.00436
   4   30824.9    324.4   0.023212723   0.24791  -0.08232   0.48977   0.03559
   5   29494.8    339.0   0.004426398   0.04941   0.00940  -0.22208   0.00052
   6   32703.8    305.8   0.049553482   0.49883   0.11128   0.63652   0.28512
   7   38167.5    262.0   0.033777429   0.29135  -0.00675   0.14631  -0.51951
   8   38970.6    256.6   0.922207984   7.79053   0.06511   2.73544   0.55106
   9   39283.6    254.6   0.050404079   0.42241  -0.15444   0.59800   0.20235
  10   39125.5    255.6   0.333086485   2.80268  -0.15881  -1.65051  -0.23083
  11   45990.2    217.4   0.226502406   1.62137  -1.25717   0.05297  -0.19517
  12   46368.9    215.7   0.010367387   0.07361  -0.18960  -0.06115   0.18417
  13   46266.3    216.1   0.066558758   0.47361   0.68421  -0.05975   0.04342
  14   45130.4    221.6   0.025698729   0.18746  -0.18520   0.37865  -0.09894
  15   45971.6    217.5   0.106259411   0.76095  -0.86699  -0.07807  -0.05631
  16   43838.4    228.1   0.046543822   0.34953   0.57971   0.04129  -0.10844
  17   45603.8    219.3   0.025094159   0.18115  -0.31715   0.08462  -0.27095
  18   50032.5    199.9   0.911073123   5.99483   2.44247  -0.08811   0.14623
  19   45298.3    220.8   0.064405804   0.46808  -0.61300  -0.02466   0.30283
  20   48937.7    204.3   0.253489285   1.70526  -0.05779   0.45968  -1.22091
  21   51709.8    193.4   1.374762777   8.75247   2.95133  -0.08912   0.18487
  22   47247.0    211.7   0.089406527   0.62297  -0.61314   0.19764  -0.45604
  23   50289.7    198.8   0.011586921   0.07585   0.21732   0.14908   0.08000
  24   50452.0    198.2   0.015821743   0.10324  -0.12642  -0.08783   0.28204
  25   51844.6    192.9   0.098944036   0.62829   0.24612   0.04574  -0.75208
  26   51497.9    194.2   0.512739126   3.27780   0.19371  -0.46231   1.73970
  27   50848.3    196.7   0.046191389   0.29906  -0.13684   0.52462  -0.07152
  28   51324.5    194.8   0.003588393   0.02302  -0.09251   0.11983  -0.01004
  29   50390.3    198.5   0.045492467   0.29721   0.53510  -0.10425   0.00291
  30   52627.1    190.0   0.101702089   0.63620   0.13556   0.78381  -0.05893

-----------------------------------------------------------------------------
         ABSORPTION SPECTRUM VIA TRANSITION VELOCITY DIPOLE MOMENTS
-----------------------------------------------------------------------------
State   Energy    Wavelength   fosc        P2         PX        PY        PZ  
        (cm-1)      (nm)                 (au**2)     (au)      (au)      (au) 
-----------------------------------------------------------------------------
   1   24210.8    413.0   0.315516968   0.05221  -0.22795   0.00571  -0.01472
   2   29019.4    344.6   0.431295588   0.08554   0.00452   0.28753   0.05334
   3   29861.8    334.9   0.025498698   0.00520  -0.07209  -0.00267   0.00078
   4   30824.9    324.4   0.034672967   0.00730   0.01383  -0.08412  -0.00612
   5   29494.8    339.0   0.007406074   0.00149  -0.00154   0.03861  -0.00006
   6   32703.8    305.8   0.070862615   0.01584  -0.01965  -0.11338  -0.05097
   7   38167.5    262.0   0.047032373   0.01227   0.00299  -0.02991   0.10661
   8   38970.6    256.6   1.221009496   0.32521  -0.01327  -0.55889  -0.11259
   9   39283.6    254.6   0.068647118   0.01843   0.03246  -0.12495  -0.04201
  10   39125.5    255.6   0.459408490   0.12285   0.03335   0.34552   0.04849
  11   45990.2    217.4   0.244648772   0.07690   0.27370  -0.01171   0.04298
  12   46368.9    215.7   0.011110015   0.00352   0.04112   0.01349  -0.04060
  13   46266.3    216.1   0.073570063   0.02326  -0.15167   0.01280  -0.00979
  14   45130.4    221.6   0.033396543   0.01030   0.04348  -0.08892   0.02245
  15   45971.6    217.5   0.132004961   0.04148   0.20240   0.01835   0.01309
  16   43838.4    228.1   0.063764831   0.01910  -0.13560  -0.00961   0.02502
  17   45603.8    219.3   0.032345839   0.01008   0.07492  -0.02007   0.06376
  18   50032.5    199.9   1.070213848   0.36596  -0.60346   0.02190  -0.03618
  19   45298.3    220.8   0.092419727   0.02861   0.15232   0.00573  -0.07333
  20   48937.7    204.3   0.320719443   0.10727   0.01449  -0.11497   0.30633
  21   51709.8    193.4   1.576162252   0.55703  -0.74455   0.02249  -0.04665
  22   47247.0    211.7   0.123910416   0.04001   0.15516  -0.05037   0.11576
  23   50289.7    198.8   0.014795425   0.00509  -0.05634  -0.03850  -0.02072
  24   50452.0    198.2   0.020358420   0.00702   0.03334   0.02320  -0.07328
  25   51844.6    192.9   0.118457847   0.04197  -0.06291  -0.01193   0.19461
  26   51497.9    194.2   0.634525659   0.22333  -0.05129   0.12050  -0.45407
  27   50848.3    196.7   0.059514213   0.02068   0.03594  -0.13790   0.01934
  28   51324.5    194.8   0.004559419   0.00160   0.02437  -0.03159   0.00277
  29   50390.3    198.5   0.061496542   0.02118  -0.14267   0.02869  -0.00070
  30   52627.1    190.0   0.130438628   0.04692  -0.03627  -0.21297   0.01567

-------------------------------------------------------------------
                             CD SPECTRUM
-------------------------------------------------------------------
State  Energy     Wavelength     R         MX        MY        MZ   
       (cm-1)       (nm)     (1e40*cgs)   (au)      (au)      (au)  
-------------------------------------------------------------------
   1   24210.8    413.0    -15.56284  -0.01925  -0.13024  -0.04695
   2   29019.4    344.6     -6.82130  -0.17713  -0.04986   0.32473
   3   29861.8    334.9    -13.20591  -0.05926  -0.08549  -0.03159
   4   30824.9    324.4    -27.25234   0.02960  -0.15095   0.52157
   5   29494.8    339.0     -9.97691   0.03211   0.09602  -0.26991
   6   32703.8    305.8     68.03328   0.05270   0.08257   0.30122
   7   38167.5    262.0      6.15612   0.00347   0.28283   0.05447
   8   38970.6    256.6     23.86685   0.30779   0.02000  -0.04378
   9   39283.6    254.6     29.97471   0.06681   0.11296   0.03138
  10   39125.5    255.6    -52.22416  -0.18509   0.06791   0.12162
  11   45990.2    217.4    -12.80138   0.02098   0.32166   0.09128
  12   46368.9    215.7     -0.35928   0.02273  -0.06999  -0.00398
  13   46266.3    216.1     -3.83280  -0.00924   0.00676  -0.03239
  14   45130.4    221.6     50.20439   0.11762   0.04719  -1.11584
  15   45971.6    217.5      3.31961  -0.03412   0.03420   0.35295
  16   43838.4    228.1    -14.33310  -0.05130  -0.16656  -0.05732
  17   45603.8    219.3     -1.06290  -0.01733  -0.19370  -0.03188
  18   50032.5    199.9     11.34983   0.00329  -0.39434  -0.12795
  19   45298.3    220.8     -3.98242   0.00277  -0.29335  -0.04618
  20   48937.7    204.3    -36.26863  -0.00864  -1.49284  -0.49865
  21   51709.8    193.4    -22.00685  -0.02060  -0.73234  -0.27667
  22   47247.0    211.7     -8.48826  -0.04829  -0.51103  -0.11708
  23   50289.7    198.8    -26.94711  -0.22175  -0.00801  -0.09717
  24   50452.0    198.2     26.20511  -0.04688   0.70884   0.39680
  25   51844.6    192.9    -200.46327   0.03150   1.84263   0.68774
  26   51497.9    194.2    448.70084   0.01684  -0.12712   0.51142
  27   50848.3    196.7    -72.15538   0.19173  -0.22300   0.13735
  28   51324.5    194.8      2.85060  -0.10608  -0.02970   0.02074
  29   50390.3    198.5     -2.56156  -0.00803  -0.00067  -0.41543
  30   52627.1    190.0    -163.32872  -0.01778  -0.38524   0.71404

Total run time:    33534.119 sec

           *** ORCA-CIS/TD-DFT FINISHED WITHOUT ERROR ***

Maximum memory used throughout the entire CIS-calculation: 5752.4 MB

-----------------------
CIS/TD-DFT TOTAL ENERGY
-----------------------

    E(SCF)  =  -1453.477102339 Eh
    DE(CIS) =      0.110312596 Eh (Root  1)
    ----------------------------- ---------
    E(tot)  =  -1453.366789744 Eh


-------------------------   --------------------
FINAL SINGLE POINT ENERGY     -1453.366789743510
-------------------------   --------------------


                            ***************************************
                            *     ORCA property calculations      *
                            ***************************************


  WARNING: The energy has been calculated at the MP2 level but the densities
           used in the property calculations are still SCF densities
           MP2 response densities have not been calculated 
           use %mp2 Density relaxed end
           or  %mp2 Density unrelaxed end

                                    ---------------------
                                    Active property flags
                                    ---------------------
   (+) Dipole Moment


------------------------------------------------------------------------------
                       ORCA ELECTRIC PROPERTIES CALCULATION
------------------------------------------------------------------------------

Dipole Moment Calculation                       ... on
Quadrupole Moment Calculation                   ... off
Polarizability Calculation                      ... off
GBWName                                         ... BF3-Acr_o_M06L_def2TZVP_coords.gbw
Electron density                                ... BF3-Acr_o_M06L_def2TZVP_coords.scfp
The origin for moment calculation is the CENTER OF MASS  = (-0.128974, -0.027010  0.058314)

-------------
DIPOLE MOMENT
-------------
                                X             Y             Z
Electronic contribution:    -22.25144      -4.24141       9.08977
Nuclear contribution   :     28.63218       5.99629     -12.94564
                        -----------------------------------------
Total Dipole Moment    :      6.38073       1.75488      -3.85587
                        -----------------------------------------
Magnitude (a.u.)       :      7.65905
Magnitude (Debye)      :     19.46776



--------------------
Rotational spectrum 
--------------------
 
Rotational constants in cm-1:     0.009186     0.002783     0.002554 
Rotational constants in MHz :   275.390295    83.442991    76.554550 

 Dipole components along the rotational axes: 
x,y,z [a.u.] :    -6.458484    -1.792987     3.705974 
x,y,z [Debye]:   -16.416161    -4.557412     9.419837 

 

Timings for individual modules:

Sum of individual times         ...    35219.477 sec (= 586.991 min)
GTO integral calculation        ...       21.868 sec (=   0.364 min)   0.1 %
SCF iterations                  ...      602.434 sec (=  10.041 min)   1.7 %
MP2 module                      ...     1060.629 sec (=  17.677 min)   3.0 %
CIS module                      ...    33534.546 sec (= 558.909 min)  95.2 %
                             ****ORCA TERMINATED NORMALLY****
TOTAL RUN TIME: 0 days 9 hours 47 minutes 7 seconds 998 msec
