 Entering Gaussian System, Link 0=g09
 Input=/home/png4rjv/fotokatalizis/benchmark/OPCs/BF3-Acr_o_PBE-D3_def2TZVP.gjf
 Output=/home/png4rjv/fotokatalizis/benchmark/OPCs/BF3-Acr_o_PBE-D3_def2TZVP.log
 Initial command:
 /opt/nce/packages/global/g09/l1.exe "/home/png4rjv/fotokatalizis/benchmark/OPCs/BF3-Acr_o_PBE-D3_def2TZVP/Gau-13914.inp" -scrdir="/home/png4rjv/fotokatalizis/benchmark/OPCs/BF3-Acr_o_PBE-D3_def2TZVP/"
 Default is to use a total of  12 processors:
                               12 via shared-memory
                                1 via Linda
 Entering Link 1 = /opt/nce/packages/global/g09/l1.exe PID=     13915.
  
 Copyright (c) 1988,1990,1992,1993,1995,1998,2003,2009,2015,
            Gaussian, Inc.  All Rights Reserved.
  
 This is part of the Gaussian(R) 09 program.  It is based on
 the Gaussian(R) 03 system (copyright 2003, Gaussian, Inc.),
 the Gaussian(R) 98 system (copyright 1998, Gaussian, Inc.),
 the Gaussian(R) 94 system (copyright 1995, Gaussian, Inc.),
 the Gaussian 92(TM) system (copyright 1992, Gaussian, Inc.),
 the Gaussian 90(TM) system (copyright 1990, Gaussian, Inc.),
 the Gaussian 88(TM) system (copyright 1988, Gaussian, Inc.),
 the Gaussian 86(TM) system (copyright 1986, Carnegie Mellon
 University), and the Gaussian 82(TM) system (copyright 1983,
 Carnegie Mellon University). Gaussian is a federally registered
 trademark of Gaussian, Inc.
  
 This software contains proprietary and confidential information,
 including trade secrets, belonging to Gaussian, Inc.
  
 This software is provided under written license and may be
 used, copied, transmitted, or stored only in accord with that
 written license.
  
 The following legend is applicable only to US Government
 contracts under FAR:
  
                    RESTRICTED RIGHTS LEGEND
  
 Use, reproduction and disclosure by the US Government is
 subject to restrictions as set forth in subparagraphs (a)
 and (c) of the Commercial Computer Software - Restricted
 Rights clause in FAR 52.227-19.
  
 Gaussian, Inc.
 340 Quinnipiac St., Bldg. 40, Wallingford CT 06492
  
  
 ---------------------------------------------------------------
 Warning -- This program may not be used in any manner that
 competes with the business of Gaussian, Inc. or will provide
 assistance to any competitor of Gaussian, Inc.  The licensee
 of this program is prohibited from giving any competitor of
 Gaussian, Inc. access to this program.  By using this program,
 the user acknowledges that Gaussian, Inc. is engaged in the
 business of creating and licensing software in the field of
 computational chemistry and represents and warrants to the
 licensee that it is not a competitor of Gaussian, Inc. and that
 it will not use this program in any manner prohibited above.
 ---------------------------------------------------------------
  

 Cite this work as:
 Gaussian 09, Revision E.01,
 M. J. Frisch, G. W. Trucks, H. B. Schlegel, G. E. Scuseria, 
 M. A. Robb, J. R. Cheeseman, G. Scalmani, V. Barone, B. Mennucci, 
 G. A. Petersson, H. Nakatsuji, M. Caricato, X. Li, H. P. Hratchian, 
 A. F. Izmaylov, J. Bloino, G. Zheng, J. L. Sonnenberg, M. Hada, 
 M. Ehara, K. Toyota, R. Fukuda, J. Hasegawa, M. Ishida, T. Nakajima, 
 Y. Honda, O. Kitao, H. Nakai, T. Vreven, J. A. Montgomery, Jr., 
 J. E. Peralta, F. Ogliaro, M. Bearpark, J. J. Heyd, E. Brothers, 
 K. N. Kudin, V. N. Staroverov, T. Keith, R. Kobayashi, J. Normand, 
 K. Raghavachari, A. Rendell, J. C. Burant, S. S. Iyengar, J. Tomasi, 
 M. Cossi, N. Rega, J. M. Millam, M. Klene, J. E. Knox, J. B. Cross, 
 V. Bakken, C. Adamo, J. Jaramillo, R. Gomperts, R. E. Stratmann, 
 O. Yazyev, A. J. Austin, R. Cammi, C. Pomelli, J. W. Ochterski, 
 R. L. Martin, K. Morokuma, V. G. Zakrzewski, G. A. Voth, 
 P. Salvador, J. J. Dannenberg, S. Dapprich, A. D. Daniels, 
 O. Farkas, J. B. Foresman, J. V. Ortiz, J. Cioslowski, 
 and D. J. Fox, Gaussian, Inc., Wallingford CT, 2013.
 
 ******************************************
 Gaussian 09:  ES64L-G09RevE.01 30-Nov-2015
                26-Mar-2021 
 ******************************************
 %chk=cp.chk
 Default route:  MaxDisk=500GB
 ----------------------------------------------------------------------
 #p PBEPBE/def2TZVP opt freq=noraman nosymm int=ultrafine scrf=(SMD,sol
 vent=Acetonitrile) EmpiricalDispersion=GD3BJ
 ----------------------------------------------------------------------
 1/14=-1,18=20,19=15,26=4,38=1/1,3;
 2/9=110,12=2,15=1,17=6,18=5,40=1/2;
 3/5=44,7=101,11=2,16=1,25=1,30=1,70=32201,71=1,72=2,74=1009,75=-5,124=41/1,2,3;
 4//1;
 5/5=2,38=5,53=2/2;
 6/7=2,8=2,9=2,10=2,28=1/1;
 7/30=1/1,2,3,16;
 1/14=-1,18=20,19=15,26=4/3(2);
 2/9=110,15=1/2;
 99//99;
 2/9=110,15=1/2;
 3/5=44,7=101,11=2,16=1,25=1,30=1,70=32205,71=1,72=2,74=1009,75=-5,124=41/1,2,3;
 4/5=5,16=3,69=1/1;
 5/5=2,38=5,53=2/2;
 7/30=1/1,2,3,16;
 1/14=-1,18=20,19=15,26=4/3(-5);
 2/9=110,15=1/2;
 6/7=2,8=2,9=2,10=2,19=2,28=1/1;
 99/9=1/99;
 Leave Link    1 at Fri Mar 26 23:18:50 2021, MaxMem=           0 cpu:         1.0
 (Enter /opt/nce/packages/global/g09/l101.exe)
 -----
 Title
 -----
 Symbolic Z-matrix:
 Charge =  0 Multiplicity = 1
 C                    -0.33208   3.11299  -1.9575 
 C                    -1.05243   1.98666  -1.61055 
 C                    -0.36735   0.79947  -1.26471 
 C                     1.06083   0.79143  -1.24084 
 C                     1.76189   1.98356  -1.57861 
 C                     1.08187   3.11716  -1.95185 
 C                     1.7382   -0.3603   -0.78297 
 C                     1.01554  -1.56939  -0.61983 
 C                    -0.41168  -1.53063  -0.65821 
 C                    -1.15066  -2.70766  -0.38825 
 H                    -2.23828  -2.6763   -0.40154 
 C                    -0.48812  -3.88668  -0.11207 
 C                     0.92462  -3.93859  -0.06127 
 C                     1.65702  -2.79696  -0.29157 
 H                    -0.87195   4.02161  -2.23441 
 H                    -2.14027   2.00624  -1.60527 
 H                     2.84956   1.96866  -1.52485 
 H                     1.62544   4.02587  -2.21463 
 H                    -1.06977  -4.79054   0.08334 
 H                     1.42753  -4.8766    0.18041 
 H                     2.74395  -2.80537  -0.22108 
 N                    -1.05302  -0.33596  -0.89793 
 C                     3.13646  -0.24943  -0.31356 
 C                     3.29361   0.39021   0.93983 
 C                     4.21706  -0.79528  -1.02269 
 C                     4.60173   0.43643   1.44839 
 C                     5.50513  -0.70132  -0.49331 
 C                     5.69256  -0.08856   0.75023 
 H                     6.3553   -1.1087   -1.04593 
 H                     4.05046  -1.27964  -1.98902 
 C                    -2.44196  -0.20949  -0.52597 
 C                    -2.72319   0.15665   0.78969 
 C                    -3.47107  -0.43672  -1.44358 
 C                    -4.04905   0.29844   1.20236 
 H                    -1.89153   0.33007   1.47802 
 C                    -4.79316  -0.29738  -1.03636 
 H                    -3.23244  -0.72023  -2.47052 
 C                    -5.09308   0.07141   0.28892 
 H                    -4.25388   0.5865    2.23249 
 H                    -5.62105  -0.46688  -1.72641 
 O                    -6.40422   0.18267   0.5893 
 C                    -6.78335   0.55532   1.89833 
 H                    -7.88036   0.58396   1.90799 
 H                    -6.43506  -0.17754   2.64711 
 H                    -6.39393   1.55311   2.16614 
 H                     6.69748  -0.02364   1.1766 
 H                     4.74936   0.89892   2.42746 
 F                     2.37012   1.16465   3.12504 
 F                     0.85799   0.251     1.63505 
 F                     1.74482   2.33362   1.24347 
 B                     2.04038   1.06185   1.77773 
 
 NAtoms=     51 NQM=       51 NQMF=       0 NMMI=      0 NMMIF=      0
                NMic=       0 NMicF=      0.
                    Isotopes and Nuclear Properties:
 (Nuclear quadrupole moments (NQMom) in fm**2, nuclear magnetic moments (NMagM)
  in nuclear magnetons)

  Atom         1           2           3           4           5           6           7           8           9          10
 IAtWgt=          12          12          12          12          12          12          12          12          12          12
 AtmWgt=  12.0000000  12.0000000  12.0000000  12.0000000  12.0000000  12.0000000  12.0000000  12.0000000  12.0000000  12.0000000
 NucSpn=           0           0           0           0           0           0           0           0           0           0
 AtZEff=   0.0000000   0.0000000   0.0000000   0.0000000   0.0000000   0.0000000   0.0000000   0.0000000   0.0000000   0.0000000
 NQMom=    0.0000000   0.0000000   0.0000000   0.0000000   0.0000000   0.0000000   0.0000000   0.0000000   0.0000000   0.0000000
 NMagM=    0.0000000   0.0000000   0.0000000   0.0000000   0.0000000   0.0000000   0.0000000   0.0000000   0.0000000   0.0000000
 AtZNuc=   6.0000000   6.0000000   6.0000000   6.0000000   6.0000000   6.0000000   6.0000000   6.0000000   6.0000000   6.0000000

  Atom        11          12          13          14          15          16          17          18          19          20
 IAtWgt=           1          12          12          12           1           1           1           1           1           1
 AtmWgt=   1.0078250  12.0000000  12.0000000  12.0000000   1.0078250   1.0078250   1.0078250   1.0078250   1.0078250   1.0078250
 NucSpn=           1           0           0           0           1           1           1           1           1           1
 AtZEff=   0.0000000   0.0000000   0.0000000   0.0000000   0.0000000   0.0000000   0.0000000   0.0000000   0.0000000   0.0000000
 NQMom=    0.0000000   0.0000000   0.0000000   0.0000000   0.0000000   0.0000000   0.0000000   0.0000000   0.0000000   0.0000000
 NMagM=    2.7928460   0.0000000   0.0000000   0.0000000   2.7928460   2.7928460   2.7928460   2.7928460   2.7928460   2.7928460
 AtZNuc=   1.0000000   6.0000000   6.0000000   6.0000000   1.0000000   1.0000000   1.0000000   1.0000000   1.0000000   1.0000000

  Atom        21          22          23          24          25          26          27          28          29          30
 IAtWgt=           1          14          12          12          12          12          12          12           1           1
 AtmWgt=   1.0078250  14.0030740  12.0000000  12.0000000  12.0000000  12.0000000  12.0000000  12.0000000   1.0078250   1.0078250
 NucSpn=           1           2           0           0           0           0           0           0           1           1
 AtZEff=   0.0000000   0.0000000   0.0000000   0.0000000   0.0000000   0.0000000   0.0000000   0.0000000   0.0000000   0.0000000
 NQMom=    0.0000000   2.0440000   0.0000000   0.0000000   0.0000000   0.0000000   0.0000000   0.0000000   0.0000000   0.0000000
 NMagM=    2.7928460   0.4037610   0.0000000   0.0000000   0.0000000   0.0000000   0.0000000   0.0000000   2.7928460   2.7928460
 AtZNuc=   1.0000000   7.0000000   6.0000000   6.0000000   6.0000000   6.0000000   6.0000000   6.0000000   1.0000000   1.0000000

  Atom        31          32          33          34          35          36          37          38          39          40
 IAtWgt=          12          12          12          12           1          12           1          12           1           1
 AtmWgt=  12.0000000  12.0000000  12.0000000  12.0000000   1.0078250  12.0000000   1.0078250  12.0000000   1.0078250   1.0078250
 NucSpn=           0           0           0           0           1           0           1           0           1           1
 AtZEff=   0.0000000   0.0000000   0.0000000   0.0000000   0.0000000   0.0000000   0.0000000   0.0000000   0.0000000   0.0000000
 NQMom=    0.0000000   0.0000000   0.0000000   0.0000000   0.0000000   0.0000000   0.0000000   0.0000000   0.0000000   0.0000000
 NMagM=    0.0000000   0.0000000   0.0000000   0.0000000   2.7928460   0.0000000   2.7928460   0.0000000   2.7928460   2.7928460
 AtZNuc=   6.0000000   6.0000000   6.0000000   6.0000000   1.0000000   6.0000000   1.0000000   6.0000000   1.0000000   1.0000000

  Atom        41          42          43          44          45          46          47          48          49          50
 IAtWgt=          16          12           1           1           1           1           1          19          19          19
 AtmWgt=  15.9949146  12.0000000   1.0078250   1.0078250   1.0078250   1.0078250   1.0078250  18.9984033  18.9984033  18.9984033
 NucSpn=           0           0           1           1           1           1           1           1           1           1
 AtZEff=   0.0000000   0.0000000   0.0000000   0.0000000   0.0000000   0.0000000   0.0000000   0.0000000   0.0000000   0.0000000
 NQMom=    0.0000000   0.0000000   0.0000000   0.0000000   0.0000000   0.0000000   0.0000000   0.0000000   0.0000000   0.0000000
 NMagM=    0.0000000   0.0000000   2.7928460   2.7928460   2.7928460   2.7928460   2.7928460   2.6288670   2.6288670   2.6288670
 AtZNuc=   8.0000000   6.0000000   1.0000000   1.0000000   1.0000000   1.0000000   1.0000000   9.0000000   9.0000000   9.0000000

  Atom        51
 IAtWgt=          11
 AtmWgt=  11.0093053
 NucSpn=           3
 AtZEff=   0.0000000
 NQMom=    4.0590000
 NMagM=    2.6886370
 AtZNuc=   5.0000000
 Leave Link  101 at Fri Mar 26 23:18:51 2021, MaxMem=  5242880000 cpu:         4.5
 (Enter /opt/nce/packages/global/g09/l103.exe)

 GradGradGradGradGradGradGradGradGradGradGradGradGradGradGradGradGradGrad
 Berny optimization.
 Initialization pass.
                           ----------------------------
                           !    Initial Parameters    !
                           ! (Angstroms and Degrees)  !
 --------------------------                            --------------------------
 ! Name  Definition              Value          Derivative Info.                !
 --------------------------------------------------------------------------------
 ! R1    R(1,2)                  1.3813         estimate D2E/DX2                !
 ! R2    R(1,6)                  1.414          estimate D2E/DX2                !
 ! R3    R(1,15)                 1.0926         estimate D2E/DX2                !
 ! R4    R(2,3)                  1.4136         estimate D2E/DX2                !
 ! R5    R(2,16)                 1.088          estimate D2E/DX2                !
 ! R6    R(3,4)                  1.4284         estimate D2E/DX2                !
 ! R7    R(3,22)                 1.3762         estimate D2E/DX2                !
 ! R8    R(4,5)                  1.4236         estimate D2E/DX2                !
 ! R9    R(4,7)                  1.4124         estimate D2E/DX2                !
 ! R10   R(5,6)                  1.3736         estimate D2E/DX2                !
 ! R11   R(5,17)                 1.0891         estimate D2E/DX2                !
 ! R12   R(6,18)                 1.091          estimate D2E/DX2                !
 ! R13   R(7,8)                  1.418          estimate D2E/DX2                !
 ! R14   R(7,23)                 1.4791         estimate D2E/DX2                !
 ! R15   R(8,9)                  1.4283         estimate D2E/DX2                !
 ! R16   R(8,14)                 1.4234         estimate D2E/DX2                !
 ! R17   R(9,10)                 1.4158         estimate D2E/DX2                !
 ! R18   R(9,22)                 1.377          estimate D2E/DX2                !
 ! R19   R(10,11)                1.0881         estimate D2E/DX2                !
 ! R20   R(10,12)                1.3803         estimate D2E/DX2                !
 ! R21   R(12,13)                1.4146         estimate D2E/DX2                !
 ! R22   R(12,19)                1.0925         estimate D2E/DX2                !
 ! R23   R(13,14)                1.3758         estimate D2E/DX2                !
 ! R24   R(13,20)                1.0914         estimate D2E/DX2                !
 ! R25   R(14,21)                1.0892         estimate D2E/DX2                !
 ! R26   R(22,31)                1.4434         estimate D2E/DX2                !
 ! R27   R(23,24)                1.4159         estimate D2E/DX2                !
 ! R28   R(23,25)                1.403          estimate D2E/DX2                !
 ! R29   R(24,26)                1.4043         estimate D2E/DX2                !
 ! R30   R(24,51)                1.6504         estimate D2E/DX2                !
 ! R31   R(25,27)                1.3958         estimate D2E/DX2                !
 ! R32   R(25,30)                1.0937         estimate D2E/DX2                !
 ! R33   R(26,28)                1.3975         estimate D2E/DX2                !
 ! R34   R(26,47)                1.0928         estimate D2E/DX2                !
 ! R35   R(27,28)                1.3989         estimate D2E/DX2                !
 ! R36   R(27,29)                1.0928         estimate D2E/DX2                !
 ! R37   R(28,46)                1.0936         estimate D2E/DX2                !
 ! R38   R(31,32)                1.3943         estimate D2E/DX2                !
 ! R39   R(31,33)                1.3974         estimate D2E/DX2                !
 ! R40   R(32,34)                1.3958         estimate D2E/DX2                !
 ! R41   R(32,35)                1.0934         estimate D2E/DX2                !
 ! R42   R(33,36)                1.3904         estimate D2E/DX2                !
 ! R43   R(33,37)                1.0918         estimate D2E/DX2                !
 ! R44   R(34,38)                1.4057         estimate D2E/DX2                !
 ! R45   R(34,39)                1.0891         estimate D2E/DX2                !
 ! R46   R(36,38)                1.408          estimate D2E/DX2                !
 ! R47   R(36,40)                1.091          estimate D2E/DX2                !
 ! R48   R(38,41)                1.3497         estimate D2E/DX2                !
 ! R49   R(41,42)                1.4129         estimate D2E/DX2                !
 ! R50   R(42,43)                1.0974         estimate D2E/DX2                !
 ! R51   R(42,44)                1.1041         estimate D2E/DX2                !
 ! R52   R(42,45)                1.1041         estimate D2E/DX2                !
 ! R53   R(48,51)                1.3909         estimate D2E/DX2                !
 ! R54   R(49,51)                1.4408         estimate D2E/DX2                !
 ! R55   R(50,51)                1.4107         estimate D2E/DX2                !
 ! A1    A(2,1,6)              121.5281         estimate D2E/DX2                !
 ! A2    A(2,1,15)             118.9541         estimate D2E/DX2                !
 ! A3    A(6,1,15)             119.5161         estimate D2E/DX2                !
 ! A4    A(1,2,3)              119.5723         estimate D2E/DX2                !
 ! A5    A(1,2,16)             120.5285         estimate D2E/DX2                !
 ! A6    A(3,2,16)             119.8987         estimate D2E/DX2                !
 ! A7    A(2,3,4)              119.5619         estimate D2E/DX2                !
 ! A8    A(2,3,22)             121.1071         estimate D2E/DX2                !
 ! A9    A(4,3,22)             119.2792         estimate D2E/DX2                !
 ! A10   A(3,4,5)              118.9263         estimate D2E/DX2                !
 ! A11   A(3,4,7)              119.3083         estimate D2E/DX2                !
 ! A12   A(5,4,7)              121.5724         estimate D2E/DX2                !
 ! A13   A(4,5,6)              120.7806         estimate D2E/DX2                !
 ! A14   A(4,5,17)             117.945          estimate D2E/DX2                !
 ! A15   A(6,5,17)             121.2731         estimate D2E/DX2                !
 ! A16   A(1,6,5)              119.5843         estimate D2E/DX2                !
 ! A17   A(1,6,18)             119.982          estimate D2E/DX2                !
 ! A18   A(5,6,18)             120.4093         estimate D2E/DX2                !
 ! A19   A(4,7,8)              119.2207         estimate D2E/DX2                !
 ! A20   A(4,7,23)             119.6775         estimate D2E/DX2                !
 ! A21   A(8,7,23)             120.609          estimate D2E/DX2                !
 ! A22   A(7,8,9)              118.8832         estimate D2E/DX2                !
 ! A23   A(7,8,14)             122.154          estimate D2E/DX2                !
 ! A24   A(9,8,14)             118.681          estimate D2E/DX2                !
 ! A25   A(8,9,10)             119.5972         estimate D2E/DX2                !
 ! A26   A(8,9,22)             119.5808         estimate D2E/DX2                !
 ! A27   A(10,9,22)            120.757          estimate D2E/DX2                !
 ! A28   A(9,10,11)            119.6977         estimate D2E/DX2                !
 ! A29   A(9,10,12)            119.8506         estimate D2E/DX2                !
 ! A30   A(11,10,12)           120.4517         estimate D2E/DX2                !
 ! A31   A(10,12,13)           121.1907         estimate D2E/DX2                !
 ! A32   A(10,12,19)           119.139          estimate D2E/DX2                !
 ! A33   A(13,12,19)           119.6652         estimate D2E/DX2                !
 ! A34   A(12,13,14)           119.682          estimate D2E/DX2                !
 ! A35   A(12,13,20)           119.9785         estimate D2E/DX2                !
 ! A36   A(14,13,20)           120.327          estimate D2E/DX2                !
 ! A37   A(8,14,13)            120.9515         estimate D2E/DX2                !
 ! A38   A(8,14,21)            118.1178         estimate D2E/DX2                !
 ! A39   A(13,14,21)           120.9293         estimate D2E/DX2                !
 ! A40   A(3,22,9)             122.017          estimate D2E/DX2                !
 ! A41   A(3,22,31)            118.413          estimate D2E/DX2                !
 ! A42   A(9,22,31)            118.6418         estimate D2E/DX2                !
 ! A43   A(7,23,24)            114.8164         estimate D2E/DX2                !
 ! A44   A(7,23,25)            122.5836         estimate D2E/DX2                !
 ! A45   A(24,23,25)           122.5256         estimate D2E/DX2                !
 ! A46   A(23,24,26)           116.0301         estimate D2E/DX2                !
 ! A47   A(23,24,51)           123.2978         estimate D2E/DX2                !
 ! A48   A(26,24,51)           120.6708         estimate D2E/DX2                !
 ! A49   A(23,25,27)           119.5296         estimate D2E/DX2                !
 ! A50   A(23,25,30)           120.1016         estimate D2E/DX2                !
 ! A51   A(27,25,30)           120.3646         estimate D2E/DX2                !
 ! A52   A(24,26,28)           122.265          estimate D2E/DX2                !
 ! A53   A(24,26,47)           117.6603         estimate D2E/DX2                !
 ! A54   A(28,26,47)           120.0741         estimate D2E/DX2                !
 ! A55   A(25,27,28)           119.3588         estimate D2E/DX2                !
 ! A56   A(25,27,29)           120.0705         estimate D2E/DX2                !
 ! A57   A(28,27,29)           120.5698         estimate D2E/DX2                !
 ! A58   A(26,28,27)           120.2689         estimate D2E/DX2                !
 ! A59   A(26,28,46)           120.014          estimate D2E/DX2                !
 ! A60   A(27,28,46)           119.717          estimate D2E/DX2                !
 ! A61   A(22,31,32)           117.4029         estimate D2E/DX2                !
 ! A62   A(22,31,33)           121.6804         estimate D2E/DX2                !
 ! A63   A(32,31,33)           120.916          estimate D2E/DX2                !
 ! A64   A(31,32,34)           119.8171         estimate D2E/DX2                !
 ! A65   A(31,32,35)           118.8326         estimate D2E/DX2                !
 ! A66   A(34,32,35)           121.35           estimate D2E/DX2                !
 ! A67   A(31,33,36)           119.4496         estimate D2E/DX2                !
 ! A68   A(31,33,37)           119.9296         estimate D2E/DX2                !
 ! A69   A(36,33,37)           120.6208         estimate D2E/DX2                !
 ! A70   A(32,34,38)           119.8004         estimate D2E/DX2                !
 ! A71   A(32,34,39)           119.0235         estimate D2E/DX2                !
 ! A72   A(38,34,39)           121.1761         estimate D2E/DX2                !
 ! A73   A(33,36,38)           120.2971         estimate D2E/DX2                !
 ! A74   A(33,36,40)           121.3823         estimate D2E/DX2                !
 ! A75   A(38,36,40)           118.3205         estimate D2E/DX2                !
 ! A76   A(34,38,36)           119.7198         estimate D2E/DX2                !
 ! A77   A(34,38,41)           124.3037         estimate D2E/DX2                !
 ! A78   A(36,38,41)           115.9765         estimate D2E/DX2                !
 ! A79   A(38,41,42)           119.2493         estimate D2E/DX2                !
 ! A80   A(41,42,43)           106.4559         estimate D2E/DX2                !
 ! A81   A(41,42,44)           111.6302         estimate D2E/DX2                !
 ! A82   A(41,42,45)           111.6211         estimate D2E/DX2                !
 ! A83   A(43,42,44)           109.067          estimate D2E/DX2                !
 ! A84   A(43,42,45)           109.0786         estimate D2E/DX2                !
 ! A85   A(44,42,45)           108.9113         estimate D2E/DX2                !
 ! A86   A(24,51,48)           109.9902         estimate D2E/DX2                !
 ! A87   A(24,51,49)           110.112          estimate D2E/DX2                !
 ! A88   A(24,51,50)           109.4932         estimate D2E/DX2                !
 ! A89   A(48,51,49)           109.3945         estimate D2E/DX2                !
 ! A90   A(48,51,50)           110.4806         estimate D2E/DX2                !
 ! A91   A(49,51,50)           107.3317         estimate D2E/DX2                !
 ! D1    D(6,1,2,3)             -1.1992         estimate D2E/DX2                !
 ! D2    D(6,1,2,16)           179.0243         estimate D2E/DX2                !
 ! D3    D(15,1,2,3)           179.286          estimate D2E/DX2                !
 ! D4    D(15,1,2,16)           -0.4904         estimate D2E/DX2                !
 ! D5    D(2,1,6,5)             -0.7853         estimate D2E/DX2                !
 ! D6    D(2,1,6,18)          -178.9972         estimate D2E/DX2                !
 ! D7    D(15,1,6,5)           178.7268         estimate D2E/DX2                !
 ! D8    D(15,1,6,18)            0.5149         estimate D2E/DX2                !
 ! D9    D(1,2,3,4)              1.8158         estimate D2E/DX2                !
 ! D10   D(1,2,3,22)           179.181          estimate D2E/DX2                !
 ! D11   D(16,2,3,4)          -178.4064         estimate D2E/DX2                !
 ! D12   D(16,2,3,22)           -1.0411         estimate D2E/DX2                !
 ! D13   D(2,3,4,5)             -0.5089         estimate D2E/DX2                !
 ! D14   D(2,3,4,7)            174.5234         estimate D2E/DX2                !
 ! D15   D(22,3,4,5)          -177.9227         estimate D2E/DX2                !
 ! D16   D(22,3,4,7)            -2.8903         estimate D2E/DX2                !
 ! D17   D(2,3,22,9)           174.8533         estimate D2E/DX2                !
 ! D18   D(2,3,22,31)          -16.3279         estimate D2E/DX2                !
 ! D19   D(4,3,22,9)            -7.7741         estimate D2E/DX2                !
 ! D20   D(4,3,22,31)          161.0447         estimate D2E/DX2                !
 ! D21   D(3,4,5,6)             -1.4797         estimate D2E/DX2                !
 ! D22   D(3,4,5,17)           178.1128         estimate D2E/DX2                !
 ! D23   D(7,4,5,6)           -176.395          estimate D2E/DX2                !
 ! D24   D(7,4,5,17)             3.1975         estimate D2E/DX2                !
 ! D25   D(3,4,7,8)             12.91           estimate D2E/DX2                !
 ! D26   D(3,4,7,23)          -159.0878         estimate D2E/DX2                !
 ! D27   D(5,4,7,8)           -172.1937         estimate D2E/DX2                !
 ! D28   D(5,4,7,23)            15.8085         estimate D2E/DX2                !
 ! D29   D(4,5,6,1)              2.1252         estimate D2E/DX2                !
 ! D30   D(4,5,6,18)          -179.6707         estimate D2E/DX2                !
 ! D31   D(17,5,6,1)          -177.4535         estimate D2E/DX2                !
 ! D32   D(17,5,6,18)            0.7506         estimate D2E/DX2                !
 ! D33   D(4,7,8,9)            -12.5685         estimate D2E/DX2                !
 ! D34   D(4,7,8,14)           173.6118         estimate D2E/DX2                !
 ! D35   D(23,7,8,9)           159.3529         estimate D2E/DX2                !
 ! D36   D(23,7,8,14)          -14.4668         estimate D2E/DX2                !
 ! D37   D(4,7,23,24)           72.5874         estimate D2E/DX2                !
 ! D38   D(4,7,23,25)         -110.4786         estimate D2E/DX2                !
 ! D39   D(8,7,23,24)          -99.2973         estimate D2E/DX2                !
 ! D40   D(8,7,23,25)           77.6367         estimate D2E/DX2                !
 ! D41   D(7,8,9,10)          -174.8404         estimate D2E/DX2                !
 ! D42   D(7,8,9,22)             2.2506         estimate D2E/DX2                !
 ! D43   D(14,8,9,10)           -0.8037         estimate D2E/DX2                !
 ! D44   D(14,8,9,22)          176.2873         estimate D2E/DX2                !
 ! D45   D(7,8,14,13)          176.1141         estimate D2E/DX2                !
 ! D46   D(7,8,14,21)           -3.4711         estimate D2E/DX2                !
 ! D47   D(9,8,14,13)            2.2823         estimate D2E/DX2                !
 ! D48   D(9,8,14,21)         -177.3028         estimate D2E/DX2                !
 ! D49   D(8,9,10,11)          179.0339         estimate D2E/DX2                !
 ! D50   D(8,9,10,12)           -1.057          estimate D2E/DX2                !
 ! D51   D(22,9,10,11)           1.9778         estimate D2E/DX2                !
 ! D52   D(22,9,10,12)        -178.1131         estimate D2E/DX2                !
 ! D53   D(8,9,22,3)             8.0883         estimate D2E/DX2                !
 ! D54   D(8,9,22,31)         -160.7059         estimate D2E/DX2                !
 ! D55   D(10,9,22,3)         -174.8551         estimate D2E/DX2                !
 ! D56   D(10,9,22,31)          16.3507         estimate D2E/DX2                !
 ! D57   D(9,10,12,13)           1.5199         estimate D2E/DX2                !
 ! D58   D(9,10,12,19)        -179.3079         estimate D2E/DX2                !
 ! D59   D(11,10,12,13)       -178.5717         estimate D2E/DX2                !
 ! D60   D(11,10,12,19)          0.6005         estimate D2E/DX2                !
 ! D61   D(10,12,13,14)         -0.0583         estimate D2E/DX2                !
 ! D62   D(10,12,13,20)        178.6604         estimate D2E/DX2                !
 ! D63   D(19,12,13,14)       -179.2262         estimate D2E/DX2                !
 ! D64   D(19,12,13,20)         -0.5075         estimate D2E/DX2                !
 ! D65   D(12,13,14,8)          -1.8688         estimate D2E/DX2                !
 ! D66   D(12,13,14,21)        177.7046         estimate D2E/DX2                !
 ! D67   D(20,13,14,8)         179.417          estimate D2E/DX2                !
 ! D68   D(20,13,14,21)         -1.0095         estimate D2E/DX2                !
 ! D69   D(3,22,31,32)         -83.8483         estimate D2E/DX2                !
 ! D70   D(3,22,31,33)          95.8419         estimate D2E/DX2                !
 ! D71   D(9,22,31,32)          85.354          estimate D2E/DX2                !
 ! D72   D(9,22,31,33)         -94.9557         estimate D2E/DX2                !
 ! D73   D(7,23,24,26)         176.237          estimate D2E/DX2                !
 ! D74   D(7,23,24,51)          -4.1688         estimate D2E/DX2                !
 ! D75   D(25,23,24,26)         -0.699          estimate D2E/DX2                !
 ! D76   D(25,23,24,51)        178.8952         estimate D2E/DX2                !
 ! D77   D(7,23,25,27)        -177.3583         estimate D2E/DX2                !
 ! D78   D(7,23,25,30)           3.3875         estimate D2E/DX2                !
 ! D79   D(24,23,25,27)         -0.6592         estimate D2E/DX2                !
 ! D80   D(24,23,25,30)       -179.9134         estimate D2E/DX2                !
 ! D81   D(23,24,26,28)          1.4102         estimate D2E/DX2                !
 ! D82   D(23,24,26,47)       -178.3004         estimate D2E/DX2                !
 ! D83   D(51,24,26,28)       -178.1954         estimate D2E/DX2                !
 ! D84   D(51,24,26,47)          2.094          estimate D2E/DX2                !
 ! D85   D(23,24,51,48)        158.2414         estimate D2E/DX2                !
 ! D86   D(23,24,51,49)         37.6098         estimate D2E/DX2                !
 ! D87   D(23,24,51,50)        -80.1756         estimate D2E/DX2                !
 ! D88   D(26,24,51,48)        -22.1825         estimate D2E/DX2                !
 ! D89   D(26,24,51,49)       -142.8142         estimate D2E/DX2                !
 ! D90   D(26,24,51,50)         99.4004         estimate D2E/DX2                !
 ! D91   D(23,25,27,28)          1.3425         estimate D2E/DX2                !
 ! D92   D(23,25,27,29)       -178.9858         estimate D2E/DX2                !
 ! D93   D(30,25,27,28)       -179.4053         estimate D2E/DX2                !
 ! D94   D(30,25,27,29)          0.2664         estimate D2E/DX2                !
 ! D95   D(24,26,28,27)         -0.7678         estimate D2E/DX2                !
 ! D96   D(24,26,28,46)        179.3848         estimate D2E/DX2                !
 ! D97   D(47,26,28,27)        178.9359         estimate D2E/DX2                !
 ! D98   D(47,26,28,46)         -0.9114         estimate D2E/DX2                !
 ! D99   D(25,27,28,26)         -0.6602         estimate D2E/DX2                !
 ! D100  D(25,27,28,46)        179.1876         estimate D2E/DX2                !
 ! D101  D(29,27,28,26)        179.6698         estimate D2E/DX2                !
 ! D102  D(29,27,28,46)         -0.4824         estimate D2E/DX2                !
 ! D103  D(22,31,32,34)        179.7604         estimate D2E/DX2                !
 ! D104  D(22,31,32,35)         -0.0568         estimate D2E/DX2                !
 ! D105  D(33,31,32,34)          0.0677         estimate D2E/DX2                !
 ! D106  D(33,31,32,35)       -179.7495         estimate D2E/DX2                !
 ! D107  D(22,31,33,36)       -179.7869         estimate D2E/DX2                !
 ! D108  D(22,31,33,37)          0.1619         estimate D2E/DX2                !
 ! D109  D(32,31,33,36)         -0.1074         estimate D2E/DX2                !
 ! D110  D(32,31,33,37)        179.8414         estimate D2E/DX2                !
 ! D111  D(31,32,34,38)         -0.0091         estimate D2E/DX2                !
 ! D112  D(31,32,34,39)       -179.9007         estimate D2E/DX2                !
 ! D113  D(35,32,34,38)        179.8033         estimate D2E/DX2                !
 ! D114  D(35,32,34,39)         -0.0882         estimate D2E/DX2                !
 ! D115  D(31,33,36,38)          0.0888         estimate D2E/DX2                !
 ! D116  D(31,33,36,40)        179.9877         estimate D2E/DX2                !
 ! D117  D(37,33,36,38)       -179.8597         estimate D2E/DX2                !
 ! D118  D(37,33,36,40)          0.0392         estimate D2E/DX2                !
 ! D119  D(32,34,38,36)         -0.0087         estimate D2E/DX2                !
 ! D120  D(32,34,38,41)       -179.9755         estimate D2E/DX2                !
 ! D121  D(39,34,38,36)        179.8805         estimate D2E/DX2                !
 ! D122  D(39,34,38,41)         -0.0863         estimate D2E/DX2                !
 ! D123  D(33,36,38,34)         -0.0316         estimate D2E/DX2                !
 ! D124  D(33,36,38,41)        179.9379         estimate D2E/DX2                !
 ! D125  D(40,36,38,34)       -179.9336         estimate D2E/DX2                !
 ! D126  D(40,36,38,41)          0.0359         estimate D2E/DX2                !
 ! D127  D(34,38,41,42)          0.2613         estimate D2E/DX2                !
 ! D128  D(36,38,41,42)       -179.7066         estimate D2E/DX2                !
 ! D129  D(38,41,42,43)        179.8489         estimate D2E/DX2                !
 ! D130  D(38,41,42,44)        -61.2331         estimate D2E/DX2                !
 ! D131  D(38,41,42,45)         60.922          estimate D2E/DX2                !
 --------------------------------------------------------------------------------
 Trust Radius=3.00D-01 FncErr=1.00D-07 GrdErr=1.00D-06
 Number of steps in this run=    287 maximum allowed number of steps=    306.
 GradGradGradGradGradGradGradGradGradGradGradGradGradGradGradGradGradGrad

 Leave Link  103 at Fri Mar 26 23:18:51 2021, MaxMem=  5242880000 cpu:         0.2
 (Enter /opt/nce/packages/global/g09/l202.exe)
 Symmetry turned off by external request.
 Stoichiometry    C26H19BF3NO
 Framework group  C1[X(C26H19BF3NO)]
 Deg. of freedom   147
 Full point group                 C1      NOp   1
                          Input orientation:                          
 ---------------------------------------------------------------------
 Center     Atomic      Atomic             Coordinates (Angstroms)
 Number     Number       Type             X           Y           Z
 ---------------------------------------------------------------------
      1          6           0       -0.332078    3.112986   -1.957496
      2          6           0       -1.052431    1.986657   -1.610547
      3          6           0       -0.367351    0.799471   -1.264706
      4          6           0        1.060834    0.791432   -1.240835
      5          6           0        1.761889    1.983562   -1.578612
      6          6           0        1.081868    3.117164   -1.951850
      7          6           0        1.738202   -0.360301   -0.782966
      8          6           0        1.015539   -1.569392   -0.619827
      9          6           0       -0.411676   -1.530628   -0.658205
     10          6           0       -1.150659   -2.707664   -0.388250
     11          1           0       -2.238275   -2.676303   -0.401536
     12          6           0       -0.488121   -3.886675   -0.112073
     13          6           0        0.924615   -3.938594   -0.061272
     14          6           0        1.657023   -2.796957   -0.291569
     15          1           0       -0.871945    4.021613   -2.234412
     16          1           0       -2.140265    2.006239   -1.605271
     17          1           0        2.849559    1.968660   -1.524854
     18          1           0        1.625440    4.025872   -2.214627
     19          1           0       -1.069773   -4.790539    0.083340
     20          1           0        1.427526   -4.876602    0.180408
     21          1           0        2.743954   -2.805372   -0.221080
     22          7           0       -1.053017   -0.335956   -0.897930
     23          6           0        3.136459   -0.249431   -0.313562
     24          6           0        3.293609    0.390211    0.939830
     25          6           0        4.217064   -0.795276   -1.022690
     26          6           0        4.601728    0.436428    1.448393
     27          6           0        5.505126   -0.701317   -0.493311
     28          6           0        5.692562   -0.088557    0.750228
     29          1           0        6.355300   -1.108699   -1.045933
     30          1           0        4.050456   -1.279636   -1.989016
     31          6           0       -2.441961   -0.209491   -0.525966
     32          6           0       -2.723189    0.156651    0.789692
     33          6           0       -3.471066   -0.436717   -1.443579
     34          6           0       -4.049045    0.298439    1.202362
     35          1           0       -1.891525    0.330072    1.478024
     36          6           0       -4.793164   -0.297378   -1.036364
     37          1           0       -3.232436   -0.720234   -2.470523
     38          6           0       -5.093080    0.071414    0.288924
     39          1           0       -4.253883    0.586498    2.232493
     40          1           0       -5.621045   -0.466875   -1.726407
     41          8           0       -6.404222    0.182666    0.589301
     42          6           0       -6.783348    0.555324    1.898332
     43          1           0       -7.880359    0.583963    1.907992
     44          1           0       -6.435065   -0.177544    2.647112
     45          1           0       -6.393926    1.553111    2.166142
     46          1           0        6.697479   -0.023640    1.176603
     47          1           0        4.749358    0.898922    2.427458
     48          9           0        2.370115    1.164652    3.125041
     49          9           0        0.857991    0.250998    1.635050
     50          9           0        1.744817    2.333618    1.243469
     51          5           0        2.040384    1.061855    1.777731
 ---------------------------------------------------------------------
 Rotational constants (GHZ):      0.2540006      0.0949733      0.0871286
 Leave Link  202 at Fri Mar 26 23:18:51 2021, MaxMem=  5242880000 cpu:         0.3
 (Enter /opt/nce/packages/global/g09/l301.exe)
 Standard basis: def2TZVP (5D, 7F)
 Ernie: Thresh=  0.10000D-02 Tol=  0.10000D-05 Strict=F.
  1106 basis functions,  1784 primitive gaussians,  1266 cartesian basis functions
   111 alpha electrons      111 beta electrons
       nuclear repulsion energy      3171.3645635878 Hartrees.
 IExCor= 1009 DFT=T Ex=PBE Corr=PBE ExCW=0 ScaHFX=  0.000000
 ScaDFX=  1.000000  1.000000  1.000000  1.000000 ScalE2=  1.000000  1.000000
 IRadAn=      5 IRanWt=     -1 IRanGd=            0 ICorTp=0 IEmpDi=141
 NAtoms=   51 NActive=   51 NUniq=   51 SFac= 1.00D+00 NAtFMM=   60 NAOKFM=F Big=F
 Integral buffers will be    131072 words long.
 Raffenetti 2 integral format.
 Two-electron integral symmetry is turned off.
 R6Disp:  Grimme-D3(BJ) Dispersion energy=       -0.0803286318 Hartrees.
 Nuclear repulsion after empirical dispersion term =     3171.2842349560 Hartrees.
 ------------------------------------------------------------------------------
 Polarizable Continuum Model (PCM)
 =================================
 Model                : PCM (using non-symmetric T matrix).
 Atomic radii         : SMD-Coulomb.
 Polarization charges : Total charges.
 Charge compensation  : None.
 Solution method      : On-the-fly selection.
 Cavity type          : VdW (van der Waals Surface) (Alpha=1.000).
 Cavity algorithm     : GePol (No added spheres)
                        Default sphere list used, NSphG=   51.
                        Lebedev-Laikov grids with approx.  5.0 points / Ang**2.
                        Smoothing algorithm: York/Karplus (Gamma=1.0000).
                        Polarization charges: spherical gaussians, with
                                              point-specific exponents (IZeta= 3).
                        Self-potential: point-specific (ISelfS= 7).
                        Self-field    : sphere-specific E.n sum rule (ISelfD= 2).
 1st derivatives      : Analytical E(r).r(x)/FMM algorithm (CHGder, D1EAlg=3).
                        Cavity 1st derivative terms included.
 Solvent              : Acetonitrile, Eps=  35.688000 Eps(inf)=   1.806874
 ------------------------------------------------------------------------------
 GePol: Number of generator spheres                  =      51
 GePol: Total number of spheres                      =      51
 GePol: Number of exposed spheres                    =      51 (100.00%)
 GePol: Number of points                             =    3725
 GePol: Average weight of points                     =       0.11
 GePol: Minimum weight of points                     =   0.11D-11
 GePol: Maximum weight of points                     =    0.21559
 GePol: Number of points with low weight             =     216
 GePol: Fraction of low-weight points (<1% of avg)   =       5.80%
 GePol: Cavity surface area                          =    423.364 Ang**2
 GePol: Cavity volume                                =    428.479 Ang**3
 ------------------------------------------------------------------------------
 Atomic radii for non-electrostatic terms: SMD-CDS.
 ------------------------------------------------------------------------------
 PCM non-electrostatic energy =        -0.0064811014 Hartrees.
 Nuclear repulsion after PCM non-electrostatic terms =     3171.2777538546 Hartrees.
 Leave Link  301 at Fri Mar 26 23:18:51 2021, MaxMem=  5242880000 cpu:         3.5
 (Enter /opt/nce/packages/global/g09/l302.exe)
 NPDir=0 NMtPBC=     1 NCelOv=     1 NCel=       1 NClECP=     1 NCelD=      1
         NCelK=      1 NCelE2=     1 NClLst=     1 CellRange=     0.0.
 One-electron integrals computed using PRISM.
   1 Symmetry operations used in ECPInt.
 ECPInt:  NShTT=   91806 NPrTT=  285396 LenC2=   75635 LenP2D=  160885.
 LDataN:  DoStor=T MaxTD1= 6 Len=  172
 NBasis=  1106 RedAO= T EigKep=  5.16D-06  NBF=  1106
 NBsUse=  1106 1.00D-06 EigRej= -1.00D+00 NBFU=  1106
 Precomputing XC quadrature grid using
 IXCGrd= 4 IRadAn=           5 IRanWt=          -1 IRanGd=           0 AccXCQ= 0.00D+00.
 Generated NRdTot=       0 NPtTot=           0 NUsed=           0 NTot=          32
 NSgBfM=  1213  1213  1213  1214  1214 MxSgAt=    51 MxSgA2=    51.
 Leave Link  302 at Fri Mar 26 23:18:54 2021, MaxMem=  5242880000 cpu:        32.5
 (Enter /opt/nce/packages/global/g09/l303.exe)
 DipDrv:  MaxL=1.
 Leave Link  303 at Fri Mar 26 23:18:54 2021, MaxMem=  5242880000 cpu:         3.1
 (Enter /opt/nce/packages/global/g09/l401.exe)
 ExpMin= 6.06D-02 ExpMax= 3.55D+04 ExpMxC= 1.21D+03 IAcc=3 IRadAn=         5 AccDes= 0.00D+00
 Harris functional with IExCor= 1009 and IRadAn=       5 diagonalized for initial guess.
 HarFok:  IExCor= 1009 AccDes= 0.00D+00 IRadAn=         5 IDoV= 1 UseB2=F ITyADJ=14
 ICtDFT=  3500011 ScaDFX=  1.000000  1.000000  1.000000  1.000000
 FoFCou: FMM=F IPFlag=           0 FMFlag=      100000 FMFlg1=           0
         NFxFlg=           0 DoJE=T BraDBF=F KetDBF=T FulRan=T
         wScrn=  0.000000 ICntrl=     500 IOpCl=  0 I1Cent=   200000004 NGrid=           0
         NMat0=    1 NMatS0=      1 NMatT0=    0 NMatD0=    1 NMtDS0=    0 NMtDT0=    0
 Symmetry not used in FoFCou.
 Harris En= -1456.03229903774    
 JPrj=0 DoOrth=F DoCkMO=F.
 Leave Link  401 at Fri Mar 26 23:19:06 2021, MaxMem=  5242880000 cpu:       141.3
 (Enter /opt/nce/packages/global/g09/l502.exe)
 Closed shell SCF:
 Using DIIS extrapolation, IDIIS=  1040.
 Two-electron integral symmetry not used.
 IVT=     4849708 IEndB=     4849708 NGot=  5242880000 MDV=  5239650955
 LenX=  5239650955 LenY=  5238046933
 Requested convergence on RMS density matrix=1.00D-08 within 128 cycles.
 Requested convergence on MAX density matrix=1.00D-06.
 Requested convergence on             energy=1.00D-06.
 No special actions if energy rises.
 Fock matrices will be formed incrementally for  20 cycles.

 Cycle   1  Pass 1  IDiag  1:
 FoFJK:  IHMeth= 1 ICntrl=     500 DoSepK=F KAlg= 0 I1Cent=   0 FoldK=F
 IRaf= 710000000 NMat=   1 IRICut=       1 DoRegI=T DoRafI=F ISym2E= 0.
 FoFCou: FMM=F IPFlag=           0 FMFlag=      100000 FMFlg1=           0
         NFxFlg=           0 DoJE=T BraDBF=F KetDBF=F FulRan=T
         wScrn=  0.000000 ICntrl=     500 IOpCl=  0 I1Cent=           0 NGrid=           0
         NMat0=    1 NMatS0=      1 NMatT0=    0 NMatD0=    1 NMtDS0=    0 NMtDT0=    0
 Symmetry not used in FoFCou.
 Inv3:  Mode=1 IEnd=    41626875.
 Iteration    1 A*A^-1 deviation from unit magnitude is 6.22D-15 for   3700.
 Iteration    1 A*A^-1 deviation from orthogonality  is 4.00D-15 for   2671    119.
 Iteration    1 A^-1*A deviation from unit magnitude is 5.77D-15 for   3700.
 Iteration    1 A^-1*A deviation from orthogonality  is 1.29D-12 for   3176   3157.
 E= -1455.11861258682    
 DIIS: error= 1.66D-02 at cycle   1 NSaved=   1.
 NSaved= 1 IEnMin= 1 EnMin= -1455.11861258682     IErMin= 1 ErrMin= 1.66D-02
 ErrMax= 1.66D-02  0.00D+00 EMaxC= 1.00D-01 BMatC= 5.61D-01 BMatP= 5.61D-01
 IDIUse=3 WtCom= 8.34D-01 WtEn= 1.66D-01
 Coeff-Com:  0.100D+01
 Coeff-En:   0.100D+01
 Coeff:      0.100D+01
 Gap=     0.060 Goal=   None    Shift=    0.000
 GapD=    0.060 DampG=0.500 DampE=0.500 DampFc=0.2500 IDamp=-1.
 Damping current iteration by 2.50D-01
 RMSDP=5.46D-03 MaxDP=7.68D-01              OVMax= 3.36D-01

 Cycle   2  Pass 1  IDiag  1:
 RMSU=  1.35D-03    CP:  1.04D+00
 E= -1455.30163395629     Delta-E=       -0.183021369468 Rises=F Damp=T
 DIIS: error= 7.61D-03 at cycle   2 NSaved=   2.
 NSaved= 2 IEnMin= 2 EnMin= -1455.30163395629     IErMin= 2 ErrMin= 7.61D-03
 ErrMax= 7.61D-03  0.00D+00 EMaxC= 1.00D-01 BMatC= 1.13D-01 BMatP= 5.61D-01
 IDIUse=3 WtCom= 9.24D-01 WtEn= 7.61D-02
 Coeff-Com: -0.480D+00 0.148D+01
 Coeff-En:   0.000D+00 0.100D+01
 Coeff:     -0.443D+00 0.144D+01
 Gap=     0.096 Goal=   None    Shift=    0.000
 RMSDP=1.05D-03 MaxDP=2.05D-01 DE=-1.83D-01 OVMax= 5.75D-01

 Cycle   3  Pass 1  IDiag  1:
 RMSU=  9.87D-04    CP:  1.01D+00  1.23D+00
 E= -1455.50416573256     Delta-E=       -0.202531776270 Rises=F Damp=F
 DIIS: error= 8.54D-03 at cycle   3 NSaved=   3.
 NSaved= 3 IEnMin= 3 EnMin= -1455.50416573256     IErMin= 2 ErrMin= 7.61D-03
 ErrMax= 8.54D-03  0.00D+00 EMaxC= 1.00D-01 BMatC= 1.31D-01 BMatP= 1.13D-01
 IDIUse=3 WtCom= 9.76D-02 WtEn= 9.02D-01
 Coeff-Com: -0.395D+00 0.985D+00 0.410D+00
 Coeff-En:   0.000D+00 0.000D+00 0.100D+01
 Coeff:     -0.386D-01 0.962D-01 0.942D+00
 Gap=     0.102 Goal=   None    Shift=    0.000
 RMSDP=1.24D-03 MaxDP=2.55D-01 DE=-2.03D-01 OVMax= 4.34D-01

 Cycle   4  Pass 1  IDiag  1:
 RMSU=  9.55D-04    CP:  1.03D+00  1.26D+00  2.06D-01
 E= -1454.71508871962     Delta-E=        0.789077012941 Rises=F Damp=F
 DIIS: error= 2.63D-02 at cycle   4 NSaved=   4.
 NSaved= 4 IEnMin= 3 EnMin= -1455.50416573256     IErMin= 2 ErrMin= 7.61D-03
 ErrMax= 2.63D-02  0.00D+00 EMaxC= 1.00D-01 BMatC= 8.90D-01 BMatP= 1.13D-01
 IDIUse=2 WtCom= 0.00D+00 WtEn= 1.00D+00
 Coeff-En:   0.000D+00 0.000D+00 0.796D+00 0.204D+00
 Coeff:      0.000D+00 0.000D+00 0.796D+00 0.204D+00
 Gap=     0.068 Goal=   None    Shift=    0.000
 RMSDP=6.87D-04 MaxDP=1.65D-01 DE= 7.89D-01 OVMax= 2.92D-01

 Cycle   5  Pass 1  IDiag  1:
 RMSU=  2.28D-04    CP:  1.02D+00  1.08D+00  5.25D-01  4.76D-01
 E= -1455.57188140722     Delta-E=       -0.856792687603 Rises=F Damp=F
 DIIS: error= 6.44D-03 at cycle   5 NSaved=   5.
 NSaved= 5 IEnMin= 5 EnMin= -1455.57188140722     IErMin= 5 ErrMin= 6.44D-03
 ErrMax= 6.44D-03  0.00D+00 EMaxC= 1.00D-01 BMatC= 7.39D-02 BMatP= 1.13D-01
 IDIUse=3 WtCom= 9.36D-01 WtEn= 6.44D-02
 Coeff-Com: -0.537D-01 0.139D+00 0.377D+00-0.413D-01 0.578D+00
 Coeff-En:   0.000D+00 0.000D+00 0.392D+00 0.000D+00 0.608D+00
 Coeff:     -0.502D-01 0.130D+00 0.378D+00-0.386D-01 0.580D+00
 Gap=     0.068 Goal=   None    Shift=    0.000
 RMSDP=3.16D-04 MaxDP=5.31D-02 DE=-8.57D-01 OVMax= 1.54D-01

 Cycle   6  Pass 1  IDiag  1:
 RMSU=  1.18D-04    CP:  1.01D+00  1.13D+00  7.37D-01  3.03D-01  5.67D-01
 E= -1455.64753210964     Delta-E=       -0.075650702421 Rises=F Damp=F
 DIIS: error= 1.14D-03 at cycle   6 NSaved=   6.
 NSaved= 6 IEnMin= 6 EnMin= -1455.64753210964     IErMin= 6 ErrMin= 1.14D-03
 ErrMax= 1.14D-03  0.00D+00 EMaxC= 1.00D-01 BMatC= 2.60D-03 BMatP= 7.39D-02
 IDIUse=3 WtCom= 9.89D-01 WtEn= 1.14D-02
 Coeff-Com: -0.265D-01 0.506D-01 0.178D+00-0.588D-01 0.401D+00 0.456D+00
 Coeff-En:   0.000D+00 0.000D+00 0.000D+00 0.000D+00 0.000D+00 0.100D+01
 Coeff:     -0.262D-01 0.500D-01 0.176D+00-0.582D-01 0.396D+00 0.462D+00
 Gap=     0.073 Goal=   None    Shift=    0.000
 RMSDP=1.00D-04 MaxDP=2.14D-02 DE=-7.57D-02 OVMax= 1.75D-02

 Cycle   7  Pass 1  IDiag  1:
 RMSU=  3.19D-05    CP:  1.01D+00  1.11D+00  7.27D-01  2.72D-01  7.47D-01
                    CP:  3.69D-01
 E= -1455.64981801752     Delta-E=       -0.002285907873 Rises=F Damp=F
 DIIS: error= 2.40D-04 at cycle   7 NSaved=   7.
 NSaved= 7 IEnMin= 7 EnMin= -1455.64981801752     IErMin= 7 ErrMin= 2.40D-04
 ErrMax= 2.40D-04  0.00D+00 EMaxC= 1.00D-01 BMatC= 1.39D-04 BMatP= 2.60D-03
 IDIUse=3 WtCom= 9.98D-01 WtEn= 2.40D-03
 Coeff-Com: -0.123D-01 0.236D-01 0.698D-01-0.253D-01 0.153D+00 0.245D+00
 Coeff-Com:  0.546D+00
 Coeff-En:   0.000D+00 0.000D+00 0.000D+00 0.000D+00 0.000D+00 0.000D+00
 Coeff-En:   0.100D+01
 Coeff:     -0.123D-01 0.235D-01 0.696D-01-0.252D-01 0.152D+00 0.245D+00
 Coeff:      0.547D+00
 Gap=     0.072 Goal=   None    Shift=    0.000
 RMSDP=3.44D-05 MaxDP=7.61D-03 DE=-2.29D-03 OVMax= 6.96D-03

 Cycle   8  Pass 1  IDiag  1:
 RMSU=  1.34D-05    CP:  1.01D+00  1.12D+00  7.30D-01  2.78D-01  7.09D-01
                    CP:  5.28D-01  5.37D-01
 E= -1455.64988980015     Delta-E=       -0.000071782632 Rises=F Damp=F
 DIIS: error= 1.64D-04 at cycle   8 NSaved=   8.
 NSaved= 8 IEnMin= 8 EnMin= -1455.64988980015     IErMin= 8 ErrMin= 1.64D-04
 ErrMax= 1.64D-04  0.00D+00 EMaxC= 1.00D-01 BMatC= 5.70D-05 BMatP= 1.39D-04
 IDIUse=3 WtCom= 9.98D-01 WtEn= 1.64D-03
 Coeff-Com: -0.938D-03 0.226D-02 0.946D-02-0.284D-02 0.106D-01 0.719D-01
 Coeff-Com:  0.429D+00 0.481D+00
 Coeff-En:   0.000D+00 0.000D+00 0.000D+00 0.000D+00 0.000D+00 0.000D+00
 Coeff-En:   0.332D+00 0.668D+00
 Coeff:     -0.937D-03 0.226D-02 0.945D-02-0.283D-02 0.106D-01 0.718D-01
 Coeff:      0.429D+00 0.481D+00
 Gap=     0.073 Goal=   None    Shift=    0.000
 RMSDP=1.39D-05 MaxDP=2.68D-03 DE=-7.18D-05 OVMax= 2.98D-03

 Cycle   9  Pass 1  IDiag  1:
 RMSU=  4.42D-06    CP:  1.01D+00  1.12D+00  7.31D-01  2.75D-01  7.20D-01
                    CP:  4.67D-01  7.31D-01  5.76D-01
 E= -1455.64994163998     Delta-E=       -0.000051839830 Rises=F Damp=F
 DIIS: error= 4.33D-05 at cycle   9 NSaved=   9.
 NSaved= 9 IEnMin= 9 EnMin= -1455.64994163998     IErMin= 9 ErrMin= 4.33D-05
 ErrMax= 4.33D-05  0.00D+00 EMaxC= 1.00D-01 BMatC= 4.96D-06 BMatP= 5.70D-05
 IDIUse=1 WtCom= 1.00D+00 WtEn= 0.00D+00
 Coeff-Com:  0.153D-03 0.370D-04 0.283D-02-0.455D-03-0.155D-02 0.360D-01
 Coeff-Com:  0.262D+00 0.333D+00 0.368D+00
 Coeff:      0.153D-03 0.370D-04 0.283D-02-0.455D-03-0.155D-02 0.360D-01
 Coeff:      0.262D+00 0.333D+00 0.368D+00
 Gap=     0.073 Goal=   None    Shift=    0.000
 RMSDP=3.10D-06 MaxDP=4.32D-04 DE=-5.18D-05 OVMax= 1.02D-03

 Cycle  10  Pass 1  IDiag  1:
 RMSU=  1.68D-06    CP:  1.01D+00  1.11D+00  7.31D-01  2.75D-01  7.18D-01
                    CP:  4.76D-01  7.26D-01  5.97D-01  5.84D-01
 E= -1455.64994661923     Delta-E=       -0.000004979253 Rises=F Damp=F
 DIIS: error= 1.23D-05 at cycle  10 NSaved=  10.
 NSaved=10 IEnMin=10 EnMin= -1455.64994661923     IErMin=10 ErrMin= 1.23D-05
 ErrMax= 1.23D-05  0.00D+00 EMaxC= 1.00D-01 BMatC= 3.23D-07 BMatP= 4.96D-06
 IDIUse=1 WtCom= 1.00D+00 WtEn= 0.00D+00
 Coeff-Com:  0.332D-03-0.445D-03 0.129D-02-0.763D-05-0.180D-02 0.182D-01
 Coeff-Com:  0.137D+00 0.180D+00 0.243D+00 0.422D+00
 Coeff:      0.332D-03-0.445D-03 0.129D-02-0.763D-05-0.180D-02 0.182D-01
 Coeff:      0.137D+00 0.180D+00 0.243D+00 0.422D+00
 Gap=     0.073 Goal=   None    Shift=    0.000
 RMSDP=1.49D-06 MaxDP=2.94D-04 DE=-4.98D-06 OVMax= 2.05D-04

 Cycle  11  Pass 1  IDiag  1:
 RMSU=  7.36D-07    CP:  1.01D+00  1.12D+00  7.31D-01  2.75D-01  7.16D-01
                    CP:  4.79D-01  7.31D-01  5.94D-01  6.08D-01  7.01D-01
 E= -1455.64994692862     Delta-E=       -0.000000309385 Rises=F Damp=F
 DIIS: error= 3.52D-06 at cycle  11 NSaved=  11.
 NSaved=11 IEnMin=11 EnMin= -1455.64994692862     IErMin=11 ErrMin= 3.52D-06
 ErrMax= 3.52D-06  0.00D+00 EMaxC= 1.00D-01 BMatC= 3.54D-08 BMatP= 3.23D-07
 IDIUse=1 WtCom= 1.00D+00 WtEn= 0.00D+00
 Coeff-Com:  0.125D-03-0.132D-03 0.333D-03 0.405D-04-0.114D-02 0.624D-02
 Coeff-Com:  0.474D-01 0.653D-01 0.981D-01 0.266D+00 0.518D+00
 Coeff:      0.125D-03-0.132D-03 0.333D-03 0.405D-04-0.114D-02 0.624D-02
 Coeff:      0.474D-01 0.653D-01 0.981D-01 0.266D+00 0.518D+00
 Gap=     0.073 Goal=   None    Shift=    0.000
 RMSDP=4.06D-07 MaxDP=8.49D-05 DE=-3.09D-07 OVMax= 8.22D-05

 Cycle  12  Pass 1  IDiag  1:
 RMSU=  1.38D-07    CP:  1.01D+00  1.12D+00  7.31D-01  2.75D-01  7.16D-01
                    CP:  4.78D-01  7.32D-01  5.97D-01  6.07D-01  7.52D-01
                    CP:  7.48D-01
 E= -1455.64994696218     Delta-E=       -0.000000033565 Rises=F Damp=F
 DIIS: error= 1.17D-06 at cycle  12 NSaved=  12.
 NSaved=12 IEnMin=12 EnMin= -1455.64994696218     IErMin=12 ErrMin= 1.17D-06
 ErrMax= 1.17D-06  0.00D+00 EMaxC= 1.00D-01 BMatC= 2.39D-09 BMatP= 3.54D-08
 IDIUse=1 WtCom= 1.00D+00 WtEn= 0.00D+00
 Coeff-Com:  0.540D-04-0.498D-04 0.127D-03 0.229D-04-0.536D-03 0.249D-02
 Coeff-Com:  0.185D-01 0.260D-01 0.407D-01 0.130D+00 0.312D+00 0.471D+00
 Coeff:      0.540D-04-0.498D-04 0.127D-03 0.229D-04-0.536D-03 0.249D-02
 Coeff:      0.185D-01 0.260D-01 0.407D-01 0.130D+00 0.312D+00 0.471D+00
 Gap=     0.073 Goal=   None    Shift=    0.000
 RMSDP=9.37D-08 MaxDP=2.04D-05 DE=-3.36D-08 OVMax= 1.80D-05

 Cycle  13  Pass 1  IDiag  1:
 RMSU=  4.14D-08    CP:  1.01D+00  1.12D+00  7.31D-01  2.75D-01  7.16D-01
                    CP:  4.78D-01  7.31D-01  5.98D-01  6.09D-01  7.51D-01
                    CP:  7.79D-01  7.70D-01
 E= -1455.64994696418     Delta-E=       -0.000000001999 Rises=F Damp=F
 DIIS: error= 3.38D-07 at cycle  13 NSaved=  13.
 NSaved=13 IEnMin=13 EnMin= -1455.64994696418     IErMin=13 ErrMin= 3.38D-07
 ErrMax= 3.38D-07  0.00D+00 EMaxC= 1.00D-01 BMatC= 2.80D-10 BMatP= 2.39D-09
 IDIUse=1 WtCom= 1.00D+00 WtEn= 0.00D+00
 Coeff-Com:  0.182D-04-0.202D-04 0.241D-04 0.822D-05-0.135D-03 0.508D-03
 Coeff-Com:  0.351D-02 0.507D-02 0.851D-02 0.356D-01 0.105D+00 0.289D+00
 Coeff-Com:  0.553D+00
 Coeff:      0.182D-04-0.202D-04 0.241D-04 0.822D-05-0.135D-03 0.508D-03
 Coeff:      0.351D-02 0.507D-02 0.851D-02 0.356D-01 0.105D+00 0.289D+00
 Coeff:      0.553D+00
 Gap=     0.073 Goal=   None    Shift=    0.000
 RMSDP=2.71D-08 MaxDP=4.18D-06 DE=-2.00D-09 OVMax= 4.61D-06

 Cycle  14  Pass 1  IDiag  1:
 RMSU=  1.49D-08    CP:  1.01D+00  1.12D+00  7.31D-01  2.75D-01  7.16D-01
                    CP:  4.78D-01  7.31D-01  5.98D-01  6.10D-01  7.56D-01
                    CP:  7.73D-01  8.04D-01  7.38D-01
 E= -1455.64994696443     Delta-E=       -0.000000000253 Rises=F Damp=F
 DIIS: error= 1.08D-07 at cycle  14 NSaved=  14.
 NSaved=14 IEnMin=14 EnMin= -1455.64994696443     IErMin=14 ErrMin= 1.08D-07
 ErrMax= 1.08D-07  0.00D+00 EMaxC= 1.00D-01 BMatC= 2.94D-11 BMatP= 2.80D-10
 IDIUse=1 WtCom= 1.00D+00 WtEn= 0.00D+00
 Coeff-Com:  0.705D-05-0.870D-05 0.684D-05 0.284D-05-0.387D-04 0.130D-03
 Coeff-Com:  0.792D-03 0.117D-02 0.217D-02 0.121D-01 0.412D-01 0.142D+00
 Coeff-Com:  0.337D+00 0.463D+00
 Coeff:      0.705D-05-0.870D-05 0.684D-05 0.284D-05-0.387D-04 0.130D-03
 Coeff:      0.792D-03 0.117D-02 0.217D-02 0.121D-01 0.412D-01 0.142D+00
 Coeff:      0.337D+00 0.463D+00
 Gap=     0.073 Goal=   None    Shift=    0.000
 RMSDP=6.51D-09 MaxDP=8.36D-07 DE=-2.53D-10 OVMax= 1.62D-06

 Error on total polarization charges =  0.06338
 SCF Done:  E(RPBE-PBE) =  -1455.64994696     A.U. after   14 cycles
            NFock= 14  Conv=0.65D-08     -V/T= 2.0044
 KE= 1.449253028404D+03 PE=-9.748388197658D+03 EE= 3.672207468435D+03
 SMD-CDS (non-electrostatic) energy       (kcal/mol) =      -4.07
 (included in total energy above)
 Leave Link  502 at Fri Mar 26 23:35:07 2021, MaxMem=  5242880000 cpu:     11479.8
 (Enter /opt/nce/packages/global/g09/l601.exe)
 Copying SCF densities to generalized density rwf, IOpCl= 0 IROHF=0.

 **********************************************************************

            Population analysis using the SCF density.

 **********************************************************************

 Alpha  occ. eigenvalues --  -24.20100 -24.19531 -24.19334 -18.79082 -14.07938
 Alpha  occ. eigenvalues --   -9.96203  -9.96143  -9.95404  -9.94191  -9.93282
 Alpha  occ. eigenvalues --   -9.92473  -9.92392  -9.92162  -9.90727  -9.90706
 Alpha  occ. eigenvalues --   -9.90401  -9.90387  -9.90340  -9.90264  -9.90113
 Alpha  occ. eigenvalues --   -9.90039  -9.89966  -9.89923  -9.89649  -9.89344
 Alpha  occ. eigenvalues --   -9.89308  -9.88879  -9.88459  -9.88309  -9.87879
 Alpha  occ. eigenvalues --   -9.86602  -6.54591  -1.06610  -1.02874  -1.01979
 Alpha  occ. eigenvalues --   -0.99053  -0.93953  -0.81400  -0.80248  -0.78547
 Alpha  occ. eigenvalues --   -0.77445  -0.74840  -0.71294  -0.70454  -0.69525
 Alpha  occ. eigenvalues --   -0.68983  -0.67797  -0.67104  -0.66849  -0.63574
 Alpha  occ. eigenvalues --   -0.61302  -0.59749  -0.58521  -0.56454  -0.55202
 Alpha  occ. eigenvalues --   -0.54334  -0.53989  -0.52235  -0.51578  -0.50463
 Alpha  occ. eigenvalues --   -0.49722  -0.48084  -0.47346  -0.45795  -0.45533
 Alpha  occ. eigenvalues --   -0.44371  -0.42919  -0.42772  -0.42584  -0.41908
 Alpha  occ. eigenvalues --   -0.41804  -0.41078  -0.40620  -0.40147  -0.40082
 Alpha  occ. eigenvalues --   -0.39496  -0.39408  -0.39234  -0.38953  -0.38413
 Alpha  occ. eigenvalues --   -0.38068  -0.36742  -0.36495  -0.35999  -0.35389
 Alpha  occ. eigenvalues --   -0.34475  -0.34455  -0.33566  -0.33070  -0.32833
 Alpha  occ. eigenvalues --   -0.32636  -0.32480  -0.31866  -0.31734  -0.31319
 Alpha  occ. eigenvalues --   -0.31116  -0.30399  -0.30084  -0.29027  -0.28801
 Alpha  occ. eigenvalues --   -0.28684  -0.28485  -0.27859  -0.25479  -0.24609
 Alpha  occ. eigenvalues --   -0.24134  -0.23717  -0.22850  -0.22322  -0.21356
 Alpha  occ. eigenvalues --   -0.20628
 Alpha virt. eigenvalues --   -0.13377  -0.07241  -0.05931  -0.04915  -0.04794
 Alpha virt. eigenvalues --   -0.04105  -0.03835  -0.03797  -0.00696   0.02590
 Alpha virt. eigenvalues --    0.03480   0.03661   0.04479   0.04533   0.05220
 Alpha virt. eigenvalues --    0.05545   0.05976   0.06415   0.07037   0.07495
 Alpha virt. eigenvalues --    0.07668   0.07892   0.08032   0.08519   0.09178
 Alpha virt. eigenvalues --    0.09226   0.09462   0.09594   0.09962   0.10183
 Alpha virt. eigenvalues --    0.10510   0.10633   0.11392   0.11567   0.11909
 Alpha virt. eigenvalues --    0.12148   0.12954   0.13149   0.13479   0.14921
 Alpha virt. eigenvalues --    0.15425   0.15684   0.15977   0.16740   0.16997
 Alpha virt. eigenvalues --    0.17374   0.17970   0.18050   0.18365   0.18542
 Alpha virt. eigenvalues --    0.18865   0.19209   0.19390   0.19625   0.19776
 Alpha virt. eigenvalues --    0.19911   0.20209   0.20680   0.20801   0.21173
 Alpha virt. eigenvalues --    0.21478   0.21665   0.21903   0.22466   0.23186
 Alpha virt. eigenvalues --    0.23319   0.23672   0.23989   0.24090   0.24511
 Alpha virt. eigenvalues --    0.25005   0.25060   0.25410   0.25736   0.25980
 Alpha virt. eigenvalues --    0.26368   0.26687   0.27291   0.27446   0.27803
 Alpha virt. eigenvalues --    0.28243   0.28370   0.28885   0.28898   0.29445
 Alpha virt. eigenvalues --    0.29735   0.30511   0.30623   0.30796   0.31097
 Alpha virt. eigenvalues --    0.31402   0.31724   0.31947   0.32478   0.32634
 Alpha virt. eigenvalues --    0.32666   0.33581   0.33907   0.34221   0.34351
 Alpha virt. eigenvalues --    0.34491   0.35014   0.35394   0.35917   0.36172
 Alpha virt. eigenvalues --    0.36302   0.36624   0.37123   0.37557   0.37813
 Alpha virt. eigenvalues --    0.37986   0.38259   0.38406   0.38798   0.39080
 Alpha virt. eigenvalues --    0.39226   0.39562   0.39764   0.40005   0.40521
 Alpha virt. eigenvalues --    0.40610   0.40859   0.41091   0.41238   0.41775
 Alpha virt. eigenvalues --    0.42040   0.42147   0.42759   0.43163   0.43723
 Alpha virt. eigenvalues --    0.43871   0.44094   0.44687   0.44970   0.45370
 Alpha virt. eigenvalues --    0.45513   0.45892   0.46055   0.46454   0.46880
 Alpha virt. eigenvalues --    0.47117   0.47259   0.47487   0.48304   0.48851
 Alpha virt. eigenvalues --    0.48882   0.49550   0.49995   0.50709   0.51153
 Alpha virt. eigenvalues --    0.51585   0.52527   0.52782   0.53474   0.53763
 Alpha virt. eigenvalues --    0.54735   0.54959   0.55442   0.55722   0.55799
 Alpha virt. eigenvalues --    0.56664   0.57175   0.57680   0.58332   0.58683
 Alpha virt. eigenvalues --    0.58900   0.59385   0.59882   0.60044   0.60768
 Alpha virt. eigenvalues --    0.60898   0.61133   0.61423   0.61827   0.62168
 Alpha virt. eigenvalues --    0.62559   0.62788   0.63207   0.63618   0.63856
 Alpha virt. eigenvalues --    0.64267   0.64604   0.64718   0.65217   0.65423
 Alpha virt. eigenvalues --    0.65715   0.66316   0.66724   0.66980   0.67302
 Alpha virt. eigenvalues --    0.67497   0.68175   0.68544   0.69121   0.69537
 Alpha virt. eigenvalues --    0.69967   0.70085   0.70802   0.71253   0.71588
 Alpha virt. eigenvalues --    0.71902   0.72286   0.72528   0.73041   0.73564
 Alpha virt. eigenvalues --    0.74036   0.74397   0.74972   0.75499   0.75621
 Alpha virt. eigenvalues --    0.76079   0.76207   0.76758   0.76827   0.77884
 Alpha virt. eigenvalues --    0.78444   0.79009   0.79132   0.80092   0.80355
 Alpha virt. eigenvalues --    0.80756   0.81204   0.81895   0.82091   0.82259
 Alpha virt. eigenvalues --    0.82590   0.82710   0.83525   0.83825   0.84313
 Alpha virt. eigenvalues --    0.84380   0.84633   0.85467   0.85608   0.86517
 Alpha virt. eigenvalues --    0.86871   0.87022   0.87501   0.88685   0.89010
 Alpha virt. eigenvalues --    0.89818   0.90051   0.90361   0.90593   0.91388
 Alpha virt. eigenvalues --    0.91773   0.92724   0.93195   0.93885   0.94457
 Alpha virt. eigenvalues --    0.95802   0.95891   0.97103   0.97309   0.98277
 Alpha virt. eigenvalues --    0.98600   0.99122   0.99599   1.00444   1.01499
 Alpha virt. eigenvalues --    1.01873   1.02396   1.02878   1.03143   1.03806
 Alpha virt. eigenvalues --    1.04328   1.05332   1.05447   1.05639   1.06426
 Alpha virt. eigenvalues --    1.06717   1.07079   1.07166   1.08009   1.08853
 Alpha virt. eigenvalues --    1.09267   1.09371   1.10003   1.10965   1.11199
 Alpha virt. eigenvalues --    1.12292   1.12654   1.13692   1.14187   1.15379
 Alpha virt. eigenvalues --    1.15951   1.15979   1.16263   1.17468   1.17831
 Alpha virt. eigenvalues --    1.18063   1.18224   1.19066   1.19289   1.20148
 Alpha virt. eigenvalues --    1.20324   1.20805   1.21478   1.21654   1.22467
 Alpha virt. eigenvalues --    1.22751   1.23564   1.24115   1.24747   1.25319
 Alpha virt. eigenvalues --    1.25997   1.26199   1.27225   1.28033   1.28235
 Alpha virt. eigenvalues --    1.28561   1.28767   1.29083   1.29875   1.30846
 Alpha virt. eigenvalues --    1.31022   1.31437   1.32506   1.33135   1.34768
 Alpha virt. eigenvalues --    1.35532   1.35693   1.36137   1.36503   1.37177
 Alpha virt. eigenvalues --    1.37885   1.38091   1.38381   1.39088   1.39621
 Alpha virt. eigenvalues --    1.40231   1.40939   1.41481   1.41969   1.42532
 Alpha virt. eigenvalues --    1.42726   1.44047   1.44507   1.44964   1.45332
 Alpha virt. eigenvalues --    1.45413   1.45639   1.46015   1.46811   1.46895
 Alpha virt. eigenvalues --    1.47613   1.48130   1.48724   1.48971   1.49358
 Alpha virt. eigenvalues --    1.49647   1.50202   1.50532   1.51678   1.52000
 Alpha virt. eigenvalues --    1.52431   1.52521   1.53087   1.53439   1.53686
 Alpha virt. eigenvalues --    1.54573   1.55181   1.55790   1.57059   1.57229
 Alpha virt. eigenvalues --    1.57424   1.57769   1.58028   1.59017   1.59423
 Alpha virt. eigenvalues --    1.59972   1.60903   1.61015   1.61234   1.61496
 Alpha virt. eigenvalues --    1.62330   1.62524   1.63041   1.63517   1.64028
 Alpha virt. eigenvalues --    1.64456   1.64876   1.65652   1.65676   1.67068
 Alpha virt. eigenvalues --    1.67807   1.67846   1.68611   1.68897   1.69266
 Alpha virt. eigenvalues --    1.69733   1.69965   1.70602   1.71094   1.71902
 Alpha virt. eigenvalues --    1.72335   1.72685   1.73360   1.74222   1.74806
 Alpha virt. eigenvalues --    1.75395   1.75899   1.77243   1.77354   1.79281
 Alpha virt. eigenvalues --    1.79371   1.79793   1.81005   1.81115   1.81909
 Alpha virt. eigenvalues --    1.82695   1.83012   1.84158   1.84440   1.85173
 Alpha virt. eigenvalues --    1.85420   1.86178   1.86597   1.87364   1.87840
 Alpha virt. eigenvalues --    1.88436   1.88972   1.89373   1.90100   1.90833
 Alpha virt. eigenvalues --    1.92389   1.92899   1.93689   1.94449   1.94744
 Alpha virt. eigenvalues --    1.95274   1.95850   1.96722   1.97489   1.97855
 Alpha virt. eigenvalues --    1.98642   1.99200   1.99920   2.01134   2.01796
 Alpha virt. eigenvalues --    2.02661   2.03017   2.03311   2.03580   2.04338
 Alpha virt. eigenvalues --    2.04839   2.05397   2.06347   2.07214   2.08059
 Alpha virt. eigenvalues --    2.08541   2.09088   2.09305   2.10380   2.10729
 Alpha virt. eigenvalues --    2.11254   2.11894   2.12133   2.12929   2.13458
 Alpha virt. eigenvalues --    2.14173   2.15077   2.15662   2.16704   2.17115
 Alpha virt. eigenvalues --    2.17551   2.17899   2.18267   2.18595   2.19146
 Alpha virt. eigenvalues --    2.19895   2.19935   2.20689   2.21548   2.22022
 Alpha virt. eigenvalues --    2.23074   2.23275   2.24323   2.25188   2.25807
 Alpha virt. eigenvalues --    2.26961   2.27461   2.28424   2.29177   2.30318
 Alpha virt. eigenvalues --    2.30916   2.31828   2.32490   2.33426   2.33672
 Alpha virt. eigenvalues --    2.34943   2.35683   2.36012   2.37905   2.39227
 Alpha virt. eigenvalues --    2.39729   2.40555   2.41273   2.42317   2.42602
 Alpha virt. eigenvalues --    2.43309   2.43948   2.44636   2.45286   2.46092
 Alpha virt. eigenvalues --    2.46499   2.46750   2.47082   2.47719   2.47925
 Alpha virt. eigenvalues --    2.48477   2.49506   2.50121   2.50305   2.50999
 Alpha virt. eigenvalues --    2.51779   2.52411   2.52997   2.53464   2.53918
 Alpha virt. eigenvalues --    2.54249   2.54585   2.55166   2.55576   2.56362
 Alpha virt. eigenvalues --    2.56854   2.57364   2.57916   2.58057   2.59008
 Alpha virt. eigenvalues --    2.59126   2.59768   2.60222   2.60436   2.60914
 Alpha virt. eigenvalues --    2.61412   2.61828   2.62112   2.62301   2.62917
 Alpha virt. eigenvalues --    2.63267   2.63752   2.64317   2.64663   2.65387
 Alpha virt. eigenvalues --    2.65562   2.65815   2.66397   2.66504   2.67534
 Alpha virt. eigenvalues --    2.68061   2.68259   2.69052   2.69131   2.69477
 Alpha virt. eigenvalues --    2.69618   2.70023   2.70415   2.70733   2.71416
 Alpha virt. eigenvalues --    2.71668   2.72262   2.72819   2.73041   2.73343
 Alpha virt. eigenvalues --    2.73717   2.74355   2.74824   2.75318   2.75924
 Alpha virt. eigenvalues --    2.76465   2.76839   2.77400   2.78057   2.78551
 Alpha virt. eigenvalues --    2.78625   2.78905   2.79658   2.79823   2.80315
 Alpha virt. eigenvalues --    2.80668   2.81419   2.81572   2.82255   2.83119
 Alpha virt. eigenvalues --    2.83733   2.84146   2.84509   2.85093   2.85527
 Alpha virt. eigenvalues --    2.86601   2.86794   2.87370   2.87643   2.88563
 Alpha virt. eigenvalues --    2.88871   2.89222   2.89340   2.90142   2.90285
 Alpha virt. eigenvalues --    2.91213   2.92556   2.93008   2.93521   2.94351
 Alpha virt. eigenvalues --    2.94964   2.95343   2.96364   2.96815   2.97150
 Alpha virt. eigenvalues --    2.97725   2.97894   2.98528   2.99293   2.99517
 Alpha virt. eigenvalues --    3.00191   3.00738   3.01433   3.01719   3.01938
 Alpha virt. eigenvalues --    3.02642   3.02872   3.03526   3.03942   3.04226
 Alpha virt. eigenvalues --    3.05090   3.05755   3.05944   3.06595   3.07100
 Alpha virt. eigenvalues --    3.07785   3.08111   3.08342   3.08620   3.09158
 Alpha virt. eigenvalues --    3.09442   3.10499   3.10898   3.11967   3.12383
 Alpha virt. eigenvalues --    3.12784   3.13353   3.13705   3.14188   3.14345
 Alpha virt. eigenvalues --    3.14860   3.15779   3.16255   3.16884   3.17262
 Alpha virt. eigenvalues --    3.17697   3.18007   3.18207   3.18562   3.19393
 Alpha virt. eigenvalues --    3.19769   3.20413   3.20574   3.20815   3.20952
 Alpha virt. eigenvalues --    3.21978   3.22236   3.22650   3.23145   3.24028
 Alpha virt. eigenvalues --    3.24597   3.24970   3.25189   3.26116   3.26512
 Alpha virt. eigenvalues --    3.26997   3.27612   3.27673   3.28192   3.28383
 Alpha virt. eigenvalues --    3.28680   3.29119   3.29212   3.29693   3.30522
 Alpha virt. eigenvalues --    3.30777   3.31016   3.31403   3.31861   3.33026
 Alpha virt. eigenvalues --    3.33578   3.33963   3.34434   3.35232   3.35801
 Alpha virt. eigenvalues --    3.36358   3.36807   3.37077   3.37449   3.37990
 Alpha virt. eigenvalues --    3.38471   3.38715   3.39111   3.39485   3.39776
 Alpha virt. eigenvalues --    3.40133   3.40801   3.41484   3.41971   3.42132
 Alpha virt. eigenvalues --    3.42432   3.43296   3.43503   3.43909   3.44102
 Alpha virt. eigenvalues --    3.44186   3.44376   3.45053   3.45216   3.45685
 Alpha virt. eigenvalues --    3.46451   3.47076   3.47587   3.47864   3.48800
 Alpha virt. eigenvalues --    3.49145   3.49826   3.50327   3.50981   3.51825
 Alpha virt. eigenvalues --    3.52121   3.53256   3.53448   3.54071   3.54726
 Alpha virt. eigenvalues --    3.55632   3.56359   3.57146   3.58014   3.58350
 Alpha virt. eigenvalues --    3.58735   3.59455   3.60662   3.61114   3.61209
 Alpha virt. eigenvalues --    3.63136   3.63571   3.64339   3.64989   3.65739
 Alpha virt. eigenvalues --    3.66793   3.67155   3.67742   3.68672   3.69020
 Alpha virt. eigenvalues --    3.70369   3.72138   3.73232   3.73664   3.74796
 Alpha virt. eigenvalues --    3.75394   3.77092   3.77209   3.78483   3.79516
 Alpha virt. eigenvalues --    3.80496   3.81076   3.82780   3.83407   3.84023
 Alpha virt. eigenvalues --    3.85548   3.85700   3.85945   3.87498   3.88116
 Alpha virt. eigenvalues --    3.88549   3.88743   3.89801   3.91332   3.92154
 Alpha virt. eigenvalues --    3.92754   3.94770   3.95173   3.95740   3.96075
 Alpha virt. eigenvalues --    3.97180   3.98029   3.98679   3.99109   3.99949
 Alpha virt. eigenvalues --    4.00870   4.02859   4.03034   4.04356   4.04890
 Alpha virt. eigenvalues --    4.05231   4.06077   4.06232   4.07426   4.07539
 Alpha virt. eigenvalues --    4.08042   4.08578   4.09530   4.10248   4.10843
 Alpha virt. eigenvalues --    4.11455   4.12223   4.12333   4.12941   4.13506
 Alpha virt. eigenvalues --    4.13627   4.13881   4.14432   4.14492   4.14682
 Alpha virt. eigenvalues --    4.15914   4.16292   4.16777   4.17662   4.18537
 Alpha virt. eigenvalues --    4.18741   4.19051   4.20190   4.20804   4.21216
 Alpha virt. eigenvalues --    4.23370   4.23932   4.25177   4.25541   4.27010
 Alpha virt. eigenvalues --    4.27758   4.28432   4.30508   4.32426   4.32913
 Alpha virt. eigenvalues --    4.34397   4.34792   4.36536   4.37137   4.38698
 Alpha virt. eigenvalues --    4.38926   4.40490   4.42238   4.43773   4.45172
 Alpha virt. eigenvalues --    4.47336   4.48270   4.48497   4.50861   4.51333
 Alpha virt. eigenvalues --    4.51781   4.53165   4.54246   4.55861   4.56126
 Alpha virt. eigenvalues --    4.57169   4.58406   4.60462   4.60762   4.62883
 Alpha virt. eigenvalues --    4.63706   4.65541   4.67077   4.68787   4.69804
 Alpha virt. eigenvalues --    4.70899   4.72196   4.74200   4.75847   4.77020
 Alpha virt. eigenvalues --    4.77989   4.78375   4.80634   4.82348   4.84935
 Alpha virt. eigenvalues --    4.85264   4.85603   4.87609   4.88770   4.91127
 Alpha virt. eigenvalues --    4.91946   4.94489   4.96584   4.97791   5.01784
 Alpha virt. eigenvalues --    5.01838   5.05420   5.05884   5.07614   5.09495
 Alpha virt. eigenvalues --    5.10228   5.10579   5.13129   5.15550   5.16426
 Alpha virt. eigenvalues --    5.17982   5.19222   5.22147   5.22544   5.24581
 Alpha virt. eigenvalues --    5.28862   5.31024   5.33661   5.34143   5.38148
 Alpha virt. eigenvalues --    5.38810   5.42743   5.43912   5.46539   5.47037
 Alpha virt. eigenvalues --    5.50198   5.54540   5.57395   5.60342   5.63485
 Alpha virt. eigenvalues --    5.64636   5.66890   5.72259   5.73230   5.79939
 Alpha virt. eigenvalues --    5.88210   5.90094   5.95606   6.11937   6.23886
 Alpha virt. eigenvalues --    6.29331   6.41947   6.50013   6.64882   6.72756
 Alpha virt. eigenvalues --    6.75221   6.76947   6.77795   6.77916   6.78403
 Alpha virt. eigenvalues --    6.78684   6.79062   6.79999   6.81030   6.88596
 Alpha virt. eigenvalues --    6.91097   6.92553   6.94848   6.96538   6.97033
 Alpha virt. eigenvalues --    7.03645   7.12302   7.13576   7.15254   7.16873
 Alpha virt. eigenvalues --    7.26458   7.27802   7.28227   8.24148   8.26729
 Alpha virt. eigenvalues --    8.28382   8.38245   8.42594   8.43998   8.65045
 Alpha virt. eigenvalues --    8.69189   8.71118   8.71931   8.76825   8.79935
 Alpha virt. eigenvalues --    8.84608   8.85151   8.87469  15.43797  22.01582
 Alpha virt. eigenvalues --   22.04394  22.09323  22.13822  22.19617  22.33603
 Alpha virt. eigenvalues --   22.35934  22.36943  22.37655  22.39368  22.41870
 Alpha virt. eigenvalues --   22.43420  22.47396  22.48943  22.55752  22.59102
 Alpha virt. eigenvalues --   22.62934  22.64453  22.68537  22.71093  22.79841
 Alpha virt. eigenvalues --   22.93558  23.02384  23.08873  23.13362  23.41701
 Alpha virt. eigenvalues --   32.96253  43.83128  56.72892  56.81621  57.03255
          Condensed to atoms (all electrons):
 Mulliken charges:
               1
     1  C   -0.102661
     2  C   -0.201034
     3  C    0.076019
     4  C    0.150051
     5  C   -0.174218
     6  C   -0.151870
     7  C    0.256308
     8  C    0.094872
     9  C    0.082212
    10  C   -0.198087
    11  H    0.166181
    12  C   -0.109105
    13  C   -0.140093
    14  C   -0.213437
    15  H    0.156911
    16  H    0.165305
    17  H    0.157597
    18  H    0.151275
    19  H    0.157935
    20  H    0.153799
    21  H    0.164559
    22  N    0.299048
    23  C   -0.051411
    24  C   -0.121795
    25  C   -0.234652
    26  C   -0.223427
    27  C   -0.132963
    28  C   -0.156917
    29  H    0.140527
    30  H    0.139058
    31  C   -0.012336
    32  C   -0.214374
    33  C   -0.159759
    34  C   -0.251588
    35  H    0.153356
    36  C   -0.199054
    37  H    0.140976
    38  C    0.328743
    39  H    0.155652
    40  H    0.132078
    41  O   -0.197803
    42  C   -0.257705
    43  H    0.162151
    44  H    0.148422
    45  H    0.148728
    46  H    0.136971
    47  H    0.133387
    48  F   -0.367996
    49  F   -0.374228
    50  F   -0.362466
    51  B    0.456856
 Sum of Mulliken charges =  -0.00000
 Mulliken charges with hydrogens summed into heavy atoms:
               1
     1  C    0.054250
     2  C   -0.035729
     3  C    0.076019
     4  C    0.150051
     5  C   -0.016620
     6  C   -0.000595
     7  C    0.256308
     8  C    0.094872
     9  C    0.082212
    10  C   -0.031905
    12  C    0.048830
    13  C    0.013706
    14  C   -0.048878
    22  N    0.299048
    23  C   -0.051411
    24  C   -0.121795
    25  C   -0.095594
    26  C   -0.090040
    27  C    0.007564
    28  C   -0.019945
    31  C   -0.012336
    32  C   -0.061018
    33  C   -0.018783
    34  C   -0.095936
    36  C   -0.066976
    38  C    0.328743
    41  O   -0.197803
    42  C    0.201597
    48  F   -0.367996
    49  F   -0.374228
    50  F   -0.362466
    51  B    0.456856
 Electronic spatial extent (au):  <R**2>=          12952.1511
 Charge=              0.0000 electrons
 Dipole moment (field-independent basis, Debye):
    X=             -9.5490    Y=             -5.4935    Z=             -8.7248  Tot=             14.0529
 Quadrupole moment (field-independent basis, Debye-Ang):
   XX=           -147.3457   YY=           -162.4672   ZZ=           -187.4274
   XY=            -13.4693   XZ=            -26.0465   YZ=            -10.8966
[...]
 Alpha virt. eigenvalues --    0.51568   0.52478   0.52659   0.52780   0.53425
 Alpha virt. eigenvalues --    0.53855   0.54971   0.55205   0.55546   0.56084
 Alpha virt. eigenvalues --    0.56250   0.56922   0.57876   0.58177   0.58637
 Alpha virt. eigenvalues --    0.58873   0.59564   0.59732   0.60217   0.60528
 Alpha virt. eigenvalues --    0.61016   0.61361   0.61554   0.61758   0.61995
 Alpha virt. eigenvalues --    0.62423   0.62558   0.63118   0.63162   0.63590
 Alpha virt. eigenvalues --    0.63790   0.64261   0.64538   0.64608   0.65414
 Alpha virt. eigenvalues --    0.65577   0.65840   0.65955   0.66489   0.66733
 Alpha virt. eigenvalues --    0.66938   0.68001   0.68274   0.68881   0.68892
 Alpha virt. eigenvalues --    0.69559   0.69771   0.70047   0.70155   0.70333
 Alpha virt. eigenvalues --    0.70828   0.71112   0.71415   0.72146   0.72584
 Alpha virt. eigenvalues --    0.72843   0.73241   0.73761   0.74294   0.74917
 Alpha virt. eigenvalues --    0.75282   0.75848   0.76107   0.76609   0.77063
 Alpha virt. eigenvalues --    0.77292   0.77774   0.78238   0.78703   0.79117
 Alpha virt. eigenvalues --    0.79472   0.79923   0.80357   0.81160   0.81345
 Alpha virt. eigenvalues --    0.81521   0.81822   0.81994   0.82756   0.83176
 Alpha virt. eigenvalues --    0.83801   0.83939   0.84586   0.85104   0.85541
 Alpha virt. eigenvalues --    0.86313   0.87152   0.87579   0.87672   0.88757
 Alpha virt. eigenvalues --    0.88885   0.89950   0.90298   0.90664   0.91383
 Alpha virt. eigenvalues --    0.92075   0.92520   0.92981   0.94259   0.94995
 Alpha virt. eigenvalues --    0.95162   0.95700   0.96033   0.96477   0.97584
 Alpha virt. eigenvalues --    0.97907   0.98265   0.98952   0.99699   1.00113
 Alpha virt. eigenvalues --    1.00559   1.01484   1.01869   1.02452   1.02727
 Alpha virt. eigenvalues --    1.03309   1.03623   1.04318   1.04452   1.04944
 Alpha virt. eigenvalues --    1.05668   1.05735   1.06272   1.06488   1.08270
 Alpha virt. eigenvalues --    1.09069   1.09378   1.09911   1.10037   1.10787
 Alpha virt. eigenvalues --    1.11193   1.11767   1.12404   1.13420   1.13764
 Alpha virt. eigenvalues --    1.14140   1.14932   1.15930   1.17159   1.17276
 Alpha virt. eigenvalues --    1.17835   1.18168   1.18681   1.19229   1.19533
 Alpha virt. eigenvalues --    1.19724   1.20012   1.20605   1.20909   1.21626
 Alpha virt. eigenvalues --    1.22054   1.22420   1.22855   1.23603   1.24312
 Alpha virt. eigenvalues --    1.24600   1.24919   1.25577   1.25898   1.26752
 Alpha virt. eigenvalues --    1.26818   1.27741   1.28784   1.29779   1.29924
 Alpha virt. eigenvalues --    1.31083   1.31540   1.32059   1.32619   1.32806
 Alpha virt. eigenvalues --    1.33752   1.35662   1.35696   1.36293   1.36576
 Alpha virt. eigenvalues --    1.37005   1.37380   1.37955   1.38742   1.39272
 Alpha virt. eigenvalues --    1.39712   1.40407   1.40860   1.41576   1.41970
 Alpha virt. eigenvalues --    1.42438   1.43157   1.44105   1.44242   1.44683
 Alpha virt. eigenvalues --    1.45242   1.45413   1.45935   1.46342   1.46956
 Alpha virt. eigenvalues --    1.47161   1.47703   1.48099   1.48368   1.49242
 Alpha virt. eigenvalues --    1.50009   1.50349   1.50444   1.50859   1.51259
 Alpha virt. eigenvalues --    1.51539   1.52015   1.52737   1.53268   1.53679
 Alpha virt. eigenvalues --    1.54465   1.55131   1.55485   1.55896   1.56253
 Alpha virt. eigenvalues --    1.57300   1.57748   1.57865   1.58478   1.59032
 Alpha virt. eigenvalues --    1.59473   1.59663   1.60228   1.60423   1.61632
 Alpha virt. eigenvalues --    1.61922   1.62780   1.63280   1.63540   1.63803
 Alpha virt. eigenvalues --    1.64174   1.64610   1.64995   1.65578   1.66397
 Alpha virt. eigenvalues --    1.66600   1.67075   1.68303   1.68431   1.69097
 Alpha virt. eigenvalues --    1.69582   1.70022   1.70548   1.70617   1.71291
 Alpha virt. eigenvalues --    1.71484   1.72226   1.73401   1.73639   1.74890
 Alpha virt. eigenvalues --    1.75588   1.76343   1.77280   1.78258   1.78841
 Alpha virt. eigenvalues --    1.79669   1.79774   1.80499   1.81072   1.81498
 Alpha virt. eigenvalues --    1.82204   1.82890   1.83559   1.84067   1.84593
 Alpha virt. eigenvalues --    1.85149   1.85466   1.86670   1.87420   1.87785
 Alpha virt. eigenvalues --    1.88238   1.89542   1.90194   1.90535   1.92014
 Alpha virt. eigenvalues --    1.92389   1.93073   1.93310   1.93855   1.94277
 Alpha virt. eigenvalues --    1.94987   1.95367   1.97103   1.97312   1.97524
 Alpha virt. eigenvalues --    1.97990   1.98870   1.99658   1.99996   2.00654
 Alpha virt. eigenvalues --    2.01359   2.02454   2.03377   2.03716   2.03940
 Alpha virt. eigenvalues --    2.04403   2.05433   2.06334   2.06557   2.08034
 Alpha virt. eigenvalues --    2.08204   2.08624   2.09367   2.09725   2.10112
 Alpha virt. eigenvalues --    2.10302   2.10631   2.11653   2.12252   2.13767
 Alpha virt. eigenvalues --    2.14022   2.14712   2.15343   2.15653   2.16233
 Alpha virt. eigenvalues --    2.16631   2.17010   2.17861   2.18028   2.18803
 Alpha virt. eigenvalues --    2.19217   2.20311   2.20649   2.21006   2.21284
 Alpha virt. eigenvalues --    2.22589   2.23921   2.24200   2.24847   2.26037
 Alpha virt. eigenvalues --    2.26518   2.26950   2.27881   2.29198   2.29433
 Alpha virt. eigenvalues --    2.30476   2.31495   2.32039   2.32492   2.33334
 Alpha virt. eigenvalues --    2.33440   2.33831   2.34660   2.36515   2.38690
 Alpha virt. eigenvalues --    2.38926   2.39669   2.39819   2.40308   2.42096
 Alpha virt. eigenvalues --    2.42379   2.43551   2.44664   2.45739   2.46149
 Alpha virt. eigenvalues --    2.46579   2.47060   2.47211   2.47330   2.48244
 Alpha virt. eigenvalues --    2.48637   2.49462   2.50195   2.50711   2.51307
 Alpha virt. eigenvalues --    2.51530   2.52589   2.53143   2.53405   2.53592
 Alpha virt. eigenvalues --    2.54083   2.54224   2.54794   2.55027   2.55743
 Alpha virt. eigenvalues --    2.56279   2.56715   2.57099   2.57163   2.57915
 Alpha virt. eigenvalues --    2.58902   2.58938   2.59794   2.59849   2.61040
 Alpha virt. eigenvalues --    2.61520   2.61921   2.62224   2.62376   2.62606
 Alpha virt. eigenvalues --    2.62797   2.63207   2.63559   2.64106   2.64453
 Alpha virt. eigenvalues --    2.64774   2.65412   2.65622   2.65690   2.65889
 Alpha virt. eigenvalues --    2.66394   2.68002   2.68056   2.68308   2.68399
 Alpha virt. eigenvalues --    2.68967   2.69402   2.70004   2.70242   2.70452
 Alpha virt. eigenvalues --    2.70901   2.71689   2.71833   2.72452   2.72973
 Alpha virt. eigenvalues --    2.73186   2.74216   2.74601   2.74834   2.75104
 Alpha virt. eigenvalues --    2.75963   2.76356   2.76888   2.77379   2.77474
 Alpha virt. eigenvalues --    2.78139   2.78753   2.79324   2.79906   2.80332
 Alpha virt. eigenvalues --    2.80770   2.81250   2.81532   2.82312   2.82465
 Alpha virt. eigenvalues --    2.82903   2.83360   2.83685   2.84470   2.84909
 Alpha virt. eigenvalues --    2.85563   2.85842   2.86669   2.87641   2.88068
 Alpha virt. eigenvalues --    2.88521   2.89102   2.89258   2.89544   2.90173
 Alpha virt. eigenvalues --    2.90947   2.91532   2.92441   2.92797   2.93343
 Alpha virt. eigenvalues --    2.93772   2.94228   2.94929   2.95189   2.95957
 Alpha virt. eigenvalues --    2.97645   2.97865   2.97983   2.98413   2.98919
 Alpha virt. eigenvalues --    2.99025   3.00056   3.00305   3.00793   3.01483
 Alpha virt. eigenvalues --    3.02366   3.02745   3.03278   3.03498   3.03965
 Alpha virt. eigenvalues --    3.04327   3.04647   3.05121   3.05806   3.06308
 Alpha virt. eigenvalues --    3.06745   3.07093   3.07783   3.08373   3.08600
 Alpha virt. eigenvalues --    3.08930   3.09658   3.10174   3.10559   3.11143
 Alpha virt. eigenvalues --    3.11800   3.12214   3.12448   3.12941   3.13611
 Alpha virt. eigenvalues --    3.13735   3.14167   3.15754   3.15943   3.16910
 Alpha virt. eigenvalues --    3.17079   3.17222   3.17840   3.18105   3.18261
 Alpha virt. eigenvalues --    3.19077   3.19709   3.20057   3.20900   3.21352
 Alpha virt. eigenvalues --    3.21684   3.22243   3.23072   3.23734   3.23909
 Alpha virt. eigenvalues --    3.23944   3.24430   3.24859   3.25130   3.25448
 Alpha virt. eigenvalues --    3.26050   3.26692   3.26832   3.27190   3.27970
 Alpha virt. eigenvalues --    3.28267   3.28745   3.29300   3.29586   3.30025
 Alpha virt. eigenvalues --    3.30354   3.30706   3.31508   3.31994   3.32176
 Alpha virt. eigenvalues --    3.32691   3.33184   3.33591   3.34585   3.35068
 Alpha virt. eigenvalues --    3.35458   3.35785   3.35937   3.36750   3.37014
 Alpha virt. eigenvalues --    3.37733   3.38051   3.38347   3.38538   3.39624
 Alpha virt. eigenvalues --    3.39760   3.40302   3.40507   3.40921   3.41035
 Alpha virt. eigenvalues --    3.42092   3.42433   3.43123   3.43266   3.43692
 Alpha virt. eigenvalues --    3.43892   3.44226   3.44771   3.45093   3.45336
 Alpha virt. eigenvalues --    3.45568   3.45883   3.46282   3.46535   3.47954
 Alpha virt. eigenvalues --    3.48242   3.49296   3.49759   3.49848   3.51379
 Alpha virt. eigenvalues --    3.51531   3.52226   3.52361   3.53168   3.53958
 Alpha virt. eigenvalues --    3.54863   3.55814   3.56489   3.56822   3.57626
 Alpha virt. eigenvalues --    3.58542   3.59032   3.59160   3.59717   3.60469
 Alpha virt. eigenvalues --    3.61651   3.62111   3.63053   3.63925   3.64380
 Alpha virt. eigenvalues --    3.64900   3.66735   3.67674   3.68191   3.69058
 Alpha virt. eigenvalues --    3.69974   3.70693   3.71151   3.72017   3.72872
 Alpha virt. eigenvalues --    3.74374   3.75513   3.77691   3.78628   3.78903
 Alpha virt. eigenvalues --    3.80061   3.80159   3.80804   3.81309   3.81868
 Alpha virt. eigenvalues --    3.82839   3.84870   3.85156   3.86296   3.87054
 Alpha virt. eigenvalues --    3.87968   3.89050   3.90544   3.91265   3.92225
 Alpha virt. eigenvalues --    3.92377   3.93120   3.94378   3.94726   3.96871
 Alpha virt. eigenvalues --    3.97547   3.97715   3.98826   3.99543   4.00185
 Alpha virt. eigenvalues --    4.00436   4.01154   4.01817   4.02942   4.04198
 Alpha virt. eigenvalues --    4.04984   4.05342   4.06020   4.06644   4.06848
 Alpha virt. eigenvalues --    4.06996   4.08085   4.08632   4.09729   4.09939
 Alpha virt. eigenvalues --    4.11088   4.11238   4.11976   4.12518   4.12610
 Alpha virt. eigenvalues --    4.12874   4.13594   4.14217   4.14692   4.14884
 Alpha virt. eigenvalues --    4.15035   4.15569   4.16391   4.17833   4.17974
 Alpha virt. eigenvalues --    4.18513   4.19309   4.19770   4.20309   4.21638
 Alpha virt. eigenvalues --    4.22443   4.23044   4.24738   4.25941   4.26627
 Alpha virt. eigenvalues --    4.27243   4.28346   4.29172   4.31716   4.32456
 Alpha virt. eigenvalues --    4.33630   4.34043   4.34665   4.36215   4.37074
 Alpha virt. eigenvalues --    4.40231   4.41458   4.42198   4.43365   4.43875
 Alpha virt. eigenvalues --    4.45703   4.45878   4.48153   4.48721   4.50287
 Alpha virt. eigenvalues --    4.51896   4.52081   4.52798   4.54300   4.54772
 Alpha virt. eigenvalues --    4.55804   4.56636   4.59224   4.60238   4.61999
 Alpha virt. eigenvalues --    4.63340   4.64700   4.65488   4.68232   4.69025
 Alpha virt. eigenvalues --    4.70997   4.71232   4.73183   4.75125   4.76265
 Alpha virt. eigenvalues --    4.77420   4.77993   4.79381   4.81557   4.84225
 Alpha virt. eigenvalues --    4.85182   4.86035   4.87126   4.88821   4.91291
 Alpha virt. eigenvalues --    4.91762   4.94033   4.95995   4.98794   5.01516
 Alpha virt. eigenvalues --    5.02463   5.05520   5.06510   5.07313   5.09024
 Alpha virt. eigenvalues --    5.11027   5.12221   5.13017   5.14514   5.15107
 Alpha virt. eigenvalues --    5.18407   5.19188   5.21909   5.23480   5.25009
 Alpha virt. eigenvalues --    5.26325   5.32196   5.33200   5.35958   5.36819
 Alpha virt. eigenvalues --    5.38764   5.44029   5.44773   5.47080   5.47376
 Alpha virt. eigenvalues --    5.50470   5.53552   5.59458   5.61092   5.64746
 Alpha virt. eigenvalues --    5.65428   5.66002   5.73481   5.74994   5.76230
 Alpha virt. eigenvalues --    5.86849   5.92187   5.99355   6.13214   6.21979
 Alpha virt. eigenvalues --    6.31304   6.38405   6.49800   6.64893   6.71167
 Alpha virt. eigenvalues --    6.75221   6.77662   6.78004   6.78084   6.78128
 Alpha virt. eigenvalues --    6.78366   6.78782   6.79528   6.80034   6.87883
 Alpha virt. eigenvalues --    6.89316   6.90289   6.94569   6.95738   6.95855
 Alpha virt. eigenvalues --    7.02688   7.10320   7.11793   7.13464   7.15544
 Alpha virt. eigenvalues --    7.24394   7.25618   7.28101   8.22366   8.23585
 Alpha virt. eigenvalues --    8.25941   8.36601   8.38285   8.42771   8.63570
 Alpha virt. eigenvalues --    8.65058   8.65433   8.69331   8.73029   8.77078
 Alpha virt. eigenvalues --    8.79105   8.83146   8.84597  15.29550  22.02117
 Alpha virt. eigenvalues --   22.03734  22.06002  22.16361  22.21754  22.34429
 Alpha virt. eigenvalues --   22.36352  22.37035  22.37550  22.40073  22.42664
 Alpha virt. eigenvalues --   22.43517  22.46471  22.50431  22.53996  22.59915
 Alpha virt. eigenvalues --   22.62680  22.64475  22.66509  22.73255  22.84032
 Alpha virt. eigenvalues --   22.93018  23.02756  23.09486  23.12611  23.46928
 Alpha virt. eigenvalues --   32.99613  43.81124  56.65603  56.71078  56.84931
          Condensed to atoms (all electrons):
 Mulliken charges:
               1
     1  C   -0.124458
     2  C   -0.165721
     3  C    0.050939
     4  C    0.122014
     5  C   -0.216329
     6  C   -0.123694
     7  C    0.328748
     8  C    0.087663
     9  C    0.080512
    10  C   -0.175197
    11  H    0.167483
    12  C   -0.115100
    13  C   -0.138125
    14  C   -0.201328
    15  H    0.158060
    16  H    0.167168
    17  H    0.160372
    18  H    0.153547
    19  H    0.158714
    20  H    0.153936
    21  H    0.164076
    22  N    0.339781
    23  C   -0.117722
    24  C   -0.097183
    25  C   -0.249338
    26  C   -0.212826
    27  C   -0.135160
    28  C   -0.154730
    29  H    0.141458
    30  H    0.131688
    31  C    0.001391
    32  C   -0.210021
    33  C   -0.180456
    34  C   -0.240717
    35  H    0.152369
    36  C   -0.208136
    37  H    0.145571
    38  C    0.327905
    39  H    0.158216
    40  H    0.132969
    41  O   -0.203759
    42  C   -0.258474
    43  H    0.162793
    44  H    0.152194
    45  H    0.152054
    46  H    0.138293
    47  H    0.132137
    48  F   -0.392117
    49  F   -0.386248
    50  F   -0.387824
    51  B    0.472611
 Sum of Mulliken charges =  -0.00000
 Mulliken charges with hydrogens summed into heavy atoms:
               1
     1  C    0.033601
     2  C    0.001447
     3  C    0.050939
     4  C    0.122014
     5  C   -0.055957
     6  C    0.029853
     7  C    0.328748
     8  C    0.087663
     9  C    0.080512
    10  C   -0.007714
    12  C    0.043613
    13  C    0.015811
    14  C   -0.037252
    22  N    0.339781
    23  C   -0.117722
    24  C   -0.097183
    25  C   -0.117650
    26  C   -0.080689
    27  C    0.006298
    28  C   -0.016437
    31  C    0.001391
    32  C   -0.057651
    33  C   -0.034884
    34  C   -0.082501
    36  C   -0.075167
    38  C    0.327905
    41  O   -0.203759
    42  C    0.208567
    48  F   -0.392117
    49  F   -0.386248
    50  F   -0.387824
    51  B    0.472611
 Electronic spatial extent (au):  <R**2>=          14394.5376
 Charge=              0.0000 electrons
 Dipole moment (field-independent basis, Debye):
    X=             17.8196    Y=              3.6469    Z=             -9.8389  Tot=             20.6796
 Quadrupole moment (field-independent basis, Debye-Ang):
   XX=           -169.3045   YY=           -158.1846   ZZ=           -196.0163
   XY=            -13.7033   XZ=             47.6539   YZ=              8.6082
 Traceless Quadrupole moment (field-independent basis, Debye-Ang):
   XX=              5.1973   YY=             16.3172   ZZ=            -21.5145
   XY=            -13.7033   XZ=             47.6539   YZ=              8.6082
 Octapole moment (field-independent basis, Debye-Ang**2):
  XXX=            358.0722  YYY=             14.2270  ZZZ=            -32.6464  XYY=             26.2215
  XXY=             19.1294  XXZ=            -21.0018  XZZ=            112.0557  YZZ=              9.9160
  YYZ=            -12.3577  XYZ=            -22.0619
 Hexadecapole moment (field-independent basis, Debye-Ang**3):
 XXXX=         -12015.9669 YYYY=          -2667.2862 ZZZZ=          -1862.6143 XXXY=           -253.8436
 XXXZ=           1146.9533 YYYX=              3.3457 YYYZ=            146.6092 ZZZX=            179.3686
 ZZZY=            -40.8987 XXYY=          -2963.9170 XXZZ=          -2653.0504 YYZZ=           -896.7023
 XXYZ=            -20.7051 YYXZ=             24.3665 ZZXY=            -63.5745
 N-N= 3.090149427006D+03 E-N=-9.584742874923D+03  KE= 1.449097754741D+03
 Leave Link  601 at Sat Mar 27 11:52:29 2021, MaxMem=  5242880000 cpu:         6.0
 (Enter /opt/nce/packages/global/g09/l9999.exe)
 1\1\GINC-CN031\SP\RPBEPBE TD-FC\Gen\C26H19B1F3N1O1\PNG4RJV\27-Mar-2021
 \0\\#p PBEPBE chkbasis geom=allcheck Guess=Read int=ultrafine scrf=(SM
 D,solvent=Acetonitrile) td=(NStates=30) EmpiricalDispersion=GD3BJ\\Tit
 le\\0,1\C,0,-0.4225262984,3.280385254,-1.3714029729\C,0,-1.1282400484,
 2.1475377215,-1.0237655762\C,0,-0.4323297122,0.9668532935,-0.676856306
 4\C,0,1.0027014785,0.9593352089,-0.6759382242\C,0,1.6867416397,2.15152
 85111,-1.0510663539\C,0,0.992521407,3.2868644523,-1.3922583403\C,0,1.6
 977724446,-0.2155390933,-0.3149521724\C,0,0.9643637675,-1.3805057401,0
 .0021908486\C,0,-0.4696227922,-1.3468605617,-0.0163696641\C,0,-1.20401
 72572,-2.5105050344,0.3090373208\H,0,-2.2917205952,-2.4871579497,0.291
 5030674\C,0,-0.5365461757,-3.6684741034,0.6491686728\C,0,0.8772390873,
 -3.7161016071,0.6875704964\C,0,1.6082735996,-2.595807002,0.3731625562\
 H,0,-0.9702619267,4.1853530311,-1.6392478182\H,0,-2.2162609774,2.15650
 33764,-1.018089873\H,0,2.775697462,2.1402307437,-1.0607732353\H,0,1.52
 69257053,4.1933392334,-1.6784171964\H,0,-1.1136199127,-4.5604303422,0.
 8982342865\H,0,1.3817597487,-4.6404183582,0.9709657281\H,0,2.696981882
 8,-2.6147672201,0.4063941558\N,0,-1.1172134551,-0.1779191686,-0.342755
 9369\C,0,3.1849407121,-0.2408868652,-0.3168622127\C,0,3.9361694727,0.2
 852690688,0.7590041739\C,0,3.8127667005,-0.8098138624,-1.4379795814\C,
 0,5.3363040561,0.213113289,0.6417579232\C,0,5.2041653705,-0.8532073297
 ,-1.5213878864\C,0,5.970685145,-0.3377463913,-0.4739034229\H,0,5.68321
 0005,-1.2914682026,-2.3990230172\H,0,3.2026148569,-1.2134655879,-2.248
 9843473\C,0,-2.5667253057,-0.1519079697,-0.3333671449\C,0,-3.237076349
 3,0.1915202939,0.8364547827\C,0,-3.2697372306,-0.4724131103,-1.4974507
 046\C,0,-4.6324738957,0.2177766792,0.8562030732\H,0,-2.6697963914,0.43
 93911841,1.7350403961\C,0,-4.6580814793,-0.4486408521,-1.4843651686\H,
 0,-2.7272454806,-0.7387194856,-2.4058365048\C,0,-5.3494330821,-0.10436
 46582,-0.3078826081\H,0,-5.1479605668,0.4880242477,1.7762123153\H,0,-5
 .2280135772,-0.6961589152,-2.3810753523\O,0,-6.7039471511,-0.111086126
 2,-0.3933644707\C,0,-7.4461054693,0.23033646,0.7870793201\H,0,-8.50207
 93506,0.1598536598,0.5026924144\H,0,-7.2368241767,-0.4755043198,1.6061
 530677\H,0,-7.2201915289,1.2569934817,1.115536949\H,0,7.0612861919,-0.
 3703731389,-0.5245723966\H,0,5.9475614721,0.5990210058,1.4615702625\F,
 0,4.1436868426,0.8081177873,3.2161971659\F,0,2.0144389345,0.3778184317
 ,2.4253153021\F,0,3.0673518565,2.3713039027,1.8977525757\B,0,3.2778823
 473,0.9624726785,2.0854076342\\Version=ES64L-G09RevE.01\State=1-A\HF=-
 1455.6613184\RMSD=4.837e-09\PG=C01 [X(C26H19B1F3N1O1)]\\@


 GARBAGE IN, GARBAGE OUT
 Job cpu time:       1 days 15 hours  1 minutes  3.0 seconds.
 File lengths (MBytes):  RWF=   4886 Int=      0 D2E=      0 Chk=   1099 Scr=      1
 Normal termination of Gaussian 09 at Sat Mar 27 11:52:30 2021.
