
                                 *****************
                                 * O   R   C   A *
                                 *****************

                                            #,                                       
                                            ###                                      
                                            ####                                     
                                            #####                                    
                                            ######                                   
                                           ########,                                 
                                     ,,################,,,,,                         
                               ,,#################################,,                 
                          ,,##########################################,,             
                       ,#########################################, ''#####,          
                    ,#############################################,,   '####,        
                  ,##################################################,,,,####,       
                ,###########''''           ''''###############################       
              ,#####''   ,,,,##########,,,,          '''####'''          '####       
            ,##' ,,,,###########################,,,                        '##       
           ' ,,###''''                  '''############,,,                           
         ,,##''                                '''############,,,,        ,,,,,,###''
      ,#''                                            '''#######################'''  
     '                                                          ''''####''''         
             ,#######,   #######,   ,#######,      ##                                
            ,#'     '#,  ##    ##  ,#'     '#,    #''#        ######   ,####,        
            ##       ##  ##   ,#'  ##            #'  '#       #        #'  '#        
            ##       ##  #######   ##           ,######,      #####,   #    #        
            '#,     ,#'  ##    ##  '#,     ,#' ,#      #,         ##   #,  ,#        
             '#######'   ##     ##  '#######'  #'      '#     #####' # '####'        



                  #######################################################
                  #                        -***-                        #
                  #          Department of theory and spectroscopy      #
                  #    Directorship and core code : Frank Neese         #
                  #        Max Planck Institute fuer Kohlenforschung    #
                  #                Kaiser Wilhelm Platz 1               #
                  #                 D-45470 Muelheim/Ruhr               #
                  #                      Germany                        #
                  #                                                     #
                  #                  All rights reserved                #
                  #                        -***-                        #
                  #######################################################


                         Program Version 5.0.2 -  RELEASE  -


 With contributions from (in alphabetic order):
   Daniel Aravena         : Magnetic Suceptibility
   Michael Atanasov       : Ab Initio Ligand Field Theory (pilot matlab implementation)
   Alexander A. Auer      : GIAO ZORA, VPT2 properties, NMR spectrum
   Ute Becker             : Parallelization
   Giovanni Bistoni       : ED, misc. LED, open-shell LED, HFLD
   Martin Brehm           : Molecular dynamics
   Dmytro Bykov           : SCF Hessian
   Vijay G. Chilkuri      : MRCI spin determinant printing, contributions to CSF-ICE
   Dipayan Datta          : RHF DLPNO-CCSD density
   Achintya Kumar Dutta   : EOM-CC, STEOM-CC
   Dmitry Ganyushin       : Spin-Orbit,Spin-Spin,Magnetic field MRCI
   Miquel Garcia          : C-PCM and meta-GGA Hessian, CC/C-PCM, Gaussian charge scheme
   Yang Guo               : DLPNO-NEVPT2, F12-NEVPT2, CIM, IAO-localization
   Andreas Hansen         : Spin unrestricted coupled pair/coupled cluster methods
   Benjamin Helmich-Paris : MC-RPA, TRAH-SCF, COSX integrals
   Lee Huntington         : MR-EOM, pCC
   Robert Izsak           : Overlap fitted RIJCOSX, COSX-SCS-MP3, EOM
   Marcus Kettner         : VPT2
   Christian Kollmar      : KDIIS, OOCD, Brueckner-CCSD(T), CCSD density, CASPT2, CASPT2-K
   Simone Kossmann        : Meta GGA functionals, TD-DFT gradient, OOMP2, MP2 Hessian
   Martin Krupicka        : Initial AUTO-CI
   Lucas Lang             : DCDCAS
   Marvin Lechner         : AUTO-CI (C++ implementation), FIC-MRCC
   Dagmar Lenk            : GEPOL surface, SMD
   Dimitrios Liakos       : Extrapolation schemes; Compound Job, initial MDCI parallelization
   Dimitrios Manganas     : Further ROCIS development; embedding schemes
   Dimitrios Pantazis     : SARC Basis sets
   Anastasios Papadopoulos: AUTO-CI, single reference methods and gradients
   Taras Petrenko         : DFT Hessian,TD-DFT gradient, ASA, ECA, R-Raman, ABS, FL, XAS/XES, NRVS
   Peter Pinski           : DLPNO-MP2, DLPNO-MP2 Gradient
   Christoph Reimann      : Effective Core Potentials
   Marius Retegan         : Local ZFS, SOC
   Christoph Riplinger    : Optimizer, TS searches, QM/MM, DLPNO-CCSD(T), (RO)-DLPNO pert. Triples
   Tobias Risthaus        : Range-separated hybrids, TD-DFT gradient, RPA, STAB
   Michael Roemelt        : Original ROCIS implementation
   Masaaki Saitow         : Open-shell DLPNO-CCSD energy and density
   Barbara Sandhoefer     : DKH picture change effects
   Avijit Sen             : IP-ROCIS
   Kantharuban Sivalingam : CASSCF convergence, NEVPT2, FIC-MRCI
   Bernardo de Souza      : ESD, SOC TD-DFT
   Georgi Stoychev        : AutoAux, RI-MP2 NMR, DLPNO-MP2 response
   Willem Van den Heuvel  : Paramagnetic NMR
   Boris Wezisla          : Elementary symmetry handling
   Frank Wennmohs         : Technical directorship


 We gratefully acknowledge several colleagues who have allowed us to
 interface, adapt or use parts of their codes:
   Stefan Grimme, W. Hujo, H. Kruse, P. Pracht,  : VdW corrections, initial TS optimization,
                  C. Bannwarth, S. Ehlert          DFT functionals, gCP, sTDA/sTD-DF
   Ed Valeev, F. Pavosevic, A. Kumar             : LibInt (2-el integral package), F12 methods
   Garnet Chan, S. Sharma, J. Yang, R. Olivares  : DMRG
   Ulf Ekstrom                                   : XCFun DFT Library
   Mihaly Kallay                                 : mrcc  (arbitrary order and MRCC methods)
   Jiri Pittner, Ondrej Demel                    : Mk-CCSD
   Frank Weinhold                                : gennbo (NPA and NBO analysis)
   Christopher J. Cramer and Donald G. Truhlar   : smd solvation model
   Lars Goerigk                                  : TD-DFT with DH, B97 family of functionals
   V. Asgeirsson, H. Jonsson                     : NEB implementation
   FAccTs GmbH                                   : IRC, NEB, NEB-TS, DLPNO-Multilevel, CI-OPT
                                                   MM, QMMM, 2- and 3-layer-ONIOM, Crystal-QMMM,
                                                   LR-CPCM, SF, NACMEs, symmetry and pop. for TD-DFT,
                                                   nearIR, NL-DFT gradient (VV10), updates on ESD,
                                                   ML-optimized integration grids
   S Lehtola, MJT Oliveira, MAL Marques          : LibXC Library
   Liviu Ungur et al                             : ANISO software


 Your calculation uses the libint2 library for the computation of 2-el integrals
 For citations please refer to: http://libint.valeyev.net

 Your ORCA version has been built with support for libXC version: 5.1.0
 For citations please refer to: https://tddft.org/programs/libxc/

 This ORCA versions uses:
   CBLAS   interface :  Fast vector & matrix operations
   LAPACKE interface :  Fast linear algebra routines
   SCALAPACK package :  Parallel linear algebra routines
   Shared memory     :  Shared parallel matrices
   BLAS/LAPACK       :  OpenBLAS 0.3.15  USE64BITINT DYNAMIC_ARCH NO_AFFINITY Zen SINGLE_THREADED
        Core in use  :  Zen
   Copyright (c) 2011-2014, The OpenBLAS Project


Your calculation utilizes the atom-pairwise dispersion correction
with the Becke-Johnson damping scheme (D3BJ)
Cite in your paper:
S.Grimme, S.Ehrlich, L.Goerigk, J Comput Chem, (2011), 32, 1456–1465 
S.Grimme, J.Antony, S.Ehrlich and H.Krieg, J.Chem.Phys., 132, (2010), 154104 
   

Your calculation utilizes the SMD solvation module
Please cite in your paper:
A.V. Marenich, C.J. Cramer, D.G. Truhlar J. Phys. Chem. B, 113, (2009), 6378 

================================================================================

----- Orbital basis set information -----
Your calculation utilizes the basis: def2-TZVP
   F. Weigend and R. Ahlrichs, Phys. Chem. Chem. Phys. 7, 3297 (2005).

----- AuxJ basis set information -----
Your calculation utilizes the auxiliary basis: def2/J
   F. Weigend, Phys. Chem. Chem. Phys. 8, 1057 (2006).

----- AuxC basis set information -----
Your calculation utilizes the auxiliary basis: def2-TZVP/C
  H-La, Hf-Rn : A. Hellweg, C. Hattig, S. Hofener and W. Klopper, Theor. Chem. Acc. 117, 587 (2007).
        Ce-Lu : J. Chmela and M. E. Harding, Mol. Phys. (2018).

================================================================================
                                        WARNINGS
                       Please study these warnings very carefully!
================================================================================

INFO   : Checking CIS options ...
  ===> : (D) CORRECTION FOUND - SETTING MODE=3
  ===> : JK MODE FOUND - ACTIVATING RI-MP2 CODE
  ===> : MP2 AND CIS FOUND - CHECKING
WARNING: CIS(D) and MP2 runs must have the same orbital window
  ===> : adjusting orbital windows

WARNING: No MP2 level density has been requested!
         To caclulate MP2 level properties use
         %mp2 Density relaxed end
         or
         %mp2 Density unrelaxed end
         Otherwise for double-hybrid DFT only the energy is correct!

WARNING: The frozen-core approximation is turned on by default for 
         the MP2 part of double-hybrid DFT.

WARNING: CIS/ROCIS methods need fully converged wavefunctions
  ===> : Setting SCFConvForced true
         You can overwrite this default with %scf ConvForced false 


INFO   : the flag for use of the SHARK integral package has been found!

================================================================================
                                       INPUT FILE
================================================================================
NAME = BF3-Acr_o_M06L_def2TZVP_coords.inp
|  1> %maxcore 3200
|  2> %pal
|  3>  nprocs= 8
|  4> end
|  5> ! RI-B2PLYP D3BJ def2-TZVP def2/J def2-TZVP/C RIJCOSX CPCM TightSCF
|  6> %TDDFT DCORR 4
|  7>    NROOTS   30
|  8> 
|  9>    TDA      FALSE
| 10> END
| 11> 
| 12> %CPCM
| 13>    SMD          TRUE
| 14>    SMDsolvent   "ACETONITRILE"
| 15> END
| 16>    
| 17> 
| 18> * xyz 0 1
| 19> C                   0.51206600   -3.37733400   -1.08785000
| 20> C                   1.22884200   -2.24509400   -0.80828200
| 21> C                   0.56165000   -1.02126100   -0.62618200
| 22> C                  -0.86012500   -0.97150600   -0.72114200
| 23> C                  -1.55487400   -2.16935100   -1.02289900
| 24> C                  -0.88833900   -3.34503000   -1.20246900
| 25> C                  -1.53090900    0.24740000   -0.52851900
| 26> C                  -0.78141900    1.40992600   -0.28087600
| 27> C                   0.63912100    1.33324000   -0.19816900
| 28> C                   1.38499600    2.49658800    0.06127700
| 29> H                   2.46163100    2.44273000    0.12000400
| 30> C                   0.74379800    3.69248600    0.24122900
| 31> C                  -0.65728900    3.78443900    0.18150400
| 32> C                  -1.39859100    2.66788800   -0.07049500
| 33> H                   1.03930600   -4.31217200   -1.22804700
| 34> H                   2.30474700   -2.28755300   -0.73063500
| 35> H                  -2.63192200   -2.12927900   -1.10706600
| 36> H                  -1.43132400   -4.25120600   -1.43393000
| 37> H                   1.33083600    4.57974000    0.44021300
| 38> H                  -1.14245800    4.73770200    0.34109200
| 39> H                  -2.47777800    2.72265700   -0.10929600
| 40> N                   1.26196200    0.12497200   -0.36242300
| 41> C                  -3.00776800    0.31074400   -0.62103700
| 42> C                  -3.82181400   -0.15021500    0.42765100
| 43> C                  -3.56027400    0.83683500   -1.79011500
| 44> C                  -5.20240200   -0.06342300    0.23014100
| 45> C                  -4.93460200    0.89491100   -1.95198700
| 46> C                  -5.76094300    0.43989300   -0.93537400
| 47> H                  -5.35402100    1.29720800   -2.86561400
| 48> H                  -2.90505900    1.19394500   -2.57652000
| 49> C                   2.70265600    0.05760100   -0.25217100
| 50> C                   3.28025100   -0.19015900    0.97867200
| 51> C                   3.48695300    0.24302400   -1.38238600
| 52> C                   4.66028500   -0.25514900    1.09451600
| 53> H                   2.65201400   -0.33305300    1.84897100
| 54> C                   4.86021200    0.18008400   -1.27363300
| 55> H                   3.01789800    0.43581500   -2.33896500
| 56> C                   5.45675800   -0.06886300   -0.03470800
| 57> H                   5.10417100   -0.44952000    2.05997400
| 58> H                   5.49135800    0.32230000   -2.14088200
| 59> O                   6.80413200   -0.11088500   -0.02720000
| 60> C                   7.44922400   -0.35785200    1.21347900
| 61> H                   8.51558400   -0.34820700    1.00662500
| 62> H                   7.21769000    0.41868800    1.94580100
| 63> H                   7.17066500   -1.33185700    1.62181200
| 64> H                  -6.83742600    0.48487900   -1.04899900
| 65> H                  -5.85834500   -0.39893200    1.02651800
| 66> F                  -4.15577500   -0.52196500    2.87376400
| 67> F                  -2.00974900   -0.14579500    2.17298200
| 68> F                  -3.02919000   -2.14709500    1.73288700
| 69> B                  -3.24534100   -0.74537200    1.81315300
| 70> *
| 71> 
| 72> 
| 73>                          ****END OF INPUT****
================================================================================

                       ****************************
                       * Single Point Calculation *
                       ****************************

---------------------------------
CARTESIAN COORDINATES (ANGSTROEM)
---------------------------------
  C      0.512066   -3.377334   -1.087850
  C      1.228842   -2.245094   -0.808282
  C      0.561650   -1.021261   -0.626182
  C     -0.860125   -0.971506   -0.721142
  C     -1.554874   -2.169351   -1.022899
  C     -0.888339   -3.345030   -1.202469
  C     -1.530909    0.247400   -0.528519
  C     -0.781419    1.409926   -0.280876
  C      0.639121    1.333240   -0.198169
  C      1.384996    2.496588    0.061277
  H      2.461631    2.442730    0.120004
  C      0.743798    3.692486    0.241229
  C     -0.657289    3.784439    0.181504
  C     -1.398591    2.667888   -0.070495
  H      1.039306   -4.312172   -1.228047
  H      2.304747   -2.287553   -0.730635
  H     -2.631922   -2.129279   -1.107066
  H     -1.431324   -4.251206   -1.433930
  H      1.330836    4.579740    0.440213
  H     -1.142458    4.737702    0.341092
  H     -2.477778    2.722657   -0.109296
  N      1.261962    0.124972   -0.362423
  C     -3.007768    0.310744   -0.621037
  C     -3.821814   -0.150215    0.427651
  C     -3.560274    0.836835   -1.790115
  C     -5.202402   -0.063423    0.230141
  C     -4.934602    0.894911   -1.951987
  C     -5.760943    0.439893   -0.935374
  H     -5.354021    1.297208   -2.865614
  H     -2.905059    1.193945   -2.576520
  C      2.702656    0.057601   -0.252171
  C      3.280251   -0.190159    0.978672
  C      3.486953    0.243024   -1.382386
  C      4.660285   -0.255149    1.094516
  H      2.652014   -0.333053    1.848971
  C      4.860212    0.180084   -1.273633
  H      3.017898    0.435815   -2.338965
  C      5.456758   -0.068863   -0.034708
  H      5.104171   -0.449520    2.059974
  H      5.491358    0.322300   -2.140882
  O      6.804132   -0.110885   -0.027200
  C      7.449224   -0.357852    1.213479
  H      8.515584   -0.348207    1.006625
  H      7.217690    0.418688    1.945801
  H      7.170665   -1.331857    1.621812
  H     -6.837426    0.484879   -1.048999
  H     -5.858345   -0.398932    1.026518
  F     -4.155775   -0.521965    2.873764
  F     -2.009749   -0.145795    2.172982
  F     -3.029190   -2.147095    1.732887
  B     -3.245341   -0.745372    1.813153

----------------------------
CARTESIAN COORDINATES (A.U.)
----------------------------
  NO LB      ZA    FRAG     MASS         X           Y           Z
   0 C     6.0000    0    12.011    0.967665   -6.382236   -2.055739
   1 C     6.0000    0    12.011    2.322175   -4.242613   -1.527432
   2 C     6.0000    0    12.011    1.061365   -1.929904   -1.183312
   3 C     6.0000    0    12.011   -1.625401   -1.835880   -1.362761
   4 C     6.0000    0    12.011   -2.938286   -4.099479   -1.932999
   5 C     6.0000    0    12.011   -1.678717   -6.321191   -2.272337
   6 C     6.0000    0    12.011   -2.892999    0.467518   -0.998756
   7 C     6.0000    0    12.011   -1.476668    2.664374   -0.530779
   8 C     6.0000    0    12.011    1.207764    2.519458   -0.374485
   9 C     6.0000    0    12.011    2.617263    4.717868    0.115797
  10 H     1.0000    0     1.008    4.651808    4.616091    0.226775
  11 C     6.0000    0    12.011    1.405575    6.977787    0.455857
  12 C     6.0000    0    12.011   -1.242096    7.151553    0.342993
  13 C     6.0000    0    12.011   -2.642954    5.041578   -0.133216
  14 H     1.0000    0     1.008    1.964004   -8.148824   -2.320673
  15 H     1.0000    0     1.008    4.355341   -4.322849   -1.380700
  16 H     1.0000    0     1.008   -4.973612   -4.023754   -2.092052
  17 H     1.0000    0     1.008   -2.704810   -8.033615   -2.709735
  18 H     1.0000    0     1.008    2.514916    8.654454    0.831882
  19 H     1.0000    0     1.008   -2.158933    8.952959    0.644570
  20 H     1.0000    0     1.008   -4.682322    5.145076   -0.206540
  21 N     7.0000    0    14.007    2.384763    0.236163   -0.684880
  22 C     6.0000    0    12.011   -5.683858    0.587221   -1.173590
  23 C     6.0000    0    12.011   -7.222182   -0.283865    0.808143
  24 C     6.0000    0    12.011   -6.727943    1.581389   -3.382827
  25 C     6.0000    0    12.011   -9.831115   -0.119852    0.434903
  26 C     6.0000    0    12.011   -9.325046    1.691137   -3.688721
  27 C     6.0000    0    12.011  -10.886605    0.831277   -1.767601
  28 H     1.0000    0     1.008  -10.117633    2.451368   -5.415226
  29 H     1.0000    0     1.008   -5.489766    2.256229   -4.868917
  30 C     6.0000    0    12.011    5.107280    0.108850   -0.476534
  31 C     6.0000    0    12.011    6.198776   -0.359348    1.849422
  32 C     6.0000    0    12.011    6.589386    0.459249   -2.612331
  33 C     6.0000    0    12.011    8.806662   -0.482162    2.068335
  34 H     1.0000    0     1.008    5.011580   -0.629379    3.494049
  35 C     6.0000    0    12.011    9.184470    0.340309   -2.406818
  36 H     1.0000    0     1.008    5.703001    0.823571   -4.420003
  37 C     6.0000    0    12.011   10.311778   -0.130132   -0.065589
  38 H     1.0000    0     1.008    9.645485   -0.849470    3.892787
  39 H     1.0000    0     1.008   10.377163    0.609059   -4.045681
  40 O     8.0000    0    15.999   12.857946   -0.209542   -0.051401
  41 C     6.0000    0    12.011   14.076993   -0.676242    2.293143
  42 H     1.0000    0     1.008   16.092122   -0.658016    1.902246
  43 H     1.0000    0     1.008   13.639457    0.791206    3.677031
  44 H     1.0000    0     1.008   13.550593   -2.516845    3.064781
  45 H     1.0000    0     1.008  -12.920863    0.916289   -1.982321
  46 H     1.0000    0     1.008  -11.070668   -0.753872    1.939838
  47 F     9.0000    0    18.998   -7.853277   -0.986371    5.430627
  48 F     9.0000    0    18.998   -3.797875   -0.275513    4.106341
  49 F     9.0000    0    18.998   -5.724340   -4.057422    3.274682
  50 B     5.0000    0    10.810   -6.132806   -1.408549    3.426363

--------------------------------
INTERNAL COORDINATES (ANGSTROEM)
--------------------------------
 C      0   0   0     0.000000000000     0.00000000     0.00000000
 C      1   0   0     1.368902304184     0.00000000     0.00000000
 C      2   1   0     1.405728560837   119.86951579     0.00000000
 C      3   2   1     1.425811036656   119.67193388     0.62361513
 C      4   3   2     1.417238901553   118.26251347   358.89322444
 C      5   4   3     1.363354466808   121.14669428     0.79978752
 C      4   3   2     1.404559230371   119.82641697   179.46001544
 C      7   4   3     1.405179353757   119.17000094     1.75968942
 C      8   7   4     1.425010555064   119.82883940   358.56995697
 C      9   8   7     1.406065543154   119.66909013   180.54935154
 H     10   9   8     1.079579764500   119.85349270   180.28378314
 C     10   9   8     1.368827828440   119.90891446     0.42024970
 C     12  10   9     1.405370844796   121.23687645     0.45555494
 C     13  12  10     1.363714884720   119.74991796   359.47353945
 H      1   2   3     1.082385930550   119.06234073   179.84810816
 H      2   1   3     1.079538508954   120.26563065   180.22290742
 H      5   4   3     1.081074578083   118.27052830   180.74783429
 H      6   5   4     1.081462827712   120.35100061   180.10046141
 H     12  10   9     1.082325231257   119.09783914   180.00051104
 H     13  12  10     1.081465503599   119.91114866   179.11480977
 H     14  13  12     1.081272279276   120.51080984   179.38207520
 N      3   2   1     1.368888526402   120.74001371   180.81740747
 C      7   4   3     1.481109229105   120.31502631   180.16680637
 C     23   7   4     1.405311570841   121.12851598    76.96967211
 C     23   7   4     1.395986386180   117.58574793   257.35653197
 C     24  23   7     1.397342576861   116.51724229   180.93926764
 C     25  23   7     1.385046142821   120.42403974   178.48980728
 C     27  25  23     1.386860779016   119.45878052     0.74840799
 H     27  25  23     1.082806293341   119.90323291   180.49885704
 H     25  23   7     1.084097353723   119.50019230   358.95733619
 C     22   3   2     1.446476255174   119.02772688   359.04350055
 C     31  22   3     1.382018629496   119.50492532   270.27662169
 C     31  22   3     1.388124425029   119.63449577    90.30837502
 C     32  31  22     1.386411689792   119.92285888   180.06785549
 H     32  31  22     1.082829983333   119.80093252     0.08552425
 C     33  31  22     1.378995627147   119.49492126   179.90803519
 H     33  31  22     1.082693098688   119.89234038   359.94339541
 C     34  32  31     1.394352378598   119.64695946     0.03135403
 H     34  32  31     1.080242572944   119.48105402   180.01912463
 H     36  33  31     1.081984977702   120.77608776   180.05137731
 O     38  34  32     1.348050041513   124.21167848   179.91554291
 C     41  38  34     1.420007312866   117.66801065   359.84154761
 H     42  41  38     1.086280466979   106.14306365   180.20955474
 H     42  41  38     1.092207799112   111.46083622   299.04725111
 H     42  41  38     1.092253036340   111.46089754    61.37213470
 H     28  27  25     1.083397447897   120.10129223   179.70417130
 H     26  24  23     1.084916510363   118.31963444   180.79885843
 F     24  23   7     2.496637102342   149.03215206    31.02372408
 F     48  24  23     2.288673605628    63.26274077   343.14358354
 F     48  24  23     2.282945818072    63.27941014   274.95918325
 B     48  24  23     1.415519851265    37.18916110   309.26415537

---------------------------
INTERNAL COORDINATES (A.U.)
---------------------------
 C      0   0   0     0.000000000000     0.00000000     0.00000000
 C      1   0   0     2.586850459001     0.00000000     0.00000000
 C      2   1   0     2.656441998613   119.86951579     0.00000000
 C      3   2   1     2.694392378002   119.67193388     0.62361513
 C      4   3   2     2.678193390274   118.26251347   358.89322444
 C      5   4   3     2.576366565726   121.14669428     0.79978752
 C      4   3   2     2.654232284273   119.82641697   179.46001544
 C      7   4   3     2.655404147641   119.17000094     1.75968942
 C      8   7   4     2.692879687019   119.82883940   358.56995697
 C      9   8   7     2.657078802904   119.66909013   180.54935154
 H     10   9   8     2.040110094628   119.85349270   180.28378314
 C     10   9   8     2.586709720242   119.90891446     0.42024970
 C     12  10   9     2.655766013262   121.23687645     0.45555494
 C     13  12  10     2.577047656872   119.74991796   359.47353945
 H      1   2   3     2.045412979949   119.06234073   179.84810816
 H      2   1   3     2.040032132945   120.26563065   180.22290742
 H      5   4   3     2.042934882921   118.27052830   180.74783429
 H      6   5   4     2.043668568391   120.35100061   180.10046141
 H     12  10   9     2.045298274909   119.09783914   180.00051104
 H     13  12  10     2.043673625085   119.91114866   179.11480977
 H     14  13  12     2.043308484033   120.51080984   179.38207520
 N      3   2   1     2.586824422766   120.74001371   180.81740747
 C      7   4   3     2.798890817432   120.31502631   180.16680637
 C     23   7   4     2.655654001721   121.12851598    76.96967211
 C     23   7   4     2.638031956563   117.58574793   257.35653197
 C     24  23   7     2.640594785535   116.51724229   180.93926764
 C     25  23   7     2.617357892776   120.42403974   178.48980728
 C     27  25  23     2.620787058218   119.45878052     0.74840799
 H     27  25  23     2.046207350501   119.90323291   180.49885704
 H     25  23   7     2.048647101046   119.50019230   358.95733619
 C     22   3   2     2.733443981498   119.02772688   359.04350055
 C     31  22   3     2.611636721725   119.50492532   270.27662169
 C     31  22   3     2.623175003112   119.63449577    90.30837502
 C     32  31  22     2.619938402574   119.92285888   180.06785549
 H     32  31  22     2.046252118099   119.80093252     0.08552425
 C     33  31  22     2.605924075182   119.49492126   179.90803519
 H     33  31  22     2.045993443607   119.89234038   359.94339541
 C     34  32  31     2.634944129731   119.64695946     0.03135403
 H     34  32  31     2.041362621067   119.48105402   180.01912463
 H     36  33  31     2.044655288874   120.77608776   180.05137731
 O     38  34  32     2.547445393281   124.21167848   179.91554291
 C     41  38  34     2.683424929483   117.66801065   359.84154761
 H     42  41  38     2.052772587219   106.14306365   180.20955474
 H     42  41  38     2.063973621654   111.46083622   299.04725111
 H     42  41  38     2.064059107627   111.46089754    61.37213470
 H     28  27  25     2.047324470715   120.10129223   179.70417130
 H     26  24  23     2.050195082756   118.31963444   180.79885843
 F     24  23   7     4.717960379213   149.03215206    31.02372408
 F     48  24  23     4.324966324572    63.26274077   343.14358354
 F     48  24  23     4.314142374738    63.27941014   274.95918325
 B     48  24  23     2.674944856020    37.18916110   309.26415537

---------------------
BASIS SET INFORMATION
---------------------
There are 6 groups of distinct atoms

 Group   1 Type C   : 11s6p2d1f contracted to 5s3p2d1f pattern {62111/411/11/1}
 Group   2 Type H   : 5s1p contracted to 3s1p pattern {311/1}
 Group   3 Type N   : 11s6p2d1f contracted to 5s3p2d1f pattern {62111/411/11/1}
 Group   4 Type O   : 11s6p2d1f contracted to 5s3p2d1f pattern {62111/411/11/1}
 Group   5 Type F   : 11s6p2d1f contracted to 5s3p2d1f pattern {62111/411/11/1}
 Group   6 Type B   : 11s6p2d1f contracted to 5s3p2d1f pattern {62111/411/11/1}

Atom   0C    basis set group =>   1
Atom   1C    basis set group =>   1
Atom   2C    basis set group =>   1
Atom   3C    basis set group =>   1
Atom   4C    basis set group =>   1
Atom   5C    basis set group =>   1
Atom   6C    basis set group =>   1
Atom   7C    basis set group =>   1
Atom   8C    basis set group =>   1
Atom   9C    basis set group =>   1
Atom  10H    basis set group =>   2
Atom  11C    basis set group =>   1
Atom  12C    basis set group =>   1
Atom  13C    basis set group =>   1
Atom  14H    basis set group =>   2
Atom  15H    basis set group =>   2
Atom  16H    basis set group =>   2
Atom  17H    basis set group =>   2
Atom  18H    basis set group =>   2
Atom  19H    basis set group =>   2
Atom  20H    basis set group =>   2
Atom  21N    basis set group =>   3
Atom  22C    basis set group =>   1
Atom  23C    basis set group =>   1
Atom  24C    basis set group =>   1
Atom  25C    basis set group =>   1
Atom  26C    basis set group =>   1
Atom  27C    basis set group =>   1
Atom  28H    basis set group =>   2
Atom  29H    basis set group =>   2
Atom  30C    basis set group =>   1
Atom  31C    basis set group =>   1
Atom  32C    basis set group =>   1
Atom  33C    basis set group =>   1
Atom  34H    basis set group =>   2
Atom  35C    basis set group =>   1
Atom  36H    basis set group =>   2
Atom  37C    basis set group =>   1
Atom  38H    basis set group =>   2
Atom  39H    basis set group =>   2
Atom  40O    basis set group =>   4
Atom  41C    basis set group =>   1
Atom  42H    basis set group =>   2
Atom  43H    basis set group =>   2
Atom  44H    basis set group =>   2
Atom  45H    basis set group =>   2
Atom  46H    basis set group =>   2
Atom  47F    basis set group =>   5
Atom  48F    basis set group =>   5
Atom  49F    basis set group =>   5
Atom  50B    basis set group =>   6
---------------------------------
AUXILIARY/J BASIS SET INFORMATION
---------------------------------
There are 6 groups of distinct atoms

 Group   1 Type C   : 12s5p4d2f1g contracted to 6s4p3d1f1g pattern {711111/2111/211/2/1}
 Group   2 Type H   : 5s2p1d contracted to 3s1p1d pattern {311/2/1}
 Group   3 Type N   : 12s5p4d2f1g contracted to 6s4p3d1f1g pattern {711111/2111/211/2/1}
 Group   4 Type O   : 12s5p4d2f1g contracted to 6s4p3d1f1g pattern {711111/2111/211/2/1}
 Group   5 Type F   : 12s5p4d2f1g contracted to 6s4p3d1f1g pattern {711111/2111/211/2/1}
 Group   6 Type B   : 12s5p4d2f1g contracted to 6s4p3d1f1g pattern {711111/2111/211/2/1}

Atom   0C    basis set group =>   1
Atom   1C    basis set group =>   1
Atom   2C    basis set group =>   1
Atom   3C    basis set group =>   1
Atom   4C    basis set group =>   1
Atom   5C    basis set group =>   1
Atom   6C    basis set group =>   1
Atom   7C    basis set group =>   1
Atom   8C    basis set group =>   1
Atom   9C    basis set group =>   1
Atom  10H    basis set group =>   2
Atom  11C    basis set group =>   1
Atom  12C    basis set group =>   1
Atom  13C    basis set group =>   1
Atom  14H    basis set group =>   2
Atom  15H    basis set group =>   2
Atom  16H    basis set group =>   2
Atom  17H    basis set group =>   2
Atom  18H    basis set group =>   2
Atom  19H    basis set group =>   2
Atom  20H    basis set group =>   2
Atom  21N    basis set group =>   3
Atom  22C    basis set group =>   1
Atom  23C    basis set group =>   1
Atom  24C    basis set group =>   1
Atom  25C    basis set group =>   1
Atom  26C    basis set group =>   1
Atom  27C    basis set group =>   1
Atom  28H    basis set group =>   2
Atom  29H    basis set group =>   2
Atom  30C    basis set group =>   1
Atom  31C    basis set group =>   1
Atom  32C    basis set group =>   1
Atom  33C    basis set group =>   1
Atom  34H    basis set group =>   2
Atom  35C    basis set group =>   1
Atom  36H    basis set group =>   2
Atom  37C    basis set group =>   1
Atom  38H    basis set group =>   2
Atom  39H    basis set group =>   2
Atom  40O    basis set group =>   4
Atom  41C    basis set group =>   1
Atom  42H    basis set group =>   2
Atom  43H    basis set group =>   2
Atom  44H    basis set group =>   2
Atom  45H    basis set group =>   2
Atom  46H    basis set group =>   2
Atom  47F    basis set group =>   5
Atom  48F    basis set group =>   5
Atom  49F    basis set group =>   5
Atom  50B    basis set group =>   6
---------------------------------
AUXILIARY/C BASIS SET INFORMATION
---------------------------------
There are 6 groups of distinct atoms

 Group   1 Type C   : 8s6p5d3f1g contracted to 8s6p4d3f1g pattern {11111111/111111/2111/111/1}
 Group   2 Type H   : 4s3p2d contracted to 4s2p1d pattern {1111/21/2}
 Group   3 Type N   : 8s6p5d3f1g contracted to 8s6p4d3f1g pattern {11111111/111111/2111/111/1}
 Group   4 Type O   : 8s6p5d3f1g contracted to 8s6p4d3f1g pattern {11111111/111111/2111/111/1}
 Group   5 Type F   : 8s6p5d3f1g contracted to 8s6p4d3f1g pattern {11111111/111111/2111/111/1}
 Group   6 Type B   : 8s6p5d3f1g contracted to 8s6p4d3f1g pattern {11111111/111111/2111/111/1}

Atom   0C    basis set group =>   1
Atom   1C    basis set group =>   1
Atom   2C    basis set group =>   1
Atom   3C    basis set group =>   1
Atom   4C    basis set group =>   1
Atom   5C    basis set group =>   1
Atom   6C    basis set group =>   1
Atom   7C    basis set group =>   1
Atom   8C    basis set group =>   1
Atom   9C    basis set group =>   1
Atom  10H    basis set group =>   2
Atom  11C    basis set group =>   1
Atom  12C    basis set group =>   1
Atom  13C    basis set group =>   1
Atom  14H    basis set group =>   2
Atom  15H    basis set group =>   2
Atom  16H    basis set group =>   2
Atom  17H    basis set group =>   2
Atom  18H    basis set group =>   2
Atom  19H    basis set group =>   2
Atom  20H    basis set group =>   2
Atom  21N    basis set group =>   3
Atom  22C    basis set group =>   1
Atom  23C    basis set group =>   1
Atom  24C    basis set group =>   1
Atom  25C    basis set group =>   1
Atom  26C    basis set group =>   1
Atom  27C    basis set group =>   1
Atom  28H    basis set group =>   2
Atom  29H    basis set group =>   2
Atom  30C    basis set group =>   1
Atom  31C    basis set group =>   1
Atom  32C    basis set group =>   1
Atom  33C    basis set group =>   1
Atom  34H    basis set group =>   2
Atom  35C    basis set group =>   1
Atom  36H    basis set group =>   2
Atom  37C    basis set group =>   1
Atom  38H    basis set group =>   2
Atom  39H    basis set group =>   2
Atom  40O    basis set group =>   4
Atom  41C    basis set group =>   1
Atom  42H    basis set group =>   2
Atom  43H    basis set group =>   2
Atom  44H    basis set group =>   2
Atom  45H    basis set group =>   2
Atom  46H    basis set group =>   2
Atom  47F    basis set group =>   5
Atom  48F    basis set group =>   5
Atom  49F    basis set group =>   5
Atom  50B    basis set group =>   6


           ************************************************************
           *        Program running with 8 parallel MPI-processes     *
           *              working on a common directory               *
           ************************************************************
------------------------------------------------------------------------------
                           ORCA GTO INTEGRAL CALCULATION
                           -- RI-GTO INTEGRALS CHOSEN --
------------------------------------------------------------------------------
------------------------------------------------------------------------------
                   ___                                                        
                  /   \      - P O W E R E D   B Y -                         
                 /     \                                                     
                 |  |  |   _    _      __       _____    __    __             
                 |  |  |  | |  | |    /  \     |  _  \  |  |  /  |          
                  \  \/   | |  | |   /    \    | | | |  |  | /  /          
                 / \  \   | |__| |  /  /\  \   | |_| |  |  |/  /          
                |  |  |   |  __  | /  /__\  \  |    /   |      \           
                |  |  |   | |  | | |   __   |  |    \   |  |\   \          
                \     /   | |  | | |  |  |  |  | |\  \  |  | \   \       
                 \___/    |_|  |_| |__|  |__|  |_| \__\ |__|  \__/        
                                                                              
                      - O R C A' S   B I G   F R I E N D -                    
                                      &                                       
                       - I N T E G R A L  F E E D E R -                       
                                                                              
 v1 FN, 2020, v2 2021                                                         
------------------------------------------------------------------------------


Reading SHARK input file BF3-Acr_o_M06L_def2TZVP_coords.SHARKINP.tmp ... ok
----------------------
SHARK INTEGRAL PACKAGE
----------------------

Number of atoms                             ...     51
Number of basis functions                   ...   1106
Number of shells                            ...    428
Maximum angular momentum                    ...      3
Integral batch strategy                     ... SHARK/LIBINT Hybrid
RI-J (if used) integral strategy            ... SPLIT-RIJ (Revised 2003 algorithm where possible)
Printlevel                                  ...      1
Contraction scheme used                     ... SEGMENTED contraction
Coulomb Range Separation                    ... NOT USED
Exchange Range Separation                   ... NOT USED
Finite Nucleus Model                        ... NOT USED
Auxiliary Coulomb fitting basis             ... AVAILABLE
   # of basis functions in Aux-J            ...   1777
   # of shells in Aux-J                     ...    575
   Maximum angular momentum in Aux-J        ...      4
Auxiliary J/K fitting basis                 ... NOT available
Auxiliary Correlation fitting basis         ... AVAILABLE
   # of basis functions in Aux-C            ...   2717
   # of shells in Aux-C                     ...    837
   Maximum angular momentum in Aux-C        ...      4
Auxiliary 'external' fitting basis          ... NOT available
Integral threshold                          ...     2.500000e-11
Primitive cut-off                           ...     2.500000e-12
Primitive pair pre-selection threshold      ...     2.500000e-12

Calculating pre-screening integrals         ... done (  0.1 sec) Dimension = 428
Organizing shell pair data                  ... done ( 23.6 sec)
Shell pair information
Total number of shell pairs                 ...     91806
Shell pairs after pre-screening             ...     58036
Total number of primitive shell pairs       ...    285396
Primitive shell pairs kept                  ...    116091
          la=0 lb=0:  14093 shell pairs
          la=1 lb=0:  16652 shell pairs
          la=1 lb=1:   4889 shell pairs
          la=2 lb=0:   8352 shell pairs
          la=2 lb=1:   5018 shell pairs
          la=2 lb=2:   1304 shell pairs
          la=3 lb=0:   3880 shell pairs
          la=3 lb=1:   2384 shell pairs
          la=3 lb=2:   1172 shell pairs
          la=3 lb=3:    292 shell pairs

Calculating one electron integrals          ... done (  0.1 sec)
Calculating RI/J V-Matrix + Cholesky decomp.... done (  0.2 sec)
Calculating RI/C V-Matrix + Cholesky decomp.... done (  0.5 sec)
Calculating Nuclear repulsion               ... done (  0.0 sec) ENN=   3113.274768508527 Eh

SHARK setup successfully completed in  30.5 seconds

Maximum memory used throughout the entire GTOINT-calculation: 96.4 MB


           ************************************************************
           *        Program running with 8 parallel MPI-processes     *
           *              working on a common directory               *
           ************************************************************
-------------------------------------------------------------------------------
                                 ORCA SCF
-------------------------------------------------------------------------------

------------
SCF SETTINGS
------------
Hamiltonian:
 Density Functional     Method          .... DFT(GTOs)
 Exchange Functional    Exchange        .... B88
   X-Alpha parameter    XAlpha          ....  0.666667
   Becke's b parameter  XBeta           ....  0.004200
 Correlation Functional Correlation     .... LYP
 LDA part of GGA corr.  LDAOpt          .... VWN-3
 Gradients option       PostSCFGGA      .... off
 Hybrid DFT is turned on
   Fraction HF Exchange ScalHFX         ....  0.530000
   Scaling of DF-GGA-X  ScalDFX         ....  0.470000
   Scaling of DF-GGA-C  ScalDFC         ....  0.730000
   Scaling of DF-LDA-C  ScalLDAC        ....  0.730000
   Perturbative correction              ....  0.270000
   Density functional embedding theory  .... OFF
   NL short-range parameter             ....  7.800000
 RI-approximation to the Coulomb term is turned on
   Number of AuxJ basis functions       .... 1777
   RIJ-COSX (HFX calculated with COS-X)).... on


General Settings:
 Integral files         IntName         .... BF3-Acr_o_M06L_def2TZVP_coords
 Hartree-Fock type      HFTyp           .... RHF
 Total Charge           Charge          ....    0
 Multiplicity           Mult            ....    1
 Number of Electrons    NEL             ....  222
 Basis Dimension        Dim             .... 1106
 Nuclear Repulsion      ENuc            ....   3113.2747685085 Eh

Convergence Acceleration:
 DIIS                   CNVDIIS         .... on
   Start iteration      DIISMaxIt       ....    12
   Startup error        DIISStart       ....  0.200000
   # of expansion vecs  DIISMaxEq       ....     5
   Bias factor          DIISBfac        ....   1.050
   Max. coefficient     DIISMaxC        ....  10.000
 Trust-Rad. Augm. Hess. CNVTRAH         .... auto
   Auto Start mean grad. ratio tolernc. ....  1.125000
   Auto Start start iteration           ....    20
   Auto Start num. interpolation iter.  ....    10
   Max. Number of Micro iterations      ....    16
   Max. Number of Macro iterations      .... Maxiter - #DIIS iter
   Number of Davidson start vectors     ....     2
   Converg. threshold I  (grad. norm)   ....   1.000e-05
   Converg. threshold II (energy diff.) ....   1.000e-08
   Grad. Scal. Fac. for Micro threshold ....   0.100
   Minimum threshold for Micro iter.    ....   0.010
   NR start threshold (gradient norm)   ....   0.001
   Initial trust radius                 ....   0.400
   Minimum AH scaling param. (alpha)    ....   1.000
   Maximum AH scaling param. (alpha)    .... 1000.000
   Orbital update algorithm             .... Taylor
   White noise on init. David. guess    .... on
   Maximum white noise                  ....   0.010
   Quad. conv. algorithm                .... NR
 SOSCF                  CNVSOSCF        .... on
   Start iteration      SOSCFMaxIt      ....   150
   Startup grad/error   SOSCFStart      ....  0.003300
 Level Shifting         CNVShift        .... on
   Level shift para.    LevelShift      ....    0.2500
   Turn off err/grad.   ShiftErr        ....    0.0010
 Zerner damping         CNVZerner       .... off
 Static damping         CNVDamp         .... on
   Fraction old density DampFac         ....    0.7000
   Max. Damping (<1)    DampMax         ....    0.9800
   Min. Damping (>=0)   DampMin         ....    0.0000
   Turn off err/grad.   DampErr         ....    0.1000
 Fernandez-Rico         CNVRico         .... off

SCF Procedure:
 Maximum # iterations   MaxIter         ....   125
 SCF integral mode      SCFMode         .... Direct
   Integral package                     .... SHARK and LIBINT hybrid scheme
 Reset frequency        DirectResetFreq ....    20
 Integral Threshold     Thresh          ....  2.500e-11 Eh
 Primitive CutOff       TCut            ....  2.500e-12 Eh

Convergence Tolerance:
 Convergence Check Mode ConvCheckMode   .... Total+1el-Energy
 Convergence forced     ConvForced      .... 1
 Energy Change          TolE            ....  1.000e-08 Eh
 1-El. energy change                    ....  1.000e-05 Eh
 Orbital Gradient       TolG            ....  1.000e-05
 Orbital Rotation angle TolX            ....  1.000e-05
 DIIS Error             TolErr          ....  5.000e-07


Diagonalization of the overlap matrix:
Smallest eigenvalue                        ... 4.236e-06
Time for diagonalization                   ...    0.229 sec
Threshold for overlap eigenvalues          ... 1.000e-08
Number of eigenvalues below threshold      ... 0
Time for construction of square roots      ...    0.107 sec
Total time needed                          ...    0.340 sec

Time for model grid setup =    0.377 sec

------------------------------
INITIAL GUESS: MODEL POTENTIAL
------------------------------
Loading Hartree-Fock densities                     ... done
Calculating cut-offs                               ... done
Initializing the effective Hamiltonian             ... done
Setting up the integral package (SHARK)            ... done
Starting the Coulomb interaction                   ... done (   0.9 sec)
Reading the grid                                   ... done
Mapping shells                                     ... done
Starting the XC term evaluation                    ... done (   0.4 sec)
  promolecular density results
     # of electrons  =    221.994062438
     EX              =   -188.246617086
     EC              =     -2.580208840
     EX+EC           =   -190.826825926
Transforming the Hamiltonian                       ... done (   0.1 sec)
Diagonalizing the Hamiltonian                      ... done (   0.1 sec)
Back transforming the eigenvectors                 ... done (   0.0 sec)
Now organizing SCF variables                       ... done
                      ------------------
                      INITIAL GUESS DONE (   1.9 sec)
                      ------------------
-------------------
DFT GRID GENERATION
-------------------

General Integration Accuracy     IntAcc      ... 4.388
Radial Grid Type                 RadialGrid  ... OptM3 with GC (2021)
Angular Grid (max. ang.)         AngularGrid ... 4 (Lebedev-302)
Angular grid pruning method      GridPruning ... 4 (adaptive)
Weight generation scheme         WeightScheme... Becke
Basis function cutoff            BFCut       ... 1.0000e-11
Integration weight cutoff        WCut        ... 1.0000e-14
Angular grids for H and He will be reduced by one unit
Partially contracted basis set               ... off
Rotationally invariant grid construction     ... off

Total number of grid points                  ...   250600
Total number of batches                      ...     3945
Average number of points per batch           ...       63
Average number of grid points per atom       ...     4914
Time for grid setup =    1.501 sec

--------------------
COSX GRID GENERATION
--------------------

GRIDX 1
-------
General Integration Accuracy     IntAcc      ... 3.816
Radial Grid Type                 RadialGrid  ... OptM3 with GC (2021)
Angular Grid (max. ang.)         AngularGrid ... 1 (Lebedev-50)
Angular grid pruning method      GridPruning ... 4 (adaptive)
Weight generation scheme         WeightScheme... Becke
Basis function cutoff            BFCut       ... 1.0000e-11
Integration weight cutoff        WCut        ... 1.0000e-14
Angular grids for H and He will be reduced by one unit
Partially contracted basis set               ... on
Rotationally invariant grid construction     ... off

Total number of grid points                  ...    31756
Total number of batches                      ...      517
Average number of points per batch           ...       61
Average number of grid points per atom       ...      623
UseSFitting                                  ... on

GRIDX 2
-------
General Integration Accuracy     IntAcc      ... 4.020
Radial Grid Type                 RadialGrid  ... OptM3 with GC (2021)
Angular Grid (max. ang.)         AngularGrid ... 2 (Lebedev-110)
Angular grid pruning method      GridPruning ... 4 (adaptive)
Weight generation scheme         WeightScheme... Becke
Basis function cutoff            BFCut       ... 1.0000e-11
Integration weight cutoff        WCut        ... 1.0000e-14
Angular grids for H and He will be reduced by one unit
Partially contracted basis set               ... on
Rotationally invariant grid construction     ... off

Total number of grid points                  ...    69439
Total number of batches                      ...     1109
Average number of points per batch           ...       62
Average number of grid points per atom       ...     1362
UseSFitting                                  ... on

GRIDX 3
-------
General Integration Accuracy     IntAcc      ... 4.338
Radial Grid Type                 RadialGrid  ... OptM3 with GC (2021)
Angular Grid (max. ang.)         AngularGrid ... 3 (Lebedev-194)
Angular grid pruning method      GridPruning ... 4 (adaptive)
Weight generation scheme         WeightScheme... Becke
Basis function cutoff            BFCut       ... 1.0000e-11
Integration weight cutoff        WCut        ... 1.0000e-14
Angular grids for H and He will be reduced by one unit
Partially contracted basis set               ... on
Rotationally invariant grid construction     ... off

Total number of grid points                  ...   151841
Total number of batches                      ...     2401
Average number of points per batch           ...       63
Average number of grid points per atom       ...     2977
UseSFitting                                  ... on

Time for X-Grid setup             =    2.385 sec


--------------------
CPCM SOLVATION MODEL
--------------------
CPCM parameters:
  Epsilon                                         ...      35.6880
  Refrac                                          ...       1.3442
  Rsolv                                           ...       1.3000
  Surface type                                    ... GAUSSIAN VDW
  Epsilon function type                           ...         CPCM
Solvent:                                     ... ACETONITRILE
SMD-CDS solvent descriptors:
  Soln                                       ...    1.3442
  Soln25                                     ...    1.3416
  Sola                                       ...    0.0700
  Solb                                       ...    0.3200
  Solg                                       ...   41.2500
  Solc                                       ...    0.0000
  Solh                                       ...    0.0000
Radii:
 Radius for C  used is    3.4960 Bohr (=   1.8500 Ang.)
 Radius for H  used is    2.2677 Bohr (=   1.2000 Ang.)
 Radius for N  used is    3.5716 Bohr (=   1.8900 Ang.)
 Radius for O  used is    4.0969 Bohr (=   2.1680 Ang.)
 Radius for F  used is    3.2692 Bohr (=   1.7300 Ang.)
 Radius for B  used is    3.6283 Bohr (=   1.9200 Ang.)
Calculating surface                               ...        done! (  0.0s)
GEPOL surface points                              ...         2837
GEPOL Volume                                      ...    2852.2870
GEPOL Surface-area                                ...    1515.1971
Calculating surface distance matrix               ...        done! (  0.1s)
Performing Cholesky decomposition & store         ...        done! (  5.9s)
Overall time for CPCM initialization              ...                 5.9s
--------------
SCF ITERATIONS
--------------
ITER       Energy         Delta-E        Max-DP      RMS-DP      [F,P]     Damp
               ***  Starting incremental Fock matrix formation  ***
  0  -1453.7181296514   0.000000000000 0.06427967  0.00060609  0.2069064 0.7000
  1  -1453.9978827185  -0.279753067141 0.07382637  0.00052601  0.1058412 0.7000
                               ***Turning on DIIS***
  2  -1454.1478827371  -0.150000018571 0.14293831  0.00110864  0.0512069 0.0000
  3  -1454.4062584253  -0.258375688197 0.06392520  0.00037527  0.0450398 0.0000
  4  -1454.4363580461  -0.030099620834 0.01540884  0.00012392  0.0093054 0.0000
  5  -1454.4373737009  -0.001015654786 0.00724410  0.00005362  0.0043147 0.0000
                      *** Initiating the SOSCF procedure ***
                           *** Shutting down DIIS ***
                      *** Re-Reading the Fockian *** 
                      *** Removing any level shift *** 
ITER      Energy       Delta-E        Grad      Rot      Max-DP    RMS-DP
  6  -1454.43754326  -0.0001695577  0.001072  0.001072  0.002125  0.000019
               *** Restarting incremental Fock matrix formation ***
  7  -1454.43739511   0.0001481448  0.000750  0.003691  0.008939  0.000093
  8  -1454.43741447  -0.0000193552  0.000312  0.003725  0.004193  0.000046
  9  -1454.43741939  -0.0000049210  0.000183  0.000442  0.003882  0.000039
 10  -1454.43742094  -0.0000015504  0.000026  0.000085  0.000342  0.000004
 11  -1454.43742100  -0.0000000577  0.000012  0.000056  0.000277  0.000003
 12  -1454.43742102  -0.0000000207  0.000004  0.000038  0.000252  0.000002
                  ***Gradient check signals convergence***
              ***Rediagonalizing the Fockian in SOSCF/NRSCF***

               *****************************************************
               *                     SUCCESS                       *
               *           SCF CONVERGED AFTER  13 CYCLES          *
               *****************************************************

Old exchange energy                            =   -101.278553260 Eh
New exchange energy                            =   -101.278503964 Eh
Exchange energy change after final integration =      0.000049296 Eh
Total energy after final integration           =  -1454.437371725 Eh
Final COS-X integration done in                =    43.351 sec

SMD CDS free energy correction energy :                -4.36622     Kcal/mol
Total Energy after SMD CDS correction =             -1454.444329745 Eh

----------------
TOTAL SCF ENERGY
----------------

Total Energy       :        -1454.44432974 Eh          -39577.44229 eV

Components:
Nuclear Repulsion  :         3113.27476851 Eh           84716.51336 eV
Electronic Energy  :        -4567.71909825 Eh         -124293.95565 eV
One Electron Energy:        -8180.05713432 Eh         -222590.67092 eV
Two Electron Energy:         3612.33803606 Eh           98296.71527 eV
Max COSX asymmetry :            0.00001030 Eh               0.00028 eV
CPCM Dielectric    :           -0.06982156 Eh              -1.89994 eV
SMD CDS (Gcds)     :           -0.00695802 Eh              -0.18934 eV

Virial components:
Potential Energy   :        -2904.48259091 Eh          -79034.98936 eV
Kinetic Energy     :         1450.03826116 Eh           39457.54707 eV
Virial Ratio       :            2.00303859


DFT components:
N(Alpha)           :      110.999996200241 electrons
N(Beta)            :      110.999996200241 electrons
N(Total)           :      221.999992400481 electrons
E(X)               :      -90.011981088083 Eh       
E(C)               :       -5.612980150786 Eh       
E(XC)              :      -95.624961238869 Eh       
DFET-embed. en.    :        0.000000000000 Eh       
CPCM Solvation Model Properties:
Surface-charge          :           -0.06072350
Charge-correction       :           -0.00066379 Eh              -0.01806 eV
Free-energy (cav+disp)  :           -0.00695802 Eh              -0.18934 eV

---------------
SCF CONVERGENCE
---------------

  Last Energy change         ...   -1.6694e-09  Tolerance :   1.0000e-08
  Last MAX-Density change    ...    2.9976e-15  Tolerance :   1.0000e-07
  Last RMS-Density change    ...    1.2872e-17  Tolerance :   5.0000e-09
  Last Orbital Gradient      ...    1.9549e-06  Tolerance :   1.0000e-05
  Last Orbital Rotation      ...    7.6290e-06  Tolerance :   1.0000e-05

             **** THE GBW FILE WAS UPDATED (BF3-Acr_o_M06L_def2TZVP_coords.gbw) ****
             **** DENSITY BF3-Acr_o_M06L_def2TZVP_coords.scfp WAS UPDATED ****
             **** ENERGY FILE WAS UPDATED (BF3-Acr_o_M06L_def2TZVP_coords.en.tmp) ****
             **** THE GBW FILE WAS UPDATED (BF3-Acr_o_M06L_def2TZVP_coords.gbw) ****
             **** DENSITY BF3-Acr_o_M06L_def2TZVP_coords.scfp WAS UPDATED ****
----------------
ORBITAL ENERGIES
----------------

  NO   OCC          E(Eh)            E(eV) 
   0   2.0000     -25.294246      -688.2914 
   1   2.0000     -25.293276      -688.2650 
   2   2.0000     -25.291884      -688.2272 
   3   2.0000     -19.758410      -537.6537 
   4   2.0000     -14.933940      -406.3732 
   5   2.0000     -10.702749      -291.2366 
   6   2.0000     -10.702722      -291.2359 
   7   2.0000     -10.689698      -290.8815 
   8   2.0000     -10.685284      -290.7614 
   9   2.0000     -10.663112      -290.1580 
  10   2.0000     -10.655667      -289.9554 
  11   2.0000     -10.653353      -289.8925 
  12   2.0000     -10.653091      -289.8853 
  13   2.0000     -10.641028      -289.5571 
  14   2.0000     -10.640919      -289.5541 
  15   2.0000     -10.636462      -289.4329 
  16   2.0000     -10.635963      -289.4193 
  17   2.0000     -10.632067      -289.3133 
  18   2.0000     -10.631480      -289.2973 
  19   2.0000     -10.630938      -289.2825 
  20   2.0000     -10.630106      -289.2599 
  21   2.0000     -10.630101      -289.2598 
  22   2.0000     -10.626573      -289.1638 
  23   2.0000     -10.625287      -289.1288 
  24   2.0000     -10.621540      -289.0268 
  25   2.0000     -10.620557      -289.0000 
  26   2.0000     -10.617847      -288.9263 
  27   2.0000     -10.613431      -288.8061 
  28   2.0000     -10.612333      -288.7762 
  29   2.0000     -10.608546      -288.6732 
  30   2.0000     -10.593467      -288.2629 
  31   2.0000      -7.153643      -194.6605 
  32   2.0000      -1.333724       -36.2925 
  33   2.0000      -1.289694       -35.0944 
  34   2.0000      -1.287411       -35.0322 
  35   2.0000      -1.218518       -33.1575 
  36   2.0000      -1.161333       -31.6015 
  37   2.0000      -1.022772       -27.8310 
  38   2.0000      -1.009074       -27.4583 
  39   2.0000      -0.990421       -26.9507 
  40   2.0000      -0.978282       -26.6204 
  41   2.0000      -0.947173       -25.7739 
  42   2.0000      -0.901423       -24.5290 
  43   2.0000      -0.887956       -24.1625 
  44   2.0000      -0.883323       -24.0364 
  45   2.0000      -0.878009       -23.8918 
  46   2.0000      -0.864871       -23.5343 
  47   2.0000      -0.855279       -23.2733 
  48   2.0000      -0.850856       -23.1530 
  49   2.0000      -0.805277       -21.9127 
  50   2.0000      -0.782447       -21.2915 
  51   2.0000      -0.758998       -20.6534 
  52   2.0000      -0.745920       -20.2975 
  53   2.0000      -0.722260       -19.6537 
  54   2.0000      -0.707597       -19.2547 
  55   2.0000      -0.698415       -19.0048 
  56   2.0000      -0.696105       -18.9420 
  57   2.0000      -0.671735       -18.2788 
  58   2.0000      -0.656156       -17.8549 
  59   2.0000      -0.651922       -17.7397 
  60   2.0000      -0.633277       -17.2323 
  61   2.0000      -0.629777       -17.1371 
  62   2.0000      -0.609725       -16.5915 
  63   2.0000      -0.596287       -16.2258 
  64   2.0000      -0.586013       -15.9462 
  65   2.0000      -0.575814       -15.6687 
  66   2.0000      -0.564123       -15.3506 
  67   2.0000      -0.560616       -15.2551 
  68   2.0000      -0.559694       -15.2301 
  69   2.0000      -0.557304       -15.1650 
  70   2.0000      -0.553439       -15.0598 
  71   2.0000      -0.547325       -14.8935 
  72   2.0000      -0.534498       -14.5444 
  73   2.0000      -0.530696       -14.4410 
  74   2.0000      -0.526945       -14.3389 
  75   2.0000      -0.525508       -14.2998 
  76   2.0000      -0.518060       -14.0971 
  77   2.0000      -0.517611       -14.0849 
  78   2.0000      -0.512495       -13.9457 
  79   2.0000      -0.508761       -13.8441 
  80   2.0000      -0.505598       -13.7580 
  81   2.0000      -0.487122       -13.2553 
  82   2.0000      -0.483531       -13.1575 
  83   2.0000      -0.482898       -13.1403 
  84   2.0000      -0.480264       -13.0687 
  85   2.0000      -0.473599       -12.8873 
  86   2.0000      -0.461133       -12.5481 
  87   2.0000      -0.455485       -12.3944 
  88   2.0000      -0.451834       -12.2950 
  89   2.0000      -0.450457       -12.2575 
  90   2.0000      -0.446443       -12.1483 
  91   2.0000      -0.445270       -12.1164 
  92   2.0000      -0.437628       -11.9085 
  93   2.0000      -0.435713       -11.8564 
  94   2.0000      -0.434864       -11.8333 
  95   2.0000      -0.429435       -11.6855 
  96   2.0000      -0.423377       -11.5207 
  97   2.0000      -0.418220       -11.3803 
  98   2.0000      -0.408884       -11.1263 
  99   2.0000      -0.397424       -10.8144 
 100   2.0000      -0.395909       -10.7732 
 101   2.0000      -0.391955       -10.6656 
 102   2.0000      -0.368207       -10.0194 
 103   2.0000      -0.351730        -9.5711 
 104   2.0000      -0.323048        -8.7906 
 105   2.0000      -0.305424        -8.3110 
 106   2.0000      -0.301930        -8.2159 
 107   2.0000      -0.291099        -7.9212 
 108   2.0000      -0.286573        -7.7980 
 109   2.0000      -0.275673        -7.5014 
 110   2.0000      -0.268680        -7.3112 
 111   0.0000      -0.065418        -1.7801 
 112   0.0000       0.006163         0.1677 
 113   0.0000       0.023514         0.6398 
 114   0.0000       0.036988         1.0065 
 115   0.0000       0.040866         1.1120 
 116   0.0000       0.044225         1.2034 
 117   0.0000       0.052881         1.4390 
 118   0.0000       0.056289         1.5317 
 119   0.0000       0.084097         2.2884 
 120   0.0000       0.093304         2.5389 
 121   0.0000       0.097631         2.6567 
 122   0.0000       0.099288         2.7018 
 123   0.0000       0.108793         2.9604 
 124   0.0000       0.109112         2.9691 
 125   0.0000       0.113744         3.0951 
 126   0.0000       0.119423         3.2497 
 127   0.0000       0.123690         3.3658 
 128   0.0000       0.126031         3.4295 
 129   0.0000       0.132705         3.6111 
 130   0.0000       0.137220         3.7340 
 131   0.0000       0.141409         3.8479 
 132   0.0000       0.144706         3.9376 
 133   0.0000       0.147576         4.0158 
 134   0.0000       0.154780         4.2118 
 135   0.0000       0.158421         4.3109 
 136   0.0000       0.162447         4.4204 
 137   0.0000       0.164402         4.4736 
 138   0.0000       0.168342         4.5808 
 139   0.0000       0.172172         4.6850 
 140   0.0000       0.175424         4.7735 
 141   0.0000       0.179824         4.8933 
 142   0.0000       0.185651         5.0518 
 143   0.0000       0.190595         5.1864 
 144   0.0000       0.198438         5.3998 
 145   0.0000       0.203091         5.5264 
 146   0.0000       0.207286         5.6405 
 147   0.0000       0.208619         5.6768 
 148   0.0000       0.212234         5.7752 
 149   0.0000       0.216735         5.8976 
 150   0.0000       0.218343         5.9414 
 151   0.0000       0.229419         6.2428 
 152   0.0000       0.230566         6.2740 
 153   0.0000       0.243544         6.6272 
 154   0.0000       0.247375         6.7314 
 155   0.0000       0.249647         6.7933 
 156   0.0000       0.250576         6.8185 
 157   0.0000       0.254930         6.9370 
 158   0.0000       0.258834         7.0432 
 159   0.0000       0.260556         7.0901 
 160   0.0000       0.261948         7.1280 
 161   0.0000       0.269586         7.3358 
 162   0.0000       0.271954         7.4003 
 163   0.0000       0.275768         7.5040 
 164   0.0000       0.280653         7.6370 
 165   0.0000       0.283078         7.7029 
 166   0.0000       0.284154         7.7322 
 167   0.0000       0.287479         7.8227 
 168   0.0000       0.290626         7.9083 
 169   0.0000       0.292190         7.9509 
 170   0.0000       0.295708         8.0466 
 171   0.0000       0.296577         8.0703 
 172   0.0000       0.301203         8.1961 
 173   0.0000       0.308929         8.4064 
 174   0.0000       0.309994         8.4354 
 175   0.0000       0.314326         8.5532 
 176   0.0000       0.319443         8.6925 
 177   0.0000       0.319994         8.7075 
 178   0.0000       0.328303         8.9336 
 179   0.0000       0.331908         9.0317 
 180   0.0000       0.334281         9.0962 
 181   0.0000       0.335087         9.1182 
 182   0.0000       0.341419         9.2905 
 183   0.0000       0.346015         9.4156 
 184   0.0000       0.347854         9.4656 
 185   0.0000       0.350183         9.5290 
 186   0.0000       0.354386         9.6433 
 187   0.0000       0.355026         9.6608 
 188   0.0000       0.356873         9.7110 
 189   0.0000       0.362577         9.8662 
 190   0.0000       0.371199        10.1008 
 191   0.0000       0.375109        10.2072 
 192   0.0000       0.380195        10.3456 
 193   0.0000       0.383936        10.4474 
 194   0.0000       0.385442        10.4884 
 195   0.0000       0.394203        10.7268 
 196   0.0000       0.396731        10.7956 
 197   0.0000       0.404650        11.0111 
 198   0.0000       0.405946        11.0464 
 199   0.0000       0.409065        11.1312 
 200   0.0000       0.412097        11.2137 
 201   0.0000       0.416095        11.3225 
 202   0.0000       0.419490        11.4149 
 203   0.0000       0.423414        11.5217 
 204   0.0000       0.427994        11.6463 
 205   0.0000       0.428417        11.6578 
 206   0.0000       0.429742        11.6939 
 207   0.0000       0.433103        11.7853 
 208   0.0000       0.439034        11.9467 
 209   0.0000       0.440651        11.9907 
 210   0.0000       0.444755        12.1024 
 211   0.0000       0.449151        12.2220 
 212   0.0000       0.453278        12.3343 
 213   0.0000       0.455780        12.4024 
 214   0.0000       0.458237        12.4693 
 215   0.0000       0.460702        12.5363 
 216   0.0000       0.464075        12.6281 
 217   0.0000       0.466680        12.6990 
 218   0.0000       0.470066        12.7912 
 219   0.0000       0.474138        12.9020 
 220   0.0000       0.475649        12.9431 
 221   0.0000       0.477987        13.0067 
 222   0.0000       0.480214        13.0673 
 223   0.0000       0.484423        13.1818 
 224   0.0000       0.487644        13.2695 
 225   0.0000       0.489166        13.3109 
 226   0.0000       0.490723        13.3532 
 227   0.0000       0.494162        13.4468 
 228   0.0000       0.495911        13.4944 
 229   0.0000       0.501503        13.6466 
 230   0.0000       0.503763        13.7081 
 231   0.0000       0.505651        13.7595 
 232   0.0000       0.511235        13.9114 
 233   0.0000       0.512560        13.9475 
 234   0.0000       0.515798        14.0356 
 235   0.0000       0.517768        14.0892 
 236   0.0000       0.521345        14.1865 
 237   0.0000       0.526875        14.3370 
 238   0.0000       0.530996        14.4491 
 239   0.0000       0.531833        14.4719 
 240   0.0000       0.538282        14.6474 
 241   0.0000       0.542848        14.7716 
 242   0.0000       0.548130        14.9154 
 243   0.0000       0.550008        14.9665 
 244   0.0000       0.551064        14.9952 
 245   0.0000       0.553944        15.0736 
 246   0.0000       0.557677        15.1752 
 247   0.0000       0.562937        15.3183 
 248   0.0000       0.566516        15.4157 
 249   0.0000       0.571545        15.5525 
 250   0.0000       0.571775        15.5588 
 251   0.0000       0.574964        15.6456 
 252   0.0000       0.577516        15.7150 
 253   0.0000       0.579626        15.7724 
 254   0.0000       0.582042        15.8382 
 255   0.0000       0.587203        15.9786 
 256   0.0000       0.591807        16.1039 
 257   0.0000       0.601895        16.3784 
 258   0.0000       0.614540        16.7225 
 259   0.0000       0.616862        16.7857 
 260   0.0000       0.623212        16.9584 
 261   0.0000       0.625939        17.0327 
 262   0.0000       0.631184        17.1754 
 263   0.0000       0.631777        17.1915 
 264   0.0000       0.637810        17.3557 
 265   0.0000       0.648357        17.6427 
 266   0.0000       0.657306        17.8862 
 267   0.0000       0.662437        18.0258 
 268   0.0000       0.665221        18.1016 
 269   0.0000       0.666697        18.1417 
 270   0.0000       0.671273        18.2663 
 271   0.0000       0.676662        18.4129 
 272   0.0000       0.683036        18.5864 
 273   0.0000       0.692559        18.8455 
 274   0.0000       0.694494        18.8981 
 275   0.0000       0.701583        19.0911 
 276   0.0000       0.703530        19.1440 
 277   0.0000       0.705872        19.2077 
 278   0.0000       0.713809        19.4237 
 279   0.0000       0.719254        19.5719 
 280   0.0000       0.721153        19.6236 
 281   0.0000       0.723195        19.6791 
 282   0.0000       0.729862        19.8605 
 283   0.0000       0.735179        20.0052 
 284   0.0000       0.737357        20.0645 
 285   0.0000       0.738527        20.0963 
 286   0.0000       0.744509        20.2591 
 287   0.0000       0.747514        20.3409 
 288   0.0000       0.748283        20.3618 
 289   0.0000       0.753376        20.5004 
 290   0.0000       0.759177        20.6583 
 291   0.0000       0.760682        20.6992 
 292   0.0000       0.771170        20.9846 
 293   0.0000       0.775634        21.1061 
 294   0.0000       0.777913        21.1681 
 295   0.0000       0.779945        21.2234 
 296   0.0000       0.782174        21.2840 
 297   0.0000       0.786466        21.4008 
 298   0.0000       0.788763        21.4633 
 299   0.0000       0.790043        21.4982 
 300   0.0000       0.796398        21.6711 
 301   0.0000       0.799640        21.7593 
 302   0.0000       0.802130        21.8271 
 303   0.0000       0.806359        21.9421 
 304   0.0000       0.811188        22.0735 
 305   0.0000       0.814721        22.1697 
 306   0.0000       0.816717        22.2240 
 307   0.0000       0.820243        22.3200 
 308   0.0000       0.820355        22.3230 
 309   0.0000       0.821904        22.3651 
 310   0.0000       0.824075        22.4242 
 311   0.0000       0.827779        22.5250 
 312   0.0000       0.831258        22.6197 
 313   0.0000       0.832384        22.6503 
 314   0.0000       0.836444        22.7608 
 315   0.0000       0.847558        23.0632 
 316   0.0000       0.857072        23.3221 
 317   0.0000       0.860197        23.4072 
 318   0.0000       0.861058        23.4306 
 319   0.0000       0.865842        23.5607 
 320   0.0000       0.876455        23.8495 
 321   0.0000       0.880860        23.9694 
 322   0.0000       0.883729        24.0475 
 323   0.0000       0.889685        24.2096 
 324   0.0000       0.892541        24.2873 
 325   0.0000       0.896774        24.4025 
 326   0.0000       0.897801        24.4304 
 327   0.0000       0.902103        24.5475 
 328   0.0000       0.910509        24.7762 
 329   0.0000       0.917119        24.9561 
 330   0.0000       0.918462        24.9926 
 331   0.0000       0.919399        25.0181 
 332   0.0000       0.925642        25.1880 
 333   0.0000       0.930950        25.3324 
 334   0.0000       0.932934        25.3864 
 335   0.0000       0.933690        25.4070 
 336   0.0000       0.937329        25.5060 
 337   0.0000       0.946176        25.7468 
 338   0.0000       0.952689        25.9240 
 339   0.0000       0.957074        26.0433 
 340   0.0000       0.962204        26.1829 
 341   0.0000       0.963748        26.2249 
 342   0.0000       0.968913        26.3655 
 343   0.0000       0.977160        26.5899 
 344   0.0000       0.977522        26.5997 
 345   0.0000       0.980898        26.6916 
 346   0.0000       0.988800        26.9066 
 347   0.0000       0.994335        27.0572 
 348   0.0000       0.999216        27.1900 
 349   0.0000       1.007182        27.4068 
 350   0.0000       1.017550        27.6889 
 351   0.0000       1.021038        27.7838 
 352   0.0000       1.026504        27.9326 
 353   0.0000       1.030038        28.0288 
 354   0.0000       1.033231        28.1156 
 355   0.0000       1.041036        28.3280 
 356   0.0000       1.049973        28.5712 
 357   0.0000       1.057011        28.7627 
 358   0.0000       1.064483        28.9660 
 359   0.0000       1.069535        29.1035 
 360   0.0000       1.074258        29.2320 
 361   0.0000       1.078599        29.3502 
 362   0.0000       1.085540        29.5390 
 363   0.0000       1.088779        29.6272 
 364   0.0000       1.102062        29.9886 
 365   0.0000       1.109212        30.1832 
 366   0.0000       1.114205        30.3191 
 367   0.0000       1.122209        30.5369 
 368   0.0000       1.125141        30.6166 
 369   0.0000       1.133404        30.8415 
 370   0.0000       1.141925        31.0734 
 371   0.0000       1.142775        31.0965 
 372   0.0000       1.147428        31.2231 
 373   0.0000       1.157805        31.5055 
 374   0.0000       1.162644        31.6372 
 375   0.0000       1.167436        31.7676 
 376   0.0000       1.170198        31.8427 
 377   0.0000       1.176990        32.0275 
 378   0.0000       1.179946        32.1080 
 379   0.0000       1.185847        32.2685 
 380   0.0000       1.196032        32.5457 
 381   0.0000       1.198351        32.6088 
 382   0.0000       1.203734        32.7553 
 383   0.0000       1.204276        32.7700 
 384   0.0000       1.209758        32.9192 
 385   0.0000       1.226301        33.3693 
 386   0.0000       1.236482        33.6464 
 387   0.0000       1.240781        33.7634 
 388   0.0000       1.248144        33.9637 
 389   0.0000       1.254092        34.1256 
 390   0.0000       1.260509        34.3002 
 391   0.0000       1.264597        34.4114 
 392   0.0000       1.269365        34.5412 
 393   0.0000       1.273338        34.6493 
 394   0.0000       1.281729        34.8776 
 395   0.0000       1.285719        34.9862 
 396   0.0000       1.296168        35.2705 
 397   0.0000       1.306927        35.5633 
 398   0.0000       1.310811        35.6690 
 399   0.0000       1.319028        35.8926 
 400   0.0000       1.326588        36.0983 
 401   0.0000       1.329378        36.1742 
 402   0.0000       1.332566        36.2610 
 403   0.0000       1.339691        36.4549 
 404   0.0000       1.343155        36.5491 
 405   0.0000       1.346153        36.6307 
 406   0.0000       1.347550        36.6687 
 407   0.0000       1.351431        36.7743 
 408   0.0000       1.356635        36.9159 
 409   0.0000       1.360753        37.0280 
 410   0.0000       1.367445        37.2101 
 411   0.0000       1.370426        37.2912 
 412   0.0000       1.377705        37.4893 
 413   0.0000       1.378876        37.5211 
 414   0.0000       1.389525        37.8109 
 415   0.0000       1.396586        38.0030 
 416   0.0000       1.399216        38.0746 
 417   0.0000       1.403820        38.1999 
 418   0.0000       1.412082        38.4247 
 419   0.0000       1.417469        38.5713 
 420   0.0000       1.421120        38.6707 
 421   0.0000       1.429420        38.8965 
 422   0.0000       1.435826        39.0708 
 423   0.0000       1.443352        39.2756 
 424   0.0000       1.455752        39.6130 
 425   0.0000       1.459987        39.7283 
 426   0.0000       1.464901        39.8620 
 427   0.0000       1.471799        40.0497 
 428   0.0000       1.479784        40.2670 
 429   0.0000       1.485991        40.4359 
 430   0.0000       1.498467        40.7753 
 431   0.0000       1.501249        40.8511 
 432   0.0000       1.516017        41.2529 
 433   0.0000       1.521862        41.4120 
 434   0.0000       1.526712        41.5439 
 435   0.0000       1.528829        41.6015 
 436   0.0000       1.544410        42.0255 
 437   0.0000       1.550864        42.2012 
 438   0.0000       1.553559        42.2745 
 439   0.0000       1.558704        42.4145 
 440   0.0000       1.559707        42.4418 
 441   0.0000       1.569685        42.7133 
 442   0.0000       1.574816        42.8529 
 443   0.0000       1.579045        42.9680 
 444   0.0000       1.583728        43.0954 
 445   0.0000       1.586360        43.1670 
 446   0.0000       1.592251        43.3274 
 447   0.0000       1.599741        43.5312 
 448   0.0000       1.609326        43.7920 
 449   0.0000       1.613978        43.9186 
 450   0.0000       1.621954        44.1356 
 451   0.0000       1.624159        44.1956 
 452   0.0000       1.628975        44.3267 
 453   0.0000       1.630752        44.3750 
 454   0.0000       1.637094        44.5476 
 455   0.0000       1.641502        44.6675 
 456   0.0000       1.643812        44.7304 
 457   0.0000       1.651942        44.9516 
 458   0.0000       1.653328        44.9893 
 459   0.0000       1.660397        45.1817 
 460   0.0000       1.663795        45.2742 
 461   0.0000       1.668714        45.4080 
 462   0.0000       1.672847        45.5205 
 463   0.0000       1.680537        45.7297 
 464   0.0000       1.681527        45.7567 
 465   0.0000       1.685523        45.8654 
 466   0.0000       1.690982        46.0140 
 467   0.0000       1.699341        46.2414 
 468   0.0000       1.701401        46.2975 
 469   0.0000       1.706325        46.4315 
 470   0.0000       1.711506        46.5724 
 471   0.0000       1.720076        46.8056 
 472   0.0000       1.724741        46.9326 
 473   0.0000       1.728397        47.0321 
 474   0.0000       1.733909        47.1821 
 475   0.0000       1.737105        47.2690 
 476   0.0000       1.746152        47.5152 
 477   0.0000       1.751872        47.6709 
 478   0.0000       1.754164        47.7332 
 479   0.0000       1.760008        47.8923 
 480   0.0000       1.770164        48.1686 
 481   0.0000       1.771486        48.2046 
 482   0.0000       1.774778        48.2942 
 483   0.0000       1.782896        48.5151 
 484   0.0000       1.788831        48.6766 
 485   0.0000       1.798074        48.9281 
 486   0.0000       1.801844        49.0307 
 487   0.0000       1.808552        49.2132 
 488   0.0000       1.816819        49.4382 
 489   0.0000       1.818011        49.4706 
 490   0.0000       1.824669        49.6518 
 491   0.0000       1.827091        49.7177 
 492   0.0000       1.832670        49.8695 
 493   0.0000       1.838559        50.0297 
 494   0.0000       1.842086        50.1257 
 495   0.0000       1.846544        50.2470 
 496   0.0000       1.856022        50.5049 
 497   0.0000       1.860143        50.6171 
 498   0.0000       1.868281        50.8385 
 499   0.0000       1.871295        50.9205 
 500   0.0000       1.875174        51.0261 
 501   0.0000       1.886588        51.3367 
 502   0.0000       1.889188        51.4074 
 503   0.0000       1.892147        51.4880 
 504   0.0000       1.893563        51.5265 
 505   0.0000       1.901837        51.7516 
 506   0.0000       1.907100        51.8948 
 507   0.0000       1.907364        51.9020 
 508   0.0000       1.922628        52.3174 
 509   0.0000       1.927377        52.4466 
 510   0.0000       1.936078        52.6834 
 511   0.0000       1.947963        53.0068 
 512   0.0000       1.949492        53.0484 
 513   0.0000       1.963681        53.4345 
 514   0.0000       1.970234        53.6128 
 515   0.0000       1.976040        53.7708 
 516   0.0000       1.983219        53.9661 
 517   0.0000       1.989548        54.1383 
[...]
   106a -> 113a  :     0.051636 
   107a -> 114a  :     0.066083 
   108a -> 114a  :     0.034104 
   108a -> 116a  :     0.036873 
   108a -> 117a  :     0.041038 
   110a -> 114a  :     0.028819 
   110a -> 122a  :     0.017631 

STATE 16:  E=   0.210447 au      5.727 eV    46187.8 cm**-1 <S**2> =   0.000000
   102a -> 111a  :     0.041922 
   104a -> 113a  :     0.036198 
   105a -> 115a  :     0.010278 
   105a -> 116a  :     0.010589 
   106a -> 112a  :     0.374232 
   107a -> 112a  :     0.039251 
   108a -> 112a  :     0.134901 
   108a -> 113a  :     0.011129 
   108a -> 117a  :     0.018447 
   109a -> 115a  :     0.017358 
   110a -> 114a  :     0.076419 
   110a -> 118a  :     0.097518 

STATE 17:  E=   0.189664 au      5.161 eV    41626.5 cm**-1 <S**2> =   0.000000
   100a -> 111a  :     0.014759 
   102a -> 111a  :     0.022611 
   104a -> 112a  :     0.016237 
   105a -> 115a  :     0.014423 
   106a -> 112a  :     0.010991 
   109a -> 112a  :     0.647989 
   109a -> 113a  :     0.156195 
   109a -> 115a  :     0.015425 
   109a -> 116a  :     0.028662 

STATE 18:  E=   0.204613 au      5.568 eV    44907.3 cm**-1 <S**2> =   0.000000
    96a -> 111a  :     0.016972 
    98a -> 111a  :     0.028883 
   100a -> 111a  :     0.098165 
   102a -> 111a  :     0.100413 
   104a -> 112a  :     0.159961 
   105a -> 112a  :     0.074359 
   106a -> 112a  :     0.117148 
   106a -> 113a  :     0.053491 
   106a -> 115a  :     0.012753 
   106a -> 117a  :     0.022374 
   107a -> 114a  :     0.020996 
   108a -> 112a  :     0.032335 
   108a -> 113a  :     0.017455 
   109a -> 112a  :     0.077969 
   109a -> 113a  :     0.018988 
   110a -> 118a  :     0.027507 
   110a -> 122a  :     0.024654 

STATE 19:  E=   0.200215 au      5.448 eV    43942.1 cm**-1 <S**2> =   0.000000
   102a -> 111a  :     0.018913 
   107a -> 112a  :     0.590390 
   107a -> 113a  :     0.013105 
   107a -> 114a  :     0.010815 
   108a -> 112a  :     0.204504 
   108a -> 114a  :     0.050655 
   110a -> 112a  :     0.011134 

STATE 20:  E=   0.200003 au      5.442 eV    43895.7 cm**-1 <S**2> =   0.000000
    96a -> 111a  :     0.098070 
    98a -> 111a  :     0.015838 
    99a -> 111a  :     0.184154 
   100a -> 111a  :     0.346157 
   102a -> 111a  :     0.101919 
   103a -> 111a  :     0.047468 
   106a -> 112a  :     0.024254 
   108a -> 112a  :     0.063584 

STATE 21:  E=   0.214926 au      5.848 eV    47170.9 cm**-1 <S**2> =   0.000000
   106a -> 112a  :     0.111654 
   107a -> 112a  :     0.049500 
   107a -> 114a  :     0.081317 
   108a -> 112a  :     0.097696 
   108a -> 114a  :     0.019949 
   110a -> 114a  :     0.321115 
   110a -> 115a  :     0.010924 
   110a -> 118a  :     0.214862 

STATE 22:  E=   0.212075 au      5.771 eV    46545.0 cm**-1 <S**2> =   0.000000
   110a -> 113a  :     0.021286 
   110a -> 114a  :     0.036598 
   110a -> 115a  :     0.818075 
   110a -> 116a  :     0.036551 
   110a -> 117a  :     0.013975 

STATE 23:  E=   0.209603 au      5.704 eV    46002.5 cm**-1 <S**2> =   0.000000
    99a -> 111a  :     0.010366 
   102a -> 111a  :     0.032840 
   104a -> 112a  :     0.021275 
   105a -> 112a  :     0.041519 
   106a -> 112a  :     0.165946 
   106a -> 113a  :     0.065476 
   106a -> 117a  :     0.010147 
   107a -> 112a  :     0.138720 
   107a -> 114a  :     0.015595 
   108a -> 112a  :     0.303947 
   108a -> 114a  :     0.013945 
   108a -> 116a  :     0.013708 
   110a -> 114a  :     0.083458 
   110a -> 115a  :     0.013975 

STATE 24:  E=   0.217373 au      5.915 eV    47707.9 cm**-1 <S**2> =   0.000000
   105a -> 112a  :     0.021193 
   105a -> 113a  :     0.016616 
   106a -> 118a  :     0.019709 
   108a -> 113a  :     0.012820 
   110a -> 112a  :     0.017047 
   110a -> 113a  :     0.033650 
   110a -> 114a  :     0.032323 
   110a -> 116a  :     0.612805 
   110a -> 117a  :     0.092146 
   110a -> 118a  :     0.019565 

STATE 25:  E=   0.227504 au      6.191 eV    49931.4 cm**-1 <S**2> =   0.000000
    98a -> 111a  :     0.022157 
   104a -> 112a  :     0.010083 
   105a -> 112a  :     0.254253 
   105a -> 113a  :     0.215972 
   105a -> 115a  :     0.029667 
   105a -> 116a  :     0.019737 
   106a -> 117a  :     0.010193 
   107a -> 113a  :     0.014570 
   107a -> 114a  :     0.010973 
   108a -> 113a  :     0.031403 
   109a -> 115a  :     0.113379 
   109a -> 116a  :     0.049538 
   110a -> 114a  :     0.010258 
   110a -> 116a  :     0.062736 

STATE 26:  E=   0.227329 au      6.186 eV    49893.0 cm**-1 <S**2> =   0.000000
    96a -> 111a  :     0.010383 
    98a -> 111a  :     0.011475 
   100a -> 111a  :     0.010733 
   104a -> 113a  :     0.015666 
   107a -> 113a  :     0.050056 
   107a -> 114a  :     0.060836 
   107a -> 115a  :     0.012859 
   107a -> 116a  :     0.011674 
   108a -> 112a  :     0.014120 
   108a -> 113a  :     0.093989 
   108a -> 114a  :     0.072768 
   108a -> 115a  :     0.029636 
   108a -> 116a  :     0.077338 
   108a -> 117a  :     0.012982 
   110a -> 114a  :     0.144608 
   110a -> 116a  :     0.013178 
   110a -> 117a  :     0.060001 
   110a -> 118a  :     0.163389 

STATE 27:  E=   0.228282 au      6.212 eV    50102.1 cm**-1 <S**2> =   0.000000
    96a -> 111a  :     0.014480 
    98a -> 111a  :     0.016596 
    99a -> 111a  :     0.010759 
   103a -> 114a  :     0.010360 
   105a -> 115a  :     0.019295 
   106a -> 112a  :     0.010187 
   106a -> 118a  :     0.010813 
   107a -> 112a  :     0.026512 
   107a -> 113a  :     0.171774 
   107a -> 115a  :     0.067258 
   107a -> 116a  :     0.094298 
   107a -> 117a  :     0.023050 
   108a -> 114a  :     0.172393 
   109a -> 113a  :     0.010885 
   110a -> 114a  :     0.087396 
   110a -> 116a  :     0.016508 
   110a -> 117a  :     0.022608 
   110a -> 118a  :     0.095368 

STATE 28:  E=   0.224522 au      6.110 eV    49276.9 cm**-1 <S**2> =   0.000000
   104a -> 115a  :     0.022483 
   104a -> 116a  :     0.014068 
   105a -> 112a  :     0.020781 
   105a -> 115a  :     0.254986 
   105a -> 116a  :     0.154353 
   109a -> 112a  :     0.010484 
   109a -> 113a  :     0.316727 
   109a -> 115a  :     0.018875 
   109a -> 116a  :     0.023411 
   109a -> 117a  :     0.064275 

STATE 29:  E=   0.221526 au      6.028 eV    48619.2 cm**-1 <S**2> =   0.000000
    65a -> 111a  :     0.010066 
    94a -> 111a  :     0.107249 
    95a -> 111a  :     0.586547 
    97a -> 111a  :     0.081812 
   101a -> 111a  :     0.086446 

STATE 30:  E=   0.229362 au      6.241 eV    50339.2 cm**-1 <S**2> =   0.000000
    95a -> 111a  :     0.015568 
   102a -> 111a  :     0.024601 
   103a -> 114a  :     0.016683 
   105a -> 112a  :     0.024015 
   106a -> 113a  :     0.068132 
   107a -> 114a  :     0.230727 
   107a -> 116a  :     0.018060 
   108a -> 113a  :     0.101725 
   108a -> 114a  :     0.025803 
   108a -> 115a  :     0.036221 
   108a -> 116a  :     0.045449 
   108a -> 117a  :     0.019546 
   110a -> 114a  :     0.038606 
   110a -> 117a  :     0.039039 
   110a -> 118a  :     0.179133 


-------------------------
TD-DFT-EXCITATION SPECTRA
-------------------------

Center of mass = ( -0.1290, -0.0270,  0.0583)
Calculating the Dipole integrals                  ... done
Transforming integrals                            ... done
Calculating the Linear Momentum integrals         ... done
Transforming integrals                            ... done
Calculating angular momentum integrals            ... done
Transforming integrals                            ... done

-----------------------------------------------------------------------------
         ABSORPTION SPECTRUM VIA TRANSITION ELECTRIC DIPOLE MOMENTS
-----------------------------------------------------------------------------
State   Energy    Wavelength  fosc         T2        TX        TY        TZ  
        (cm-1)      (nm)                 (au**2)    (au)      (au)      (au) 
-----------------------------------------------------------------------------
   1   23865.4    419.0   0.202635004   2.79525  -1.66810   0.04318  -0.10400
   2   27322.0    366.0   0.011422027   0.13763   0.36869   0.04100  -0.00400
   3   29383.1    340.3   0.286260844   3.20730   0.00165  -1.76504  -0.30320
   4   25308.3    395.1   0.005689948   0.07402  -0.06082   0.26171   0.04268
   5   28925.8    345.7   0.017115304   0.19479   0.13959   0.37893   0.17810
   6   31916.7    313.3   0.044837468   0.46249   0.05463   0.64681   0.20283
   7   34070.8    293.5   0.037264935   0.36008  -0.02072  -0.58623  -0.12643
   8   38725.1    258.2   0.035008132   0.29761  -0.00313  -0.13822   0.52773
   9   39148.0    255.4   1.240560314  10.43239  -0.08850  -3.16781  -0.62415
  10   41272.3    242.3   0.027015377   0.21549   0.22294   0.40643  -0.02456
  11   37956.9    263.5   0.104450674   0.90593   0.95025  -0.05428  -0.00210
  12   45937.8    217.7   0.148998932   1.06780  -0.98877   0.09982  -0.28315
  13   43657.4    229.1   0.036763888   0.27723   0.03781   0.52339   0.04312
  14   45030.7    222.1   0.016517121   0.12075   0.07193   0.33634  -0.04957
  15   43440.5    230.2   0.004879073   0.03698  -0.04456   0.09457  -0.16139
  16   46187.8    216.5   0.166652333   1.18784   1.08712  -0.01949   0.07506
  17   41626.5    240.2   0.001290407   0.01021  -0.05015  -0.00880  -0.08725
  18   44907.3    222.7   0.020364216   0.14929   0.37869  -0.01291   0.07559
  19   43942.1    227.6   0.034481923   0.25834  -0.03268   0.02692   0.50650
  20   43895.7    227.8   0.006656212   0.04992  -0.13811  -0.08769   0.15218
  21   47170.9    212.0   0.593079699   4.13919   2.03318  -0.06835   0.02645
  22   46545.0    214.8   0.002374285   0.01679  -0.00919  -0.12907   0.00711
  23   46002.5    217.4   0.010307185   0.07376  -0.20257   0.06315  -0.16953
  24   47707.9    209.6   0.176396581   1.21724  -1.03742   0.31102  -0.21041
  25   49931.4    200.3   1.256547623   8.28478  -2.87456   0.03334  -0.14346
  26   49893.0    200.4   0.221249112   1.45988  -0.73263   0.29417  -0.91466
  27   50102.1    199.6   0.157410999   1.03432  -0.46607  -0.41403   0.80354
  28   49276.9    202.9   0.276097429   1.84457  -0.04036   0.28868  -1.32650
  29   48619.2    205.7   0.001462336   0.00990  -0.03941   0.01809  -0.08956
  30   50339.2    198.7   0.108777410   0.71139   0.82899  -0.10676   0.11302

-----------------------------------------------------------------------------
         ABSORPTION SPECTRUM VIA TRANSITION VELOCITY DIPOLE MOMENTS
-----------------------------------------------------------------------------
State   Energy    Wavelength   fosc        P2         PX        PY        PZ  
        (cm-1)      (nm)                 (au**2)     (au)      (au)      (au) 
-----------------------------------------------------------------------------
   1   23865.4    419.0   0.267120740   0.04357   0.20825  -0.00541   0.01305
   2   27322.0    366.0   0.015350819   0.00287  -0.05318  -0.00615   0.00067
   3   29383.1    340.3   0.346910461   0.06967  -0.00020   0.26015   0.04460
   4   25308.3    395.1   0.009533924   0.00165   0.00903  -0.03908  -0.00638
   5   28925.8    345.7   0.023019075   0.00455  -0.02148  -0.05766  -0.02766
   6   31916.7    313.3   0.058273061   0.01271  -0.00888  -0.10725  -0.03361
   7   34070.8    293.5   0.054420131   0.01267   0.00384   0.10999   0.02366
   8   38725.1    258.2   0.043893669   0.01162  -0.00111   0.02724  -0.10428
   9   39148.0    255.4   1.515598207   0.40551   0.01741   0.62454   0.12310
  10   41272.3    242.3   0.031530290   0.00889  -0.04562  -0.08240   0.00477
  11   37956.9    263.5   0.148685991   0.03857  -0.19609   0.01095   0.00009
  12   45937.8    217.7   0.157372792   0.04941   0.21258  -0.02172   0.06121
  13   43657.4    229.1   0.044438442   0.01326  -0.00812  -0.11445  -0.00971
  14   45030.7    222.1   0.018687390   0.00575  -0.01532  -0.07347   0.01089
  15   43440.5    230.2   0.005952315   0.00177   0.00926  -0.02077   0.03536
  16   46187.8    216.5   0.188679968   0.05956  -0.24344   0.00426  -0.01670
  17   41626.5    240.2   0.001559672   0.00044   0.01073   0.00233   0.01797
  18   44907.3    222.7   0.024666366   0.00757  -0.08520   0.00303  -0.01740
  19   43942.1    227.6   0.046081774   0.01384   0.00744  -0.00655  -0.11722
  20   43895.7    227.8   0.009020376   0.00271   0.03223   0.02036  -0.03539
  21   47170.9    212.0   0.718498143   0.23164  -0.48097   0.01629  -0.00613
  22   46545.0    214.8   0.002973390   0.00095   0.00204   0.03063  -0.00187
  23   46002.5    217.4   0.013663377   0.00430   0.04877  -0.01557   0.04093
  24   47707.9    209.6   0.221434794   0.07220   0.25270  -0.07522   0.05183
  25   49931.4    200.3   1.445420840   0.49326   0.70139  -0.00844   0.03520
  26   49893.0    200.4   0.264077224   0.09005   0.18090  -0.07327   0.22794
  27   50102.1    199.6   0.187343143   0.06415   0.11541   0.10298  -0.20057
  28   49276.9    202.9   0.340979695   0.11484   0.01099  -0.07203   0.33095
  29   48619.2    205.7   0.001890083   0.00063   0.01006  -0.00461   0.02248
  30   50339.2    198.7   0.133758270   0.04602  -0.21083   0.02725  -0.02874

-------------------------------------------------------------------
                             CD SPECTRUM
-------------------------------------------------------------------
State  Energy     Wavelength     R         MX        MY        MZ   
       (cm-1)       (nm)     (1e40*cgs)   (au)      (au)      (au)  
-------------------------------------------------------------------
   1   23865.4    419.0    -15.24003   0.01977   0.12067   0.04385
   2   27322.0    366.0     -9.64837  -0.04700  -0.07787  -0.01369
   3   29383.1    340.3    -21.97524  -0.15265  -0.01369   0.23262
   4   25308.3    395.1     -1.36338   0.05531  -0.00152   0.02036
   5   28925.8    345.7      0.15746   0.06228   0.15983  -0.38700
   6   31916.7    313.3     35.80349   0.03832  -0.02114   0.43153
   7   34070.8    293.5      3.94717  -0.06299   0.00221  -0.06616
   8   38725.1    258.2      4.24637  -0.00212  -0.27431  -0.05479
   9   39148.0    255.4     28.83544  -0.33291   0.00418  -0.07200
  10   41272.3    242.3    -18.55008   0.04140  -0.12182  -0.03813
  11   37956.9    263.5    -16.32348  -0.04314  -0.11476  -0.06886
  12   45937.8    217.7      5.41173   0.01203   0.33970   0.03721
  13   43657.4    229.1     -5.09482   0.13159   0.04562  -0.91969
  14   45030.7    222.1     16.44956   0.06983   0.01342  -0.51153
  15   43440.5    230.2      3.45729  -0.03985  -0.06393  -0.07190
  16   46187.8    216.5     -8.64018  -0.01320  -0.01643  -0.05718
  17   41626.5    240.2     -0.98950   0.00017   0.04144   0.01978
  18   44907.3    222.7     -2.13760  -0.00956   0.07528   0.00079
  19   43942.1    227.6     27.08671   0.04190   0.53229   0.08785
  20   43895.7    227.8      2.52700  -0.01611   0.15295   0.10874
  21   47170.9    212.0     39.48054   0.02867  -0.42236  -0.12912
  22   46545.0    214.8     -0.18638   0.17165   0.00228   0.20735
  23   46002.5    217.4      2.18092  -0.05333  -0.21559  -0.04387
  24   47707.9    209.6    -56.66190   0.14005  -0.05087  -0.19451
  25   49931.4    200.3      5.52530  -0.01241   0.46319   0.27468
  26   49893.0    200.4     12.63840   0.03898  -0.96845  -0.37200
  27   50102.1    199.6    -38.03121   0.06195   1.53945   0.72875
  28   49276.9    202.9     75.56413   0.00183   0.91763   0.07882
  29   48619.2    205.7     -3.08782   0.12106   0.03433   0.02679
  30   50339.2    198.7      9.93857   0.02136  -0.12316  -0.08649

Total run time:    19549.054 sec

           *** ORCA-CIS/TD-DFT FINISHED WITHOUT ERROR ***

Maximum memory used throughout the entire CIS-calculation: 4182.9 MB

-----------------------
CIS/TD-DFT TOTAL ENERGY
-----------------------

    E(SCF)  =  -1454.444329745 Eh
    DE(CIS) =      0.108738907 Eh (Root  1)
    ----------------------------- ---------
    E(tot)  =  -1454.335590838 Eh



-------------------------------------------------------------------------------
                          DFT DISPERSION CORRECTION                            
                                                                               
                              DFTD3 V3.1  Rev 1                                
                          USING Becke-Johnson damping                          
-------------------------------------------------------------------------------
The B2PLYP functional is recognized
Active option DFTDOPT                   ...         4   

molecular C6(AA) [au] = 33240.680552 


            DFT-D V3
 parameters
 s6 scaling factor         :     0.6400 
 a1 scaling factor         :     0.3065 
 s8 scaling factor         :     0.9147 
 a2 scaling factor         :     5.0570 
 ad hoc parameters k1-k3   :    16.0000     1.3333    -4.0000 

 Edisp/kcal,au: -39.515363776279  -0.062971733806 
 E6   /kcal   : -22.119320553 
 E8   /kcal   : -17.396043224 
 % E8         :  44.023492539 

-------------------------   ----------------
Dispersion correction           -0.062971734
-------------------------   ----------------


-------------------------   --------------------
FINAL SINGLE POINT ENERGY     -1454.398562571369
-------------------------   --------------------


                            ***************************************
                            *     ORCA property calculations      *
                            ***************************************


  WARNING: The energy has been calculated at the MP2 level but the densities
           used in the property calculations are still SCF densities
           MP2 response densities have not been calculated 
           use %mp2 Density relaxed end
           or  %mp2 Density unrelaxed end

                                    ---------------------
                                    Active property flags
                                    ---------------------
   (+) Dipole Moment


------------------------------------------------------------------------------
                       ORCA ELECTRIC PROPERTIES CALCULATION
------------------------------------------------------------------------------

Dipole Moment Calculation                       ... on
Quadrupole Moment Calculation                   ... off
Polarizability Calculation                      ... off
GBWName                                         ... BF3-Acr_o_M06L_def2TZVP_coords.gbw
Electron density                                ... BF3-Acr_o_M06L_def2TZVP_coords.scfp
The origin for moment calculation is the CENTER OF MASS  = (-0.128974, -0.027010  0.058314)

-------------
DIPOLE MOMENT
-------------
                                X             Y             Z
Electronic contribution:    -22.17688      -4.25208       9.10979
Nuclear contribution   :     28.63218       5.99629     -12.94564
                        -----------------------------------------
Total Dipole Moment    :      6.45530       1.74422      -3.83585
                        -----------------------------------------
Magnitude (a.u.)       :      7.70889
Magnitude (Debye)      :     19.59443



--------------------
Rotational spectrum 
--------------------
 
Rotational constants in cm-1:     0.009186     0.002783     0.002554 
Rotational constants in MHz :   275.390295    83.442991    76.554550 

 Dipole components along the rotational axes: 
x,y,z [a.u.] :    -6.532618    -1.781329     3.684929 
x,y,z [Debye]:   -16.604595    -4.527778     9.366345 

 

Timings for individual modules:

Sum of individual times         ...    20580.163 sec (= 343.003 min)
GTO integral calculation        ...       33.222 sec (=   0.554 min)   0.2 %
SCF iterations                  ...      358.403 sec (=   5.973 min)   1.7 %
MP2 module                      ...      634.807 sec (=  10.580 min)   3.1 %
CIS module                      ...    19553.731 sec (= 325.896 min)  95.0 %
                             ****ORCA TERMINATED NORMALLY****
TOTAL RUN TIME: 0 days 5 hours 43 minutes 22 seconds 158 msec
