 Entering Gaussian System, Link 0=g09
 Input=/home/png4rjv/fotokatalizis/benchmark/OPCs/BF3-Acr_o_TPSS_def2TZVP.gjf
 Output=/home/png4rjv/fotokatalizis/benchmark/OPCs/BF3-Acr_o_TPSS_def2TZVP.log
 Initial command:
 /opt/nce/packages/global/g09/l1.exe "/home/png4rjv/fotokatalizis/benchmark/OPCs/BF3-Acr_o_TPSS_def2TZVP/Gau-10311.inp" -scrdir="/home/png4rjv/fotokatalizis/benchmark/OPCs/BF3-Acr_o_TPSS_def2TZVP/"
 Default is to use a total of  12 processors:
                               12 via shared-memory
                                1 via Linda
 Entering Link 1 = /opt/nce/packages/global/g09/l1.exe PID=     10312.
  
 Copyright (c) 1988,1990,1992,1993,1995,1998,2003,2009,2015,
            Gaussian, Inc.  All Rights Reserved.
  
 This is part of the Gaussian(R) 09 program.  It is based on
 the Gaussian(R) 03 system (copyright 2003, Gaussian, Inc.),
 the Gaussian(R) 98 system (copyright 1998, Gaussian, Inc.),
 the Gaussian(R) 94 system (copyright 1995, Gaussian, Inc.),
 the Gaussian 92(TM) system (copyright 1992, Gaussian, Inc.),
 the Gaussian 90(TM) system (copyright 1990, Gaussian, Inc.),
 the Gaussian 88(TM) system (copyright 1988, Gaussian, Inc.),
 the Gaussian 86(TM) system (copyright 1986, Carnegie Mellon
 University), and the Gaussian 82(TM) system (copyright 1983,
 Carnegie Mellon University). Gaussian is a federally registered
 trademark of Gaussian, Inc.
  
 This software contains proprietary and confidential information,
 including trade secrets, belonging to Gaussian, Inc.
  
 This software is provided under written license and may be
 used, copied, transmitted, or stored only in accord with that
 written license.
  
 The following legend is applicable only to US Government
 contracts under FAR:
  
                    RESTRICTED RIGHTS LEGEND
  
 Use, reproduction and disclosure by the US Government is
 subject to restrictions as set forth in subparagraphs (a)
 and (c) of the Commercial Computer Software - Restricted
 Rights clause in FAR 52.227-19.
  
 Gaussian, Inc.
 340 Quinnipiac St., Bldg. 40, Wallingford CT 06492
  
  
 ---------------------------------------------------------------
 Warning -- This program may not be used in any manner that
 competes with the business of Gaussian, Inc. or will provide
 assistance to any competitor of Gaussian, Inc.  The licensee
 of this program is prohibited from giving any competitor of
 Gaussian, Inc. access to this program.  By using this program,
 the user acknowledges that Gaussian, Inc. is engaged in the
 business of creating and licensing software in the field of
 computational chemistry and represents and warrants to the
 licensee that it is not a competitor of Gaussian, Inc. and that
 it will not use this program in any manner prohibited above.
 ---------------------------------------------------------------
  

 Cite this work as:
 Gaussian 09, Revision E.01,
 M. J. Frisch, G. W. Trucks, H. B. Schlegel, G. E. Scuseria, 
 M. A. Robb, J. R. Cheeseman, G. Scalmani, V. Barone, B. Mennucci, 
 G. A. Petersson, H. Nakatsuji, M. Caricato, X. Li, H. P. Hratchian, 
 A. F. Izmaylov, J. Bloino, G. Zheng, J. L. Sonnenberg, M. Hada, 
 M. Ehara, K. Toyota, R. Fukuda, J. Hasegawa, M. Ishida, T. Nakajima, 
 Y. Honda, O. Kitao, H. Nakai, T. Vreven, J. A. Montgomery, Jr., 
 J. E. Peralta, F. Ogliaro, M. Bearpark, J. J. Heyd, E. Brothers, 
 K. N. Kudin, V. N. Staroverov, T. Keith, R. Kobayashi, J. Normand, 
 K. Raghavachari, A. Rendell, J. C. Burant, S. S. Iyengar, J. Tomasi, 
 M. Cossi, N. Rega, J. M. Millam, M. Klene, J. E. Knox, J. B. Cross, 
 V. Bakken, C. Adamo, J. Jaramillo, R. Gomperts, R. E. Stratmann, 
 O. Yazyev, A. J. Austin, R. Cammi, C. Pomelli, J. W. Ochterski, 
 R. L. Martin, K. Morokuma, V. G. Zakrzewski, G. A. Voth, 
 P. Salvador, J. J. Dannenberg, S. Dapprich, A. D. Daniels, 
 O. Farkas, J. B. Foresman, J. V. Ortiz, J. Cioslowski, 
 and D. J. Fox, Gaussian, Inc., Wallingford CT, 2013.
 
 ******************************************
 Gaussian 09:  ES64L-G09RevE.01 30-Nov-2015
                30-Mar-2021 
 ******************************************
 %chk=cp.chk
 Default route:  MaxDisk=500GB
 ----------------------------------------------------------------------
 #p TPSSTPSS/def2TZVP opt freq=noraman nosymm int=ultrafine scrf=(SMD,s
 olvent=Acetonitrile)
 ----------------------------------------------------------------------
 1/14=-1,18=20,19=15,26=4,38=1/1,3;
 2/9=110,12=2,15=1,17=6,18=5,40=1/2;
 3/5=44,7=101,11=2,16=1,25=1,30=1,70=32201,71=1,72=2,74=2523,75=-5/1,2,3;
 4//1;
 5/5=2,38=5,53=2/2;
 6/7=2,8=2,9=2,10=2,28=1/1;
 7/30=1/1,2,3,16;
 1/14=-1,18=20,19=15,26=4/3(2);
 2/9=110,15=1/2;
 99//99;
 2/9=110,15=1/2;
 3/5=44,7=101,11=2,16=1,25=1,30=1,70=32205,71=1,72=2,74=2523,75=-5/1,2,3;
 4/5=5,16=3,69=1/1;
 5/5=2,38=5,53=2/2;
 7/30=1/1,2,3,16;
 1/14=-1,18=20,19=15,26=4/3(-5);
 2/9=110,15=1/2;
 6/7=2,8=2,9=2,10=2,19=2,28=1/1;
 99/9=1/99;
 Leave Link    1 at Tue Mar 30 06:25:52 2021, MaxMem=           0 cpu:         0.9
 (Enter /opt/nce/packages/global/g09/l101.exe)
 -----
 Title
 -----
 Symbolic Z-matrix:
 Charge =  0 Multiplicity = 1
 C                    -0.33208   3.11299  -1.9575 
 C                    -1.05243   1.98666  -1.61055 
 C                    -0.36735   0.79947  -1.26471 
 C                     1.06083   0.79143  -1.24084 
 C                     1.76189   1.98356  -1.57861 
 C                     1.08187   3.11716  -1.95185 
 C                     1.7382   -0.3603   -0.78297 
 C                     1.01554  -1.56939  -0.61983 
 C                    -0.41168  -1.53063  -0.65821 
 C                    -1.15066  -2.70766  -0.38825 
 H                    -2.23828  -2.6763   -0.40154 
 C                    -0.48812  -3.88668  -0.11207 
 C                     0.92462  -3.93859  -0.06127 
 C                     1.65702  -2.79696  -0.29157 
 H                    -0.87195   4.02161  -2.23441 
 H                    -2.14027   2.00624  -1.60527 
 H                     2.84956   1.96866  -1.52485 
 H                     1.62544   4.02587  -2.21463 
 H                    -1.06977  -4.79054   0.08334 
 H                     1.42753  -4.8766    0.18041 
 H                     2.74395  -2.80537  -0.22108 
 N                    -1.05302  -0.33596  -0.89793 
 C                     3.13646  -0.24943  -0.31356 
 C                     3.29361   0.39021   0.93983 
 C                     4.21706  -0.79528  -1.02269 
 C                     4.60173   0.43643   1.44839 
 C                     5.50513  -0.70132  -0.49331 
 C                     5.69256  -0.08856   0.75023 
 H                     6.3553   -1.1087   -1.04593 
 H                     4.05046  -1.27964  -1.98902 
 C                    -2.44196  -0.20949  -0.52597 
 C                    -2.72319   0.15665   0.78969 
 C                    -3.47107  -0.43672  -1.44358 
 C                    -4.04905   0.29844   1.20236 
 H                    -1.89153   0.33007   1.47802 
 C                    -4.79316  -0.29738  -1.03636 
 H                    -3.23244  -0.72023  -2.47052 
 C                    -5.09308   0.07141   0.28892 
 H                    -4.25388   0.5865    2.23249 
 H                    -5.62105  -0.46688  -1.72641 
 O                    -6.40422   0.18267   0.5893 
 C                    -6.78335   0.55532   1.89833 
 H                    -7.88036   0.58396   1.90799 
 H                    -6.43506  -0.17754   2.64711 
 H                    -6.39393   1.55311   2.16614 
 H                     6.69748  -0.02364   1.1766 
 H                     4.74936   0.89892   2.42746 
 F                     2.37012   1.16465   3.12504 
 F                     0.85799   0.251     1.63505 
 F                     1.74482   2.33362   1.24347 
 B                     2.04038   1.06185   1.77773 
 
 NAtoms=     51 NQM=       51 NQMF=       0 NMMI=      0 NMMIF=      0
                NMic=       0 NMicF=      0.
                    Isotopes and Nuclear Properties:
 (Nuclear quadrupole moments (NQMom) in fm**2, nuclear magnetic moments (NMagM)
  in nuclear magnetons)

  Atom         1           2           3           4           5           6           7           8           9          10
 IAtWgt=          12          12          12          12          12          12          12          12          12          12
 AtmWgt=  12.0000000  12.0000000  12.0000000  12.0000000  12.0000000  12.0000000  12.0000000  12.0000000  12.0000000  12.0000000
 NucSpn=           0           0           0           0           0           0           0           0           0           0
 AtZEff=   0.0000000   0.0000000   0.0000000   0.0000000   0.0000000   0.0000000   0.0000000   0.0000000   0.0000000   0.0000000
 NQMom=    0.0000000   0.0000000   0.0000000   0.0000000   0.0000000   0.0000000   0.0000000   0.0000000   0.0000000   0.0000000
 NMagM=    0.0000000   0.0000000   0.0000000   0.0000000   0.0000000   0.0000000   0.0000000   0.0000000   0.0000000   0.0000000
 AtZNuc=   6.0000000   6.0000000   6.0000000   6.0000000   6.0000000   6.0000000   6.0000000   6.0000000   6.0000000   6.0000000

  Atom        11          12          13          14          15          16          17          18          19          20
 IAtWgt=           1          12          12          12           1           1           1           1           1           1
 AtmWgt=   1.0078250  12.0000000  12.0000000  12.0000000   1.0078250   1.0078250   1.0078250   1.0078250   1.0078250   1.0078250
 NucSpn=           1           0           0           0           1           1           1           1           1           1
 AtZEff=   0.0000000   0.0000000   0.0000000   0.0000000   0.0000000   0.0000000   0.0000000   0.0000000   0.0000000   0.0000000
 NQMom=    0.0000000   0.0000000   0.0000000   0.0000000   0.0000000   0.0000000   0.0000000   0.0000000   0.0000000   0.0000000
 NMagM=    2.7928460   0.0000000   0.0000000   0.0000000   2.7928460   2.7928460   2.7928460   2.7928460   2.7928460   2.7928460
 AtZNuc=   1.0000000   6.0000000   6.0000000   6.0000000   1.0000000   1.0000000   1.0000000   1.0000000   1.0000000   1.0000000

  Atom        21          22          23          24          25          26          27          28          29          30
 IAtWgt=           1          14          12          12          12          12          12          12           1           1
 AtmWgt=   1.0078250  14.0030740  12.0000000  12.0000000  12.0000000  12.0000000  12.0000000  12.0000000   1.0078250   1.0078250
 NucSpn=           1           2           0           0           0           0           0           0           1           1
 AtZEff=   0.0000000   0.0000000   0.0000000   0.0000000   0.0000000   0.0000000   0.0000000   0.0000000   0.0000000   0.0000000
 NQMom=    0.0000000   2.0440000   0.0000000   0.0000000   0.0000000   0.0000000   0.0000000   0.0000000   0.0000000   0.0000000
 NMagM=    2.7928460   0.4037610   0.0000000   0.0000000   0.0000000   0.0000000   0.0000000   0.0000000   2.7928460   2.7928460
 AtZNuc=   1.0000000   7.0000000   6.0000000   6.0000000   6.0000000   6.0000000   6.0000000   6.0000000   1.0000000   1.0000000

  Atom        31          32          33          34          35          36          37          38          39          40
 IAtWgt=          12          12          12          12           1          12           1          12           1           1
 AtmWgt=  12.0000000  12.0000000  12.0000000  12.0000000   1.0078250  12.0000000   1.0078250  12.0000000   1.0078250   1.0078250
 NucSpn=           0           0           0           0           1           0           1           0           1           1
 AtZEff=   0.0000000   0.0000000   0.0000000   0.0000000   0.0000000   0.0000000   0.0000000   0.0000000   0.0000000   0.0000000
 NQMom=    0.0000000   0.0000000   0.0000000   0.0000000   0.0000000   0.0000000   0.0000000   0.0000000   0.0000000   0.0000000
 NMagM=    0.0000000   0.0000000   0.0000000   0.0000000   2.7928460   0.0000000   2.7928460   0.0000000   2.7928460   2.7928460
 AtZNuc=   6.0000000   6.0000000   6.0000000   6.0000000   1.0000000   6.0000000   1.0000000   6.0000000   1.0000000   1.0000000

  Atom        41          42          43          44          45          46          47          48          49          50
 IAtWgt=          16          12           1           1           1           1           1          19          19          19
 AtmWgt=  15.9949146  12.0000000   1.0078250   1.0078250   1.0078250   1.0078250   1.0078250  18.9984033  18.9984033  18.9984033
 NucSpn=           0           0           1           1           1           1           1           1           1           1
 AtZEff=   0.0000000   0.0000000   0.0000000   0.0000000   0.0000000   0.0000000   0.0000000   0.0000000   0.0000000   0.0000000
 NQMom=    0.0000000   0.0000000   0.0000000   0.0000000   0.0000000   0.0000000   0.0000000   0.0000000   0.0000000   0.0000000
 NMagM=    0.0000000   0.0000000   2.7928460   2.7928460   2.7928460   2.7928460   2.7928460   2.6288670   2.6288670   2.6288670
 AtZNuc=   8.0000000   6.0000000   1.0000000   1.0000000   1.0000000   1.0000000   1.0000000   9.0000000   9.0000000   9.0000000

  Atom        51
 IAtWgt=          11
 AtmWgt=  11.0093053
 NucSpn=           3
 AtZEff=   0.0000000
 NQMom=    4.0590000
 NMagM=    2.6886370
 AtZNuc=   5.0000000
 Leave Link  101 at Tue Mar 30 06:25:52 2021, MaxMem=  5242880000 cpu:         4.3
 (Enter /opt/nce/packages/global/g09/l103.exe)

 GradGradGradGradGradGradGradGradGradGradGradGradGradGradGradGradGradGrad
 Berny optimization.
 Initialization pass.
                           ----------------------------
                           !    Initial Parameters    !
                           ! (Angstroms and Degrees)  !
 --------------------------                            --------------------------
 ! Name  Definition              Value          Derivative Info.                !
 --------------------------------------------------------------------------------
 ! R1    R(1,2)                  1.3813         estimate D2E/DX2                !
 ! R2    R(1,6)                  1.414          estimate D2E/DX2                !
 ! R3    R(1,15)                 1.0926         estimate D2E/DX2                !
 ! R4    R(2,3)                  1.4136         estimate D2E/DX2                !
 ! R5    R(2,16)                 1.088          estimate D2E/DX2                !
 ! R6    R(3,4)                  1.4284         estimate D2E/DX2                !
 ! R7    R(3,22)                 1.3762         estimate D2E/DX2                !
 ! R8    R(4,5)                  1.4236         estimate D2E/DX2                !
 ! R9    R(4,7)                  1.4124         estimate D2E/DX2                !
 ! R10   R(5,6)                  1.3736         estimate D2E/DX2                !
 ! R11   R(5,17)                 1.0891         estimate D2E/DX2                !
 ! R12   R(6,18)                 1.091          estimate D2E/DX2                !
 ! R13   R(7,8)                  1.418          estimate D2E/DX2                !
 ! R14   R(7,23)                 1.4791         estimate D2E/DX2                !
 ! R15   R(8,9)                  1.4283         estimate D2E/DX2                !
 ! R16   R(8,14)                 1.4234         estimate D2E/DX2                !
 ! R17   R(9,10)                 1.4158         estimate D2E/DX2                !
 ! R18   R(9,22)                 1.377          estimate D2E/DX2                !
 ! R19   R(10,11)                1.0881         estimate D2E/DX2                !
 ! R20   R(10,12)                1.3803         estimate D2E/DX2                !
 ! R21   R(12,13)                1.4146         estimate D2E/DX2                !
 ! R22   R(12,19)                1.0925         estimate D2E/DX2                !
 ! R23   R(13,14)                1.3758         estimate D2E/DX2                !
 ! R24   R(13,20)                1.0914         estimate D2E/DX2                !
 ! R25   R(14,21)                1.0892         estimate D2E/DX2                !
 ! R26   R(22,31)                1.4434         estimate D2E/DX2                !
 ! R27   R(23,24)                1.4159         estimate D2E/DX2                !
 ! R28   R(23,25)                1.403          estimate D2E/DX2                !
 ! R29   R(24,26)                1.4043         estimate D2E/DX2                !
 ! R30   R(24,51)                1.6504         estimate D2E/DX2                !
 ! R31   R(25,27)                1.3958         estimate D2E/DX2                !
 ! R32   R(25,30)                1.0937         estimate D2E/DX2                !
 ! R33   R(26,28)                1.3975         estimate D2E/DX2                !
 ! R34   R(26,47)                1.0928         estimate D2E/DX2                !
 ! R35   R(27,28)                1.3989         estimate D2E/DX2                !
 ! R36   R(27,29)                1.0928         estimate D2E/DX2                !
 ! R37   R(28,46)                1.0936         estimate D2E/DX2                !
 ! R38   R(31,32)                1.3943         estimate D2E/DX2                !
 ! R39   R(31,33)                1.3974         estimate D2E/DX2                !
 ! R40   R(32,34)                1.3958         estimate D2E/DX2                !
 ! R41   R(32,35)                1.0934         estimate D2E/DX2                !
 ! R42   R(33,36)                1.3904         estimate D2E/DX2                !
 ! R43   R(33,37)                1.0918         estimate D2E/DX2                !
 ! R44   R(34,38)                1.4057         estimate D2E/DX2                !
 ! R45   R(34,39)                1.0891         estimate D2E/DX2                !
 ! R46   R(36,38)                1.408          estimate D2E/DX2                !
 ! R47   R(36,40)                1.091          estimate D2E/DX2                !
 ! R48   R(38,41)                1.3497         estimate D2E/DX2                !
 ! R49   R(41,42)                1.4129         estimate D2E/DX2                !
 ! R50   R(42,43)                1.0974         estimate D2E/DX2                !
 ! R51   R(42,44)                1.1041         estimate D2E/DX2                !
 ! R52   R(42,45)                1.1041         estimate D2E/DX2                !
 ! R53   R(48,51)                1.3909         estimate D2E/DX2                !
 ! R54   R(49,51)                1.4408         estimate D2E/DX2                !
 ! R55   R(50,51)                1.4107         estimate D2E/DX2                !
 ! A1    A(2,1,6)              121.5281         estimate D2E/DX2                !
 ! A2    A(2,1,15)             118.9541         estimate D2E/DX2                !
 ! A3    A(6,1,15)             119.5161         estimate D2E/DX2                !
 ! A4    A(1,2,3)              119.5723         estimate D2E/DX2                !
 ! A5    A(1,2,16)             120.5285         estimate D2E/DX2                !
 ! A6    A(3,2,16)             119.8987         estimate D2E/DX2                !
 ! A7    A(2,3,4)              119.5619         estimate D2E/DX2                !
 ! A8    A(2,3,22)             121.1071         estimate D2E/DX2                !
 ! A9    A(4,3,22)             119.2792         estimate D2E/DX2                !
 ! A10   A(3,4,5)              118.9263         estimate D2E/DX2                !
 ! A11   A(3,4,7)              119.3083         estimate D2E/DX2                !
 ! A12   A(5,4,7)              121.5724         estimate D2E/DX2                !
 ! A13   A(4,5,6)              120.7806         estimate D2E/DX2                !
 ! A14   A(4,5,17)             117.945          estimate D2E/DX2                !
 ! A15   A(6,5,17)             121.2731         estimate D2E/DX2                !
 ! A16   A(1,6,5)              119.5843         estimate D2E/DX2                !
 ! A17   A(1,6,18)             119.982          estimate D2E/DX2                !
 ! A18   A(5,6,18)             120.4093         estimate D2E/DX2                !
 ! A19   A(4,7,8)              119.2207         estimate D2E/DX2                !
 ! A20   A(4,7,23)             119.6775         estimate D2E/DX2                !
 ! A21   A(8,7,23)             120.609          estimate D2E/DX2                !
 ! A22   A(7,8,9)              118.8832         estimate D2E/DX2                !
 ! A23   A(7,8,14)             122.154          estimate D2E/DX2                !
 ! A24   A(9,8,14)             118.681          estimate D2E/DX2                !
 ! A25   A(8,9,10)             119.5972         estimate D2E/DX2                !
 ! A26   A(8,9,22)             119.5808         estimate D2E/DX2                !
 ! A27   A(10,9,22)            120.757          estimate D2E/DX2                !
 ! A28   A(9,10,11)            119.6977         estimate D2E/DX2                !
 ! A29   A(9,10,12)            119.8506         estimate D2E/DX2                !
 ! A30   A(11,10,12)           120.4517         estimate D2E/DX2                !
 ! A31   A(10,12,13)           121.1907         estimate D2E/DX2                !
 ! A32   A(10,12,19)           119.139          estimate D2E/DX2                !
 ! A33   A(13,12,19)           119.6652         estimate D2E/DX2                !
 ! A34   A(12,13,14)           119.682          estimate D2E/DX2                !
 ! A35   A(12,13,20)           119.9785         estimate D2E/DX2                !
 ! A36   A(14,13,20)           120.327          estimate D2E/DX2                !
 ! A37   A(8,14,13)            120.9515         estimate D2E/DX2                !
 ! A38   A(8,14,21)            118.1178         estimate D2E/DX2                !
 ! A39   A(13,14,21)           120.9293         estimate D2E/DX2                !
 ! A40   A(3,22,9)             122.017          estimate D2E/DX2                !
 ! A41   A(3,22,31)            118.413          estimate D2E/DX2                !
 ! A42   A(9,22,31)            118.6418         estimate D2E/DX2                !
 ! A43   A(7,23,24)            114.8164         estimate D2E/DX2                !
 ! A44   A(7,23,25)            122.5836         estimate D2E/DX2                !
 ! A45   A(24,23,25)           122.5256         estimate D2E/DX2                !
 ! A46   A(23,24,26)           116.0301         estimate D2E/DX2                !
 ! A47   A(23,24,51)           123.2978         estimate D2E/DX2                !
 ! A48   A(26,24,51)           120.6708         estimate D2E/DX2                !
 ! A49   A(23,25,27)           119.5296         estimate D2E/DX2                !
 ! A50   A(23,25,30)           120.1016         estimate D2E/DX2                !
 ! A51   A(27,25,30)           120.3646         estimate D2E/DX2                !
 ! A52   A(24,26,28)           122.265          estimate D2E/DX2                !
 ! A53   A(24,26,47)           117.6603         estimate D2E/DX2                !
 ! A54   A(28,26,47)           120.0741         estimate D2E/DX2                !
 ! A55   A(25,27,28)           119.3588         estimate D2E/DX2                !
 ! A56   A(25,27,29)           120.0705         estimate D2E/DX2                !
 ! A57   A(28,27,29)           120.5698         estimate D2E/DX2                !
 ! A58   A(26,28,27)           120.2689         estimate D2E/DX2                !
 ! A59   A(26,28,46)           120.014          estimate D2E/DX2                !
 ! A60   A(27,28,46)           119.717          estimate D2E/DX2                !
 ! A61   A(22,31,32)           117.4029         estimate D2E/DX2                !
 ! A62   A(22,31,33)           121.6804         estimate D2E/DX2                !
 ! A63   A(32,31,33)           120.916          estimate D2E/DX2                !
 ! A64   A(31,32,34)           119.8171         estimate D2E/DX2                !
 ! A65   A(31,32,35)           118.8326         estimate D2E/DX2                !
 ! A66   A(34,32,35)           121.35           estimate D2E/DX2                !
 ! A67   A(31,33,36)           119.4496         estimate D2E/DX2                !
 ! A68   A(31,33,37)           119.9296         estimate D2E/DX2                !
 ! A69   A(36,33,37)           120.6208         estimate D2E/DX2                !
 ! A70   A(32,34,38)           119.8004         estimate D2E/DX2                !
 ! A71   A(32,34,39)           119.0235         estimate D2E/DX2                !
 ! A72   A(38,34,39)           121.1761         estimate D2E/DX2                !
 ! A73   A(33,36,38)           120.2971         estimate D2E/DX2                !
 ! A74   A(33,36,40)           121.3823         estimate D2E/DX2                !
 ! A75   A(38,36,40)           118.3205         estimate D2E/DX2                !
 ! A76   A(34,38,36)           119.7198         estimate D2E/DX2                !
 ! A77   A(34,38,41)           124.3037         estimate D2E/DX2                !
 ! A78   A(36,38,41)           115.9765         estimate D2E/DX2                !
 ! A79   A(38,41,42)           119.2493         estimate D2E/DX2                !
 ! A80   A(41,42,43)           106.4559         estimate D2E/DX2                !
 ! A81   A(41,42,44)           111.6302         estimate D2E/DX2                !
 ! A82   A(41,42,45)           111.6211         estimate D2E/DX2                !
 ! A83   A(43,42,44)           109.067          estimate D2E/DX2                !
 ! A84   A(43,42,45)           109.0786         estimate D2E/DX2                !
 ! A85   A(44,42,45)           108.9113         estimate D2E/DX2                !
 ! A86   A(24,51,48)           109.9902         estimate D2E/DX2                !
 ! A87   A(24,51,49)           110.112          estimate D2E/DX2                !
 ! A88   A(24,51,50)           109.4932         estimate D2E/DX2                !
 ! A89   A(48,51,49)           109.3945         estimate D2E/DX2                !
 ! A90   A(48,51,50)           110.4806         estimate D2E/DX2                !
 ! A91   A(49,51,50)           107.3317         estimate D2E/DX2                !
 ! D1    D(6,1,2,3)             -1.1992         estimate D2E/DX2                !
 ! D2    D(6,1,2,16)           179.0243         estimate D2E/DX2                !
 ! D3    D(15,1,2,3)           179.286          estimate D2E/DX2                !
 ! D4    D(15,1,2,16)           -0.4904         estimate D2E/DX2                !
 ! D5    D(2,1,6,5)             -0.7853         estimate D2E/DX2                !
 ! D6    D(2,1,6,18)          -178.9972         estimate D2E/DX2                !
 ! D7    D(15,1,6,5)           178.7268         estimate D2E/DX2                !
 ! D8    D(15,1,6,18)            0.5149         estimate D2E/DX2                !
 ! D9    D(1,2,3,4)              1.8158         estimate D2E/DX2                !
 ! D10   D(1,2,3,22)           179.181          estimate D2E/DX2                !
 ! D11   D(16,2,3,4)          -178.4064         estimate D2E/DX2                !
 ! D12   D(16,2,3,22)           -1.0411         estimate D2E/DX2                !
 ! D13   D(2,3,4,5)             -0.5089         estimate D2E/DX2                !
 ! D14   D(2,3,4,7)            174.5234         estimate D2E/DX2                !
 ! D15   D(22,3,4,5)          -177.9227         estimate D2E/DX2                !
 ! D16   D(22,3,4,7)            -2.8903         estimate D2E/DX2                !
 ! D17   D(2,3,22,9)           174.8533         estimate D2E/DX2                !
 ! D18   D(2,3,22,31)          -16.3279         estimate D2E/DX2                !
 ! D19   D(4,3,22,9)            -7.7741         estimate D2E/DX2                !
 ! D20   D(4,3,22,31)          161.0447         estimate D2E/DX2                !
 ! D21   D(3,4,5,6)             -1.4797         estimate D2E/DX2                !
 ! D22   D(3,4,5,17)           178.1128         estimate D2E/DX2                !
 ! D23   D(7,4,5,6)           -176.395          estimate D2E/DX2                !
 ! D24   D(7,4,5,17)             3.1975         estimate D2E/DX2                !
 ! D25   D(3,4,7,8)             12.91           estimate D2E/DX2                !
 ! D26   D(3,4,7,23)          -159.0878         estimate D2E/DX2                !
 ! D27   D(5,4,7,8)           -172.1937         estimate D2E/DX2                !
 ! D28   D(5,4,7,23)            15.8085         estimate D2E/DX2                !
 ! D29   D(4,5,6,1)              2.1252         estimate D2E/DX2                !
 ! D30   D(4,5,6,18)          -179.6707         estimate D2E/DX2                !
 ! D31   D(17,5,6,1)          -177.4535         estimate D2E/DX2                !
 ! D32   D(17,5,6,18)            0.7506         estimate D2E/DX2                !
 ! D33   D(4,7,8,9)            -12.5685         estimate D2E/DX2                !
 ! D34   D(4,7,8,14)           173.6118         estimate D2E/DX2                !
 ! D35   D(23,7,8,9)           159.3529         estimate D2E/DX2                !
 ! D36   D(23,7,8,14)          -14.4668         estimate D2E/DX2                !
 ! D37   D(4,7,23,24)           72.5874         estimate D2E/DX2                !
 ! D38   D(4,7,23,25)         -110.4786         estimate D2E/DX2                !
 ! D39   D(8,7,23,24)          -99.2973         estimate D2E/DX2                !
 ! D40   D(8,7,23,25)           77.6367         estimate D2E/DX2                !
 ! D41   D(7,8,9,10)          -174.8404         estimate D2E/DX2                !
 ! D42   D(7,8,9,22)             2.2506         estimate D2E/DX2                !
 ! D43   D(14,8,9,10)           -0.8037         estimate D2E/DX2                !
 ! D44   D(14,8,9,22)          176.2873         estimate D2E/DX2                !
 ! D45   D(7,8,14,13)          176.1141         estimate D2E/DX2                !
 ! D46   D(7,8,14,21)           -3.4711         estimate D2E/DX2                !
 ! D47   D(9,8,14,13)            2.2823         estimate D2E/DX2                !
 ! D48   D(9,8,14,21)         -177.3028         estimate D2E/DX2                !
 ! D49   D(8,9,10,11)          179.0339         estimate D2E/DX2                !
 ! D50   D(8,9,10,12)           -1.057          estimate D2E/DX2                !
 ! D51   D(22,9,10,11)           1.9778         estimate D2E/DX2                !
 ! D52   D(22,9,10,12)        -178.1131         estimate D2E/DX2                !
 ! D53   D(8,9,22,3)             8.0883         estimate D2E/DX2                !
 ! D54   D(8,9,22,31)         -160.7059         estimate D2E/DX2                !
 ! D55   D(10,9,22,3)         -174.8551         estimate D2E/DX2                !
 ! D56   D(10,9,22,31)          16.3507         estimate D2E/DX2                !
 ! D57   D(9,10,12,13)           1.5199         estimate D2E/DX2                !
 ! D58   D(9,10,12,19)        -179.3079         estimate D2E/DX2                !
 ! D59   D(11,10,12,13)       -178.5717         estimate D2E/DX2                !
 ! D60   D(11,10,12,19)          0.6005         estimate D2E/DX2                !
 ! D61   D(10,12,13,14)         -0.0583         estimate D2E/DX2                !
 ! D62   D(10,12,13,20)        178.6604         estimate D2E/DX2                !
 ! D63   D(19,12,13,14)       -179.2262         estimate D2E/DX2                !
 ! D64   D(19,12,13,20)         -0.5075         estimate D2E/DX2                !
 ! D65   D(12,13,14,8)          -1.8688         estimate D2E/DX2                !
 ! D66   D(12,13,14,21)        177.7046         estimate D2E/DX2                !
 ! D67   D(20,13,14,8)         179.417          estimate D2E/DX2                !
 ! D68   D(20,13,14,21)         -1.0095         estimate D2E/DX2                !
 ! D69   D(3,22,31,32)         -83.8483         estimate D2E/DX2                !
 ! D70   D(3,22,31,33)          95.8419         estimate D2E/DX2                !
 ! D71   D(9,22,31,32)          85.354          estimate D2E/DX2                !
 ! D72   D(9,22,31,33)         -94.9557         estimate D2E/DX2                !
 ! D73   D(7,23,24,26)         176.237          estimate D2E/DX2                !
 ! D74   D(7,23,24,51)          -4.1688         estimate D2E/DX2                !
 ! D75   D(25,23,24,26)         -0.699          estimate D2E/DX2                !
 ! D76   D(25,23,24,51)        178.8952         estimate D2E/DX2                !
 ! D77   D(7,23,25,27)        -177.3583         estimate D2E/DX2                !
 ! D78   D(7,23,25,30)           3.3875         estimate D2E/DX2                !
 ! D79   D(24,23,25,27)         -0.6592         estimate D2E/DX2                !
 ! D80   D(24,23,25,30)       -179.9134         estimate D2E/DX2                !
 ! D81   D(23,24,26,28)          1.4102         estimate D2E/DX2                !
 ! D82   D(23,24,26,47)       -178.3004         estimate D2E/DX2                !
 ! D83   D(51,24,26,28)       -178.1954         estimate D2E/DX2                !
 ! D84   D(51,24,26,47)          2.094          estimate D2E/DX2                !
 ! D85   D(23,24,51,48)        158.2414         estimate D2E/DX2                !
 ! D86   D(23,24,51,49)         37.6098         estimate D2E/DX2                !
 ! D87   D(23,24,51,50)        -80.1756         estimate D2E/DX2                !
 ! D88   D(26,24,51,48)        -22.1825         estimate D2E/DX2                !
 ! D89   D(26,24,51,49)       -142.8142         estimate D2E/DX2                !
 ! D90   D(26,24,51,50)         99.4004         estimate D2E/DX2                !
 ! D91   D(23,25,27,28)          1.3425         estimate D2E/DX2                !
 ! D92   D(23,25,27,29)       -178.9858         estimate D2E/DX2                !
 ! D93   D(30,25,27,28)       -179.4053         estimate D2E/DX2                !
 ! D94   D(30,25,27,29)          0.2664         estimate D2E/DX2                !
 ! D95   D(24,26,28,27)         -0.7678         estimate D2E/DX2                !
 ! D96   D(24,26,28,46)        179.3848         estimate D2E/DX2                !
 ! D97   D(47,26,28,27)        178.9359         estimate D2E/DX2                !
 ! D98   D(47,26,28,46)         -0.9114         estimate D2E/DX2                !
 ! D99   D(25,27,28,26)         -0.6602         estimate D2E/DX2                !
 ! D100  D(25,27,28,46)        179.1876         estimate D2E/DX2                !
 ! D101  D(29,27,28,26)        179.6698         estimate D2E/DX2                !
 ! D102  D(29,27,28,46)         -0.4824         estimate D2E/DX2                !
 ! D103  D(22,31,32,34)        179.7604         estimate D2E/DX2                !
 ! D104  D(22,31,32,35)         -0.0568         estimate D2E/DX2                !
 ! D105  D(33,31,32,34)          0.0677         estimate D2E/DX2                !
 ! D106  D(33,31,32,35)       -179.7495         estimate D2E/DX2                !
 ! D107  D(22,31,33,36)       -179.7869         estimate D2E/DX2                !
 ! D108  D(22,31,33,37)          0.1619         estimate D2E/DX2                !
 ! D109  D(32,31,33,36)         -0.1074         estimate D2E/DX2                !
 ! D110  D(32,31,33,37)        179.8414         estimate D2E/DX2                !
 ! D111  D(31,32,34,38)         -0.0091         estimate D2E/DX2                !
 ! D112  D(31,32,34,39)       -179.9007         estimate D2E/DX2                !
 ! D113  D(35,32,34,38)        179.8033         estimate D2E/DX2                !
 ! D114  D(35,32,34,39)         -0.0882         estimate D2E/DX2                !
 ! D115  D(31,33,36,38)          0.0888         estimate D2E/DX2                !
 ! D116  D(31,33,36,40)        179.9877         estimate D2E/DX2                !
 ! D117  D(37,33,36,38)       -179.8597         estimate D2E/DX2                !
 ! D118  D(37,33,36,40)          0.0392         estimate D2E/DX2                !
 ! D119  D(32,34,38,36)         -0.0087         estimate D2E/DX2                !
 ! D120  D(32,34,38,41)       -179.9755         estimate D2E/DX2                !
 ! D121  D(39,34,38,36)        179.8805         estimate D2E/DX2                !
 ! D122  D(39,34,38,41)         -0.0863         estimate D2E/DX2                !
 ! D123  D(33,36,38,34)         -0.0316         estimate D2E/DX2                !
 ! D124  D(33,36,38,41)        179.9379         estimate D2E/DX2                !
 ! D125  D(40,36,38,34)       -179.9336         estimate D2E/DX2                !
 ! D126  D(40,36,38,41)          0.0359         estimate D2E/DX2                !
 ! D127  D(34,38,41,42)          0.2613         estimate D2E/DX2                !
 ! D128  D(36,38,41,42)       -179.7066         estimate D2E/DX2                !
 ! D129  D(38,41,42,43)        179.8489         estimate D2E/DX2                !
 ! D130  D(38,41,42,44)        -61.2331         estimate D2E/DX2                !
 ! D131  D(38,41,42,45)         60.922          estimate D2E/DX2                !
 --------------------------------------------------------------------------------
 Trust Radius=3.00D-01 FncErr=1.00D-07 GrdErr=1.00D-06
 Number of steps in this run=    287 maximum allowed number of steps=    306.
 GradGradGradGradGradGradGradGradGradGradGradGradGradGradGradGradGradGrad

 Leave Link  103 at Tue Mar 30 06:25:52 2021, MaxMem=  5242880000 cpu:         0.2
 (Enter /opt/nce/packages/global/g09/l202.exe)
 Symmetry turned off by external request.
 Stoichiometry    C26H19BF3NO
 Framework group  C1[X(C26H19BF3NO)]
 Deg. of freedom   147
 Full point group                 C1      NOp   1
                          Input orientation:                          
 ---------------------------------------------------------------------
 Center     Atomic      Atomic             Coordinates (Angstroms)
 Number     Number       Type             X           Y           Z
 ---------------------------------------------------------------------
      1          6           0       -0.332078    3.112986   -1.957496
      2          6           0       -1.052431    1.986657   -1.610547
      3          6           0       -0.367351    0.799471   -1.264706
      4          6           0        1.060834    0.791432   -1.240835
      5          6           0        1.761889    1.983562   -1.578612
      6          6           0        1.081868    3.117164   -1.951850
      7          6           0        1.738202   -0.360301   -0.782966
      8          6           0        1.015539   -1.569392   -0.619827
      9          6           0       -0.411676   -1.530628   -0.658205
     10          6           0       -1.150659   -2.707664   -0.388250
     11          1           0       -2.238275   -2.676303   -0.401536
     12          6           0       -0.488121   -3.886675   -0.112073
     13          6           0        0.924615   -3.938594   -0.061272
     14          6           0        1.657023   -2.796957   -0.291569
     15          1           0       -0.871945    4.021613   -2.234412
     16          1           0       -2.140265    2.006239   -1.605271
     17          1           0        2.849559    1.968660   -1.524854
     18          1           0        1.625440    4.025872   -2.214627
     19          1           0       -1.069773   -4.790539    0.083340
     20          1           0        1.427526   -4.876602    0.180408
     21          1           0        2.743954   -2.805372   -0.221080
     22          7           0       -1.053017   -0.335956   -0.897930
     23          6           0        3.136459   -0.249431   -0.313562
     24          6           0        3.293609    0.390211    0.939830
     25          6           0        4.217064   -0.795276   -1.022690
     26          6           0        4.601728    0.436428    1.448393
     27          6           0        5.505126   -0.701317   -0.493311
     28          6           0        5.692562   -0.088557    0.750228
     29          1           0        6.355300   -1.108699   -1.045933
     30          1           0        4.050456   -1.279636   -1.989016
     31          6           0       -2.441961   -0.209491   -0.525966
     32          6           0       -2.723189    0.156651    0.789692
     33          6           0       -3.471066   -0.436717   -1.443579
     34          6           0       -4.049045    0.298439    1.202362
     35          1           0       -1.891525    0.330072    1.478024
     36          6           0       -4.793164   -0.297378   -1.036364
     37          1           0       -3.232436   -0.720234   -2.470523
     38          6           0       -5.093080    0.071414    0.288924
     39          1           0       -4.253883    0.586498    2.232493
     40          1           0       -5.621045   -0.466875   -1.726407
     41          8           0       -6.404222    0.182666    0.589301
     42          6           0       -6.783348    0.555324    1.898332
     43          1           0       -7.880359    0.583963    1.907992
     44          1           0       -6.435065   -0.177544    2.647112
     45          1           0       -6.393926    1.553111    2.166142
     46          1           0        6.697479   -0.023640    1.176603
     47          1           0        4.749358    0.898922    2.427458
     48          9           0        2.370115    1.164652    3.125041
     49          9           0        0.857991    0.250998    1.635050
     50          9           0        1.744817    2.333618    1.243469
     51          5           0        2.040384    1.061855    1.777731
 ---------------------------------------------------------------------
 Rotational constants (GHZ):      0.2540006      0.0949733      0.0871286
 Leave Link  202 at Tue Mar 30 06:25:52 2021, MaxMem=  5242880000 cpu:         0.1
 (Enter /opt/nce/packages/global/g09/l301.exe)
 Standard basis: def2TZVP (5D, 7F)
 Ernie: Thresh=  0.10000D-02 Tol=  0.10000D-05 Strict=F.
  1106 basis functions,  1784 primitive gaussians,  1266 cartesian basis functions
   111 alpha electrons      111 beta electrons
       nuclear repulsion energy      3171.3645635878 Hartrees.
 IExCor= 2523 DFT=T Ex=TPSS Corr=TPSS ExCW=0 ScaHFX=  0.000000
 ScaDFX=  1.000000  1.000000  1.000000  1.000000 ScalE2=  1.000000  1.000000
 IRadAn=      5 IRanWt=     -1 IRanGd=            0 ICorTp=0 IEmpDi=  4
 NAtoms=   51 NActive=   51 NUniq=   51 SFac= 1.00D+00 NAtFMM=   60 NAOKFM=F Big=F
 Integral buffers will be    131072 words long.
 Raffenetti 2 integral format.
 Two-electron integral symmetry is turned off.
 ------------------------------------------------------------------------------
 Polarizable Continuum Model (PCM)
 =================================
 Model                : PCM (using non-symmetric T matrix).
 Atomic radii         : SMD-Coulomb.
 Polarization charges : Total charges.
 Charge compensation  : None.
 Solution method      : On-the-fly selection.
 Cavity type          : VdW (van der Waals Surface) (Alpha=1.000).
 Cavity algorithm     : GePol (No added spheres)
                        Default sphere list used, NSphG=   51.
                        Lebedev-Laikov grids with approx.  5.0 points / Ang**2.
                        Smoothing algorithm: York/Karplus (Gamma=1.0000).
                        Polarization charges: spherical gaussians, with
                                              point-specific exponents (IZeta= 3).
                        Self-potential: point-specific (ISelfS= 7).
                        Self-field    : sphere-specific E.n sum rule (ISelfD= 2).
 1st derivatives      : Analytical E(r).r(x)/FMM algorithm (CHGder, D1EAlg=3).
                        Cavity 1st derivative terms included.
 Solvent              : Acetonitrile, Eps=  35.688000 Eps(inf)=   1.806874
 ------------------------------------------------------------------------------
 GePol: Number of generator spheres                  =      51
 GePol: Total number of spheres                      =      51
 GePol: Number of exposed spheres                    =      51 (100.00%)
 GePol: Number of points                             =    3725
 GePol: Average weight of points                     =       0.11
 GePol: Minimum weight of points                     =   0.11D-11
 GePol: Maximum weight of points                     =    0.21559
 GePol: Number of points with low weight             =     216
 GePol: Fraction of low-weight points (<1% of avg)   =       5.80%
 GePol: Cavity surface area                          =    423.364 Ang**2
 GePol: Cavity volume                                =    428.479 Ang**3
 ------------------------------------------------------------------------------
 Atomic radii for non-electrostatic terms: SMD-CDS.
 ------------------------------------------------------------------------------
 PCM non-electrostatic energy =        -0.0064811014 Hartrees.
 Nuclear repulsion after PCM non-electrostatic terms =     3171.3580824863 Hartrees.
 Leave Link  301 at Tue Mar 30 06:25:52 2021, MaxMem=  5242880000 cpu:         1.7
 (Enter /opt/nce/packages/global/g09/l302.exe)
 NPDir=0 NMtPBC=     1 NCelOv=     1 NCel=       1 NClECP=     1 NCelD=      1
         NCelK=      1 NCelE2=     1 NClLst=     1 CellRange=     0.0.
 One-electron integrals computed using PRISM.
   1 Symmetry operations used in ECPInt.
 ECPInt:  NShTT=   91806 NPrTT=  285396 LenC2=   75635 LenP2D=  160885.
 LDataN:  DoStor=T MaxTD1= 6 Len=  172
 NBasis=  1106 RedAO= T EigKep=  5.16D-06  NBF=  1106
 NBsUse=  1106 1.00D-06 EigRej= -1.00D+00 NBFU=  1106
 Precomputing XC quadrature grid using
 IXCGrd= 4 IRadAn=           5 IRanWt=          -1 IRanGd=           0 AccXCQ= 0.00D+00.
 Generated NRdTot=       0 NPtTot=           0 NUsed=           0 NTot=          32
 NSgBfM=  1213  1213  1213  1214  1214 MxSgAt=    51 MxSgA2=    51.
 Leave Link  302 at Tue Mar 30 06:25:55 2021, MaxMem=  5242880000 cpu:        31.8
 (Enter /opt/nce/packages/global/g09/l303.exe)
 DipDrv:  MaxL=1.
 Leave Link  303 at Tue Mar 30 06:25:55 2021, MaxMem=  5242880000 cpu:         3.1
 (Enter /opt/nce/packages/global/g09/l401.exe)
 ExpMin= 6.06D-02 ExpMax= 3.55D+04 ExpMxC= 1.21D+03 IAcc=3 IRadAn=         5 AccDes= 0.00D+00
 Harris functional with IExCor= 1009 and IRadAn=       5 diagonalized for initial guess.
 HarFok:  IExCor= 1009 AccDes= 0.00D+00 IRadAn=         5 IDoV= 1 UseB2=F ITyADJ=14
 ICtDFT=  3500011 ScaDFX=  1.000000  1.000000  1.000000  1.000000
 FoFCou: FMM=F IPFlag=           0 FMFlag=      100000 FMFlg1=           0
         NFxFlg=           0 DoJE=T BraDBF=F KetDBF=T FulRan=T
         wScrn=  0.000000 ICntrl=     500 IOpCl=  0 I1Cent=   200000004 NGrid=           0
         NMat0=    1 NMatS0=      1 NMatT0=    0 NMatD0=    1 NMtDS0=    0 NMtDT0=    0
 Symmetry not used in FoFCou.
 Harris En= -1455.95197040597    
 JPrj=0 DoOrth=F DoCkMO=F.
 Leave Link  401 at Tue Mar 30 06:26:07 2021, MaxMem=  5242880000 cpu:       141.7
 (Enter /opt/nce/packages/global/g09/l502.exe)
 Closed shell SCF:
 Using DIIS extrapolation, IDIIS=  1040.
 Two-electron integral symmetry not used.
 IVT=     4849708 IEndB=     4849708 NGot=  5242880000 MDV=  5239650955
 LenX=  5239650955 LenY=  5238046933
 Requested convergence on RMS density matrix=1.00D-08 within 128 cycles.
 Requested convergence on MAX density matrix=1.00D-06.
 Requested convergence on             energy=1.00D-06.
 No special actions if energy rises.
 Fock matrices will be formed incrementally for  20 cycles.

 Cycle   1  Pass 1  IDiag  1:
 FoFJK:  IHMeth= 1 ICntrl=     500 DoSepK=F KAlg= 0 I1Cent=   0 FoldK=F
 IRaf= 710000000 NMat=   1 IRICut=       1 DoRegI=T DoRafI=F ISym2E= 0.
 FoFCou: FMM=F IPFlag=           0 FMFlag=      100000 FMFlg1=           0
         NFxFlg=           0 DoJE=T BraDBF=F KetDBF=F FulRan=T
         wScrn=  0.000000 ICntrl=     500 IOpCl=  0 I1Cent=           0 NGrid=           0
         NMat0=    1 NMatS0=      1 NMatT0=    0 NMatD0=    1 NMtDS0=    0 NMtDT0=    0
 Symmetry not used in FoFCou.
 Inv3:  Mode=1 IEnd=    41626875.
 Iteration    1 A*A^-1 deviation from unit magnitude is 6.44D-15 for   3700.
 Iteration    1 A*A^-1 deviation from orthogonality  is 3.55D-15 for   2671    119.
 Iteration    1 A^-1*A deviation from unit magnitude is 6.00D-15 for   3701.
 Iteration    1 A^-1*A deviation from orthogonality  is 9.33D-13 for   3176   3157.
 E= -1456.99621102014    
 DIIS: error= 1.64D-02 at cycle   1 NSaved=   1.
 NSaved= 1 IEnMin= 1 EnMin= -1456.99621102014     IErMin= 1 ErrMin= 1.64D-02
 ErrMax= 1.64D-02  0.00D+00 EMaxC= 1.00D-01 BMatC= 6.20D-01 BMatP= 6.20D-01
 IDIUse=3 WtCom= 8.36D-01 WtEn= 1.64D-01
 Coeff-Com:  0.100D+01
 Coeff-En:   0.100D+01
 Coeff:      0.100D+01
 Gap=     0.066 Goal=   None    Shift=    0.000
 GapD=    0.066 DampG=0.500 DampE=0.500 DampFc=0.2500 IDamp=-1.
 Damping current iteration by 2.50D-01
 RMSDP=4.73D-03 MaxDP=6.08D-01              OVMax= 4.06D-01

 Cycle   2  Pass 1  IDiag  1:
 RMSU=  1.17D-03    CP:  1.03D+00
 E= -1457.18269971085     Delta-E=       -0.186488690710 Rises=F Damp=T
 DIIS: error= 7.82D-03 at cycle   2 NSaved=   2.
 NSaved= 2 IEnMin= 2 EnMin= -1457.18269971085     IErMin= 2 ErrMin= 7.82D-03
 ErrMax= 7.82D-03  0.00D+00 EMaxC= 1.00D-01 BMatC= 1.59D-01 BMatP= 6.20D-01
 IDIUse=3 WtCom= 9.22D-01 WtEn= 7.82D-02
 Coeff-Com: -0.589D+00 0.159D+01
 Coeff-En:   0.000D+00 0.100D+01
 Coeff:     -0.543D+00 0.154D+01
 Gap=     0.102 Goal=   None    Shift=    0.000
 RMSDP=1.07D-03 MaxDP=1.94D-01 DE=-1.86D-01 OVMax= 5.71D-01

 Cycle   3  Pass 1  IDiag  1:
 RMSU=  1.01D-03    CP:  9.93D-01  1.26D+00
 E= -1457.38063709304     Delta-E=       -0.197937382186 Rises=F Damp=F
 DIIS: error= 8.96D-03 at cycle   3 NSaved=   3.
 NSaved= 3 IEnMin= 3 EnMin= -1457.38063709304     IErMin= 2 ErrMin= 7.82D-03
 ErrMax= 8.96D-03  0.00D+00 EMaxC= 1.00D-01 BMatC= 1.40D-01 BMatP= 1.59D-01
 IDIUse=3 WtCom= 9.10D-01 WtEn= 8.96D-02
 Coeff-Com: -0.480D+00 0.103D+01 0.455D+00
 Coeff-En:   0.000D+00 0.000D+00 0.100D+01
 Coeff:     -0.437D+00 0.933D+00 0.504D+00
 Gap=     0.094 Goal=   None    Shift=    0.000
 RMSDP=6.35D-04 MaxDP=9.15D-02 DE=-1.98D-01 OVMax= 2.62D-01

 Cycle   4  Pass 1  IDiag  1:
 RMSU=  5.23D-04    CP:  9.98D-01  1.13D+00  6.76D-01
 E= -1457.47447393577     Delta-E=       -0.093836842735 Rises=F Damp=F
 DIIS: error= 5.43D-03 at cycle   4 NSaved=   4.
 NSaved= 4 IEnMin= 4 EnMin= -1457.47447393577     IErMin= 4 ErrMin= 5.43D-03
 ErrMax= 5.43D-03  0.00D+00 EMaxC= 1.00D-01 BMatC= 5.89D-02 BMatP= 1.40D-01
 IDIUse=3 WtCom= 9.46D-01 WtEn= 5.43D-02
 Coeff-Com: -0.186D+00 0.359D+00 0.387D+00 0.440D+00
 Coeff-En:   0.000D+00 0.000D+00 0.337D+00 0.663D+00
 Coeff:     -0.176D+00 0.340D+00 0.384D+00 0.452D+00
 Gap=     0.073 Goal=   None    Shift=    0.000
 RMSDP=2.70D-04 MaxDP=3.27D-02 DE=-9.38D-02 OVMax= 1.66D-01

 Cycle   5  Pass 1  IDiag  1:
 RMSU=  2.05D-04    CP:  9.99D-01  1.13D+00  7.18D-01  6.75D-01
 E= -1457.53038973492     Delta-E=       -0.055915799150 Rises=F Damp=F
 DIIS: error= 1.55D-03 at cycle   5 NSaved=   5.
 NSaved= 5 IEnMin= 5 EnMin= -1457.53038973492     IErMin= 5 ErrMin= 1.55D-03
 ErrMax= 1.55D-03  0.00D+00 EMaxC= 1.00D-01 BMatC= 6.26D-03 BMatP= 5.89D-02
 IDIUse=3 WtCom= 9.85D-01 WtEn= 1.55D-02
 Coeff-Com: -0.552D-01 0.927D-01 0.200D+00 0.312D+00 0.450D+00
 Coeff-En:   0.000D+00 0.000D+00 0.000D+00 0.796D-01 0.920D+00
 Coeff:     -0.544D-01 0.913D-01 0.197D+00 0.309D+00 0.458D+00
 Gap=     0.078 Goal=   None    Shift=    0.000
 RMSDP=1.89D-04 MaxDP=3.60D-02 DE=-5.59D-02 OVMax= 5.04D-02

 Cycle   6  Pass 1  IDiag  1:
 RMSU=  7.75D-05    CP:  9.98D-01  1.19D+00  7.84D-01  6.22D-01  3.37D-01
 E= -1457.53581335442     Delta-E=       -0.005423619496 Rises=F Damp=F
 DIIS: error= 9.05D-04 at cycle   6 NSaved=   6.
 NSaved= 6 IEnMin= 6 EnMin= -1457.53581335442     IErMin= 6 ErrMin= 9.05D-04
 ErrMax= 9.05D-04  0.00D+00 EMaxC= 1.00D-01 BMatC= 1.17D-03 BMatP= 6.26D-03
 IDIUse=3 WtCom= 9.91D-01 WtEn= 9.05D-03
 Coeff-Com: -0.151D-01 0.203D-01 0.779D-01 0.135D+00 0.328D+00 0.453D+00
 Coeff-En:   0.000D+00 0.000D+00 0.000D+00 0.000D+00 0.217D+00 0.783D+00
 Coeff:     -0.149D-01 0.201D-01 0.772D-01 0.134D+00 0.327D+00 0.456D+00
 Gap=     0.077 Goal=   None    Shift=    0.000
 RMSDP=5.62D-05 MaxDP=7.34D-03 DE=-5.42D-03 OVMax= 1.79D-02

 Cycle   7  Pass 1  IDiag  1:
 RMSU=  3.09D-05    CP:  9.97D-01  1.17D+00  7.76D-01  6.40D-01  4.37D-01
                    CP:  5.70D-01
 E= -1457.53707006702     Delta-E=       -0.001256712594 Rises=F Damp=F
 DIIS: error= 2.19D-04 at cycle   7 NSaved=   7.
 NSaved= 7 IEnMin= 7 EnMin= -1457.53707006702     IErMin= 7 ErrMin= 2.19D-04
 ErrMax= 2.19D-04  0.00D+00 EMaxC= 1.00D-01 BMatC= 1.36D-04 BMatP= 1.17D-03
 IDIUse=3 WtCom= 9.98D-01 WtEn= 2.19D-03
 Coeff-Com: -0.252D-02 0.204D-02 0.159D-01 0.304D-01 0.139D+00 0.304D+00
 Coeff-Com:  0.511D+00
 Coeff-En:   0.000D+00 0.000D+00 0.000D+00 0.000D+00 0.000D+00 0.778D-01
 Coeff-En:   0.922D+00
 Coeff:     -0.252D-02 0.204D-02 0.158D-01 0.303D-01 0.139D+00 0.304D+00
 Coeff:      0.512D+00
 Gap=     0.077 Goal=   None    Shift=    0.000
 RMSDP=1.91D-05 MaxDP=2.51D-03 DE=-1.26D-03 OVMax= 3.39D-03

 Cycle   8  Pass 1  IDiag  1:
 RMSU=  1.16D-05    CP:  9.97D-01  1.17D+00  7.72D-01  6.35D-01  4.70D-01
                    CP:  6.43D-01  6.33D-01
 E= -1457.53719055425     Delta-E=       -0.000120487238 Rises=F Damp=F
 DIIS: error= 1.06D-04 at cycle   8 NSaved=   8.
 NSaved= 8 IEnMin= 8 EnMin= -1457.53719055425     IErMin= 8 ErrMin= 1.06D-04
 ErrMax= 1.06D-04  0.00D+00 EMaxC= 1.00D-01 BMatC= 1.08D-05 BMatP= 1.36D-04
 IDIUse=3 WtCom= 9.99D-01 WtEn= 1.06D-03
 Coeff-Com: -0.748D-03 0.475D-03 0.277D-02 0.600D-02 0.545D-01 0.144D+00
 Coeff-Com:  0.305D+00 0.488D+00
 Coeff-En:   0.000D+00 0.000D+00 0.000D+00 0.000D+00 0.000D+00 0.000D+00
 Coeff-En:   0.172D-01 0.983D+00
 Coeff:     -0.747D-03 0.474D-03 0.277D-02 0.600D-02 0.544D-01 0.144D+00
 Coeff:      0.305D+00 0.488D+00
 Gap=     0.077 Goal=   None    Shift=    0.000
 RMSDP=8.53D-06 MaxDP=1.75D-03 DE=-1.20D-04 OVMax= 1.85D-03

 Cycle   9  Pass 1  IDiag  1:
 RMSU=  4.68D-06    CP:  9.98D-01  1.18D+00  7.73D-01  6.38D-01  4.57D-01
                    CP:  6.34D-01  7.19D-01  6.32D-01
 E= -1457.53719960206     Delta-E=       -0.000009047804 Rises=F Damp=F
 DIIS: error= 4.40D-05 at cycle   9 NSaved=   9.
 NSaved= 9 IEnMin= 9 EnMin= -1457.53719960206     IErMin= 9 ErrMin= 4.40D-05
 ErrMax= 4.40D-05  0.00D+00 EMaxC= 1.00D-01 BMatC= 2.04D-06 BMatP= 1.08D-05
 IDIUse=1 WtCom= 1.00D+00 WtEn= 0.00D+00
 Coeff-Com: -0.191D-03 0.879D-04-0.201D-03 0.836D-04 0.181D-01 0.565D-01
 Coeff-Com:  0.134D+00 0.332D+00 0.460D+00
 Coeff:     -0.191D-03 0.879D-04-0.201D-03 0.836D-04 0.181D-01 0.565D-01
 Coeff:      0.134D+00 0.332D+00 0.460D+00
 Gap=     0.077 Goal=   None    Shift=    0.000
 RMSDP=3.31D-06 MaxDP=6.89D-04 DE=-9.05D-06 OVMax= 5.89D-04

 Cycle  10  Pass 1  IDiag  1:
 RMSU=  1.18D-06    CP:  9.97D-01  1.17D+00  7.73D-01  6.37D-01  4.61D-01
                    CP:  6.44D-01  7.03D-01  7.28D-01  6.10D-01
 E= -1457.53720149014     Delta-E=       -0.000001888086 Rises=F Damp=F
 DIIS: error= 4.53D-06 at cycle  10 NSaved=  10.
 NSaved=10 IEnMin=10 EnMin= -1457.53720149014     IErMin=10 ErrMin= 4.53D-06
 ErrMax= 4.53D-06  0.00D+00 EMaxC= 1.00D-01 BMatC= 6.89D-08 BMatP= 2.04D-06
 IDIUse=1 WtCom= 1.00D+00 WtEn= 0.00D+00
 Coeff-Com: -0.853D-04 0.538D-04-0.222D-03-0.239D-03 0.727D-02 0.244D-01
 Coeff-Com:  0.587D-01 0.161D+00 0.253D+00 0.496D+00
 Coeff:     -0.853D-04 0.538D-04-0.222D-03-0.239D-03 0.727D-02 0.244D-01
 Coeff:      0.587D-01 0.161D+00 0.253D+00 0.496D+00
 Gap=     0.077 Goal=   None    Shift=    0.000
 RMSDP=6.17D-07 MaxDP=1.17D-04 DE=-1.89D-06 OVMax= 6.63D-05

 Cycle  11  Pass 1  IDiag  1:
 RMSU=  3.24D-07    CP:  9.97D-01  1.17D+00  7.73D-01  6.37D-01  4.60D-01
                    CP:  6.45D-01  7.07D-01  7.28D-01  6.43D-01  8.15D-01
 E= -1457.53720154698     Delta-E=       -0.000000056835 Rises=F Damp=F
 DIIS: error= 1.67D-06 at cycle  11 NSaved=  11.
 NSaved=11 IEnMin=11 EnMin= -1457.53720154698     IErMin=11 ErrMin= 1.67D-06
 ErrMax= 1.67D-06  0.00D+00 EMaxC= 1.00D-01 BMatC= 6.98D-09 BMatP= 6.89D-08
 IDIUse=1 WtCom= 1.00D+00 WtEn= 0.00D+00
 Coeff-Com: -0.207D-04 0.206D-04-0.769D-04-0.113D-03 0.111D-02 0.452D-02
 Coeff-Com:  0.109D-01 0.347D-01 0.616D-01 0.267D+00 0.620D+00
 Coeff:     -0.207D-04 0.206D-04-0.769D-04-0.113D-03 0.111D-02 0.452D-02
 Coeff:      0.109D-01 0.347D-01 0.616D-01 0.267D+00 0.620D+00
 Gap=     0.077 Goal=   None    Shift=    0.000
 RMSDP=2.22D-07 MaxDP=3.93D-05 DE=-5.68D-08 OVMax= 2.01D-05

 Cycle  12  Pass 1  IDiag  1:
 RMSU=  1.14D-07    CP:  9.97D-01  1.17D+00  7.73D-01  6.37D-01  4.61D-01
                    CP:  6.46D-01  7.06D-01  7.36D-01  6.37D-01  8.83D-01
                    CP:  7.82D-01
 E= -1457.53720155221     Delta-E=       -0.000000005235 Rises=F Damp=F
 DIIS: error= 8.00D-07 at cycle  12 NSaved=  12.
 NSaved=12 IEnMin=12 EnMin= -1457.53720155221     IErMin=12 ErrMin= 8.00D-07
 ErrMax= 8.00D-07  0.00D+00 EMaxC= 1.00D-01 BMatC= 1.12D-09 BMatP= 6.98D-09
 IDIUse=1 WtCom= 1.00D+00 WtEn= 0.00D+00
 Coeff-Com: -0.589D-05 0.761D-05-0.200D-04-0.354D-04 0.584D-04 0.607D-03
 Coeff-Com:  0.147D-02 0.685D-02 0.150D-01 0.120D+00 0.378D+00 0.478D+00
 Coeff:     -0.589D-05 0.761D-05-0.200D-04-0.354D-04 0.584D-04 0.607D-03
 Coeff:      0.147D-02 0.685D-02 0.150D-01 0.120D+00 0.378D+00 0.478D+00
 Gap=     0.077 Goal=   None    Shift=    0.000
 RMSDP=7.69D-08 MaxDP=1.43D-05 DE=-5.24D-09 OVMax= 8.96D-06

 Cycle  13  Pass 1  IDiag  1:
 RMSU=  3.31D-08    CP:  9.97D-01  1.17D+00  7.73D-01  6.37D-01  4.61D-01
                    CP:  6.46D-01  7.07D-01  7.35D-01  6.42D-01  8.86D-01
                    CP:  8.24D-01  6.83D-01
 E= -1457.53720155305     Delta-E=       -0.000000000835 Rises=F Damp=F
 DIIS: error= 2.31D-07 at cycle  13 NSaved=  13.
 NSaved=13 IEnMin=13 EnMin= -1457.53720155305     IErMin=13 ErrMin= 2.31D-07
 ErrMax= 2.31D-07  0.00D+00 EMaxC= 1.00D-01 BMatC= 6.87D-11 BMatP= 1.12D-09
 IDIUse=1 WtCom= 1.00D+00 WtEn= 0.00D+00
 Coeff-Com: -0.826D-06 0.141D-05-0.203D-05-0.587D-05-0.874D-04-0.206D-03
 Coeff-Com: -0.455D-03-0.412D-03 0.933D-03 0.316D-01 0.124D+00 0.251D+00
 Coeff-Com:  0.594D+00
 Coeff:     -0.826D-06 0.141D-05-0.203D-05-0.587D-05-0.874D-04-0.206D-03
 Coeff:     -0.455D-03-0.412D-03 0.933D-03 0.316D-01 0.124D+00 0.251D+00
 Coeff:      0.594D+00
 Gap=     0.077 Goal=   None    Shift=    0.000
 RMSDP=1.54D-08 MaxDP=1.69D-06 DE=-8.35D-10 OVMax= 2.59D-06

 Cycle  14  Pass 1  IDiag  1:
 RMSU=  9.37D-09    CP:  9.97D-01  1.17D+00  7.73D-01  6.37D-01  4.61D-01
                    CP:  6.46D-01  7.07D-01  7.36D-01  6.42D-01  8.91D-01
                    CP:  8.33D-01  7.09D-01  8.89D-01
 E= -1457.53720155313     Delta-E=       -0.000000000085 Rises=F Damp=F
 DIIS: error= 1.16D-07 at cycle  14 NSaved=  14.
 NSaved=14 IEnMin=14 EnMin= -1457.53720155313     IErMin=14 ErrMin= 1.16D-07
 ErrMax= 1.16D-07  0.00D+00 EMaxC= 1.00D-01 BMatC= 1.10D-11 BMatP= 6.87D-11
 IDIUse=1 WtCom= 1.00D+00 WtEn= 0.00D+00
 Coeff-Com: -0.121D-06 0.371D-06 0.392D-07-0.170D-05-0.606D-04-0.186D-03
 Coeff-Com: -0.417D-03-0.847D-03-0.649D-03 0.972D-02 0.457D-01 0.117D+00
 Coeff-Com:  0.366D+00 0.464D+00
 Coeff:     -0.121D-06 0.371D-06 0.392D-07-0.170D-05-0.606D-04-0.186D-03
 Coeff:     -0.417D-03-0.847D-03-0.649D-03 0.972D-02 0.457D-01 0.117D+00
 Coeff:      0.366D+00 0.464D+00
 Gap=     0.077 Goal=   None    Shift=    0.000
 RMSDP=4.82D-09 MaxDP=8.09D-07 DE=-8.46D-11 OVMax= 7.90D-07

 Error on total polarization charges =  0.05956
 SCF Done:  E(RTPSS-TPSS) =  -1457.53720155     A.U. after   14 cycles
            NFock= 14  Conv=0.48D-08     -V/T= 2.0044
 KE= 1.451130525134D+03 PE=-9.750566381372D+03 EE= 3.670540572199D+03
 SMD-CDS (non-electrostatic) energy       (kcal/mol) =      -4.07
 (included in total energy above)
 Leave Link  502 at Tue Mar 30 06:44:52 2021, MaxMem=  5242880000 cpu:     13395.9
 (Enter /opt/nce/packages/global/g09/l601.exe)
 Copying SCF densities to generalized density rwf, IOpCl= 0 IROHF=0.

 **********************************************************************

            Population analysis using the SCF density.

 **********************************************************************

 Alpha  occ. eigenvalues --  -24.35367 -24.34770 -24.34574 -18.91959 -14.19084
 Alpha  occ. eigenvalues --  -10.06289 -10.06232 -10.05555 -10.04229 -10.03355
 Alpha  occ. eigenvalues --  -10.03232 -10.02366 -10.02140 -10.00972 -10.00953
 Alpha  occ. eigenvalues --  -10.00626 -10.00584 -10.00569 -10.00459 -10.00364
 Alpha  occ. eigenvalues --  -10.00292 -10.00125  -9.99907  -9.99847  -9.99575
 Alpha  occ. eigenvalues --   -9.99523  -9.99072  -9.98657  -9.98517  -9.98043
 Alpha  occ. eigenvalues --   -9.96446  -6.63382  -1.09131  -1.05435  -1.04530
 Alpha  occ. eigenvalues --   -1.00753  -0.95421  -0.82838  -0.81681  -0.79978
 Alpha  occ. eigenvalues --   -0.78879  -0.76214  -0.72532  -0.71605  -0.70867
 Alpha  occ. eigenvalues --   -0.70400  -0.69159  -0.68352  -0.68174  -0.64655
 Alpha  occ. eigenvalues --   -0.62402  -0.60539  -0.59465  -0.57489  -0.56234
 Alpha  occ. eigenvalues --   -0.55236  -0.54951  -0.53132  -0.52038  -0.51336
 Alpha  occ. eigenvalues --   -0.50327  -0.48586  -0.47919  -0.46359  -0.45838
 Alpha  occ. eigenvalues --   -0.45164  -0.43483  -0.43271  -0.42982  -0.42330
 Alpha  occ. eigenvalues --   -0.42242  -0.41502  -0.41104  -0.40877  -0.40711
 Alpha  occ. eigenvalues --   -0.40152  -0.40100  -0.39564  -0.39293  -0.39016
 Alpha  occ. eigenvalues --   -0.38595  -0.37190  -0.36979  -0.36382  -0.35540
 Alpha  occ. eigenvalues --   -0.35086  -0.34803  -0.33951  -0.33467  -0.33220
 Alpha  occ. eigenvalues --   -0.33106  -0.32906  -0.32343  -0.32060  -0.31730
 Alpha  occ. eigenvalues --   -0.31368  -0.30710  -0.30404  -0.29311  -0.29160
 Alpha  occ. eigenvalues --   -0.29034  -0.28863  -0.27973  -0.25384  -0.24496
 Alpha  occ. eigenvalues --   -0.24086  -0.24048  -0.22746  -0.22211  -0.21187
 Alpha  occ. eigenvalues --   -0.20607
 Alpha virt. eigenvalues --   -0.12915  -0.06630  -0.05236  -0.04248  -0.04115
 Alpha virt. eigenvalues --   -0.03460  -0.03130  -0.03099   0.00144   0.03615
 Alpha virt. eigenvalues --    0.04471   0.04686   0.05448   0.05506   0.06239
 Alpha virt. eigenvalues --    0.06551   0.07021   0.07434   0.08076   0.08515
 Alpha virt. eigenvalues --    0.08724   0.08944   0.09138   0.09522   0.10144
 Alpha virt. eigenvalues --    0.10249   0.10430   0.10649   0.10951   0.11182
 Alpha virt. eigenvalues --    0.11546   0.11704   0.12406   0.12594   0.12923
 Alpha virt. eigenvalues --    0.13146   0.14056   0.14264   0.14567   0.16041
 Alpha virt. eigenvalues --    0.16547   0.16815   0.17182   0.17939   0.18176
 Alpha virt. eigenvalues --    0.18520   0.19160   0.19280   0.19571   0.19725
 Alpha virt. eigenvalues --    0.19979   0.20375   0.20603   0.20816   0.20991
 Alpha virt. eigenvalues --    0.21131   0.21418   0.21869   0.22079   0.22391
 Alpha virt. eigenvalues --    0.22703   0.22944   0.23218   0.23708   0.24363
 Alpha virt. eigenvalues --    0.24547   0.24941   0.25254   0.25294   0.25690
 Alpha virt. eigenvalues --    0.26238   0.26256   0.26668   0.26977   0.27245
 Alpha virt. eigenvalues --    0.27667   0.27987   0.28607   0.28779   0.29146
 Alpha virt. eigenvalues --    0.29568   0.29635   0.30100   0.30290   0.30777
 Alpha virt. eigenvalues --    0.31062   0.31886   0.31944   0.32193   0.32376
 Alpha virt. eigenvalues --    0.32738   0.33022   0.33358   0.33842   0.34019
 Alpha virt. eigenvalues --    0.34039   0.34957   0.35273   0.35484   0.35585
 Alpha virt. eigenvalues --    0.35776   0.36367   0.36723   0.37194   0.37481
 Alpha virt. eigenvalues --    0.37688   0.37936   0.38441   0.38916   0.39262
 Alpha virt. eigenvalues --    0.39285   0.39597   0.39741   0.40182   0.40447
 Alpha virt. eigenvalues --    0.40631   0.40935   0.41214   0.41404   0.41943
 Alpha virt. eigenvalues --    0.42107   0.42310   0.42548   0.42708   0.43273
 Alpha virt. eigenvalues --    0.43487   0.43636   0.44223   0.44762   0.45250
 Alpha virt. eigenvalues --    0.45341   0.45655   0.46238   0.46436   0.46848
 Alpha virt. eigenvalues --    0.46988   0.47365   0.47562   0.47986   0.48339
 Alpha virt. eigenvalues --    0.48606   0.48823   0.48946   0.49824   0.50344
 Alpha virt. eigenvalues --    0.50477   0.51196   0.51545   0.52252   0.52779
 Alpha virt. eigenvalues --    0.53147   0.54158   0.54446   0.55089   0.55479
 Alpha virt. eigenvalues --    0.56454   0.56656   0.57086   0.57489   0.57518
 Alpha virt. eigenvalues --    0.58481   0.58874   0.59460   0.60133   0.60426
 Alpha virt. eigenvalues --    0.60641   0.61138   0.61560   0.61836   0.62539
 Alpha virt. eigenvalues --    0.62603   0.62875   0.63178   0.63691   0.64019
 Alpha virt. eigenvalues --    0.64361   0.64611   0.65118   0.65544   0.65792
 Alpha virt. eigenvalues --    0.66087   0.66420   0.66530   0.66896   0.67225
 Alpha virt. eigenvalues --    0.67482   0.68157   0.68532   0.68802   0.69114
 Alpha virt. eigenvalues --    0.69263   0.69964   0.70257   0.70929   0.71260
 Alpha virt. eigenvalues --    0.71740   0.71871   0.72610   0.73174   0.73367
 Alpha virt. eigenvalues --    0.73718   0.74158   0.74308   0.74781   0.75407
 Alpha virt. eigenvalues --    0.75837   0.76193   0.76923   0.77436   0.77544
 Alpha virt. eigenvalues --    0.77936   0.78047   0.78619   0.78678   0.79765
 Alpha virt. eigenvalues --    0.80364   0.81017   0.81036   0.81940   0.82301
 Alpha virt. eigenvalues --    0.82657   0.83098   0.83854   0.84055   0.84116
 Alpha virt. eigenvalues --    0.84560   0.84837   0.85511   0.85834   0.86227
 Alpha virt. eigenvalues --    0.86362   0.86583   0.87472   0.87634   0.88590
 Alpha virt. eigenvalues --    0.88853   0.89108   0.89590   0.90806   0.91124
 Alpha virt. eigenvalues --    0.91898   0.92153   0.92593   0.92792   0.93463
 Alpha virt. eigenvalues --    0.93915   0.94934   0.95413   0.96051   0.96761
 Alpha virt. eigenvalues --    0.98041   0.98157   0.99391   0.99608   1.00592
 Alpha virt. eigenvalues --    1.00883   1.01475   1.01932   1.02782   1.03905
 Alpha virt. eigenvalues --    1.04398   1.04920   1.05234   1.05611   1.06357
 Alpha virt. eigenvalues --    1.06781   1.07859   1.07950   1.08227   1.08969
 Alpha virt. eigenvalues --    1.09233   1.09562   1.09751   1.10586   1.11367
 Alpha virt. eigenvalues --    1.12009   1.12090   1.12640   1.13569   1.13994
 Alpha virt. eigenvalues --    1.14998   1.15317   1.16302   1.16911   1.18128
 Alpha virt. eigenvalues --    1.18571   1.18696   1.18904   1.20062   1.20556
 Alpha virt. eigenvalues --    1.20909   1.20978   1.21898   1.22057   1.22867
 Alpha virt. eigenvalues --    1.23054   1.23666   1.24220   1.24455   1.25237
 Alpha virt. eigenvalues --    1.25561   1.26322   1.27016   1.27629   1.28187
 Alpha virt. eigenvalues --    1.28852   1.29021   1.30062   1.30777   1.30942
 Alpha virt. eigenvalues --    1.31575   1.31667   1.32062   1.32794   1.33603
 Alpha virt. eigenvalues --    1.34006   1.34390   1.35535   1.36154   1.37765
 Alpha virt. eigenvalues --    1.38415   1.38658   1.39190   1.39706   1.40444
 Alpha virt. eigenvalues --    1.40983   1.41224   1.41628   1.42283   1.42863
 Alpha virt. eigenvalues --    1.43510   1.44220   1.44718   1.45180   1.45750
 Alpha virt. eigenvalues --    1.45937   1.47242   1.47922   1.48499   1.48748
 Alpha virt. eigenvalues --    1.48933   1.49358   1.49588   1.50277   1.50967
 Alpha virt. eigenvalues --    1.51201   1.51888   1.52229   1.52448   1.52808
 Alpha virt. eigenvalues --    1.53083   1.53681   1.53896   1.55172   1.55514
 Alpha virt. eigenvalues --    1.55802   1.55941   1.56605   1.56983   1.57449
 Alpha virt. eigenvalues --    1.58261   1.58641   1.59340   1.60667   1.60703
 Alpha virt. eigenvalues --    1.61074   1.61417   1.61500   1.62676   1.63014
 Alpha virt. eigenvalues --    1.63691   1.64516   1.64612   1.65051   1.65372
 Alpha virt. eigenvalues --    1.66121   1.66272   1.66790   1.67278   1.67915
 Alpha virt. eigenvalues --    1.68304   1.68665   1.69507   1.69583   1.70969
 Alpha virt. eigenvalues --    1.71747   1.71833   1.72582   1.72938   1.73224
 Alpha virt. eigenvalues --    1.73804   1.73966   1.74508   1.74972   1.75911
 Alpha virt. eigenvalues --    1.76651   1.76850   1.77332   1.78264   1.78838
 Alpha virt. eigenvalues --    1.79398   1.79784   1.81009   1.81563   1.83328
 Alpha virt. eigenvalues --    1.83488   1.84066   1.85025   1.85175   1.86438
 Alpha virt. eigenvalues --    1.86887   1.87647   1.88566   1.88854   1.89315
 Alpha virt. eigenvalues --    1.89786   1.90762   1.91494   1.91544   1.92569
 Alpha virt. eigenvalues --    1.93017   1.93231   1.93805   1.94393   1.95488
 Alpha virt. eigenvalues --    1.96999   1.97496   1.98401   1.99009   1.99774
 Alpha virt. eigenvalues --    2.00150   2.00703   2.01513   2.02266   2.03031
 Alpha virt. eigenvalues --    2.03220   2.03906   2.04960   2.06334   2.06441
 Alpha virt. eigenvalues --    2.06968   2.07724   2.08078   2.08433   2.08862
 Alpha virt. eigenvalues --    2.09439   2.10109   2.10868   2.11932   2.12794
 Alpha virt. eigenvalues --    2.13216   2.13598   2.13839   2.14882   2.15349
 Alpha virt. eigenvalues --    2.15957   2.16349   2.16634   2.17431   2.18121
 Alpha virt. eigenvalues --    2.19171   2.19924   2.20587   2.21233   2.21865
 Alpha virt. eigenvalues --    2.22719   2.23087   2.23866   2.23992   2.24763
 Alpha virt. eigenvalues --    2.25277   2.26278   2.26700   2.27181   2.27883
 Alpha virt. eigenvalues --    2.28194   2.28787   2.29545   2.30995   2.31203
 Alpha virt. eigenvalues --    2.32248   2.33280   2.33663   2.34544   2.35504
 Alpha virt. eigenvalues --    2.35995   2.36920   2.37379   2.39077   2.39575
 Alpha virt. eigenvalues --    2.40618   2.40828   2.41125   2.43259   2.44492
 Alpha virt. eigenvalues --    2.45323   2.45869   2.46641   2.47782   2.47879
 Alpha virt. eigenvalues --    2.48716   2.49411   2.49882   2.50671   2.51449
 Alpha virt. eigenvalues --    2.52153   2.52670   2.52813   2.53085   2.53458
 Alpha virt. eigenvalues --    2.53932   2.55001   2.55562   2.56012   2.56747
 Alpha virt. eigenvalues --    2.57423   2.57839   2.58376   2.58912   2.59565
 Alpha virt. eigenvalues --    2.59757   2.60144   2.60684   2.61242   2.61905
 Alpha virt. eigenvalues --    2.62238   2.62871   2.62967   2.63558   2.64180
 Alpha virt. eigenvalues --    2.64580   2.65151   2.65716   2.65959   2.66461
 Alpha virt. eigenvalues --    2.66648   2.67206   2.67499   2.67725   2.68355
 Alpha virt. eigenvalues --    2.68484   2.69105   2.69704   2.70020   2.70805
 Alpha virt. eigenvalues --    2.71084   2.71277   2.71823   2.72369   2.72892
 Alpha virt. eigenvalues --    2.73545   2.73805   2.74397   2.74856   2.74965
 Alpha virt. eigenvalues --    2.75500   2.75849   2.76092   2.76472   2.76838
 Alpha virt. eigenvalues --    2.77352   2.77922   2.78410   2.78651   2.78929
 Alpha virt. eigenvalues --    2.79238   2.80095   2.80600   2.81272   2.81779
 Alpha virt. eigenvalues --    2.82030   2.82863   2.83353   2.84003   2.84167
 Alpha virt. eigenvalues --    2.84317   2.84736   2.85368   2.85638   2.86054
 Alpha virt. eigenvalues --    2.86589   2.87170   2.87410   2.88048   2.88796
 Alpha virt. eigenvalues --    2.89627   2.89804   2.90219   2.90774   2.91327
 Alpha virt. eigenvalues --    2.92268   2.92716   2.93087   2.93328   2.94344
 Alpha virt. eigenvalues --    2.94726   2.94954   2.95225   2.95885   2.96075
 Alpha virt. eigenvalues --    2.97082   2.98381   2.98456   2.99056   3.00146
 Alpha virt. eigenvalues --    3.00828   3.00921   3.01977   3.02787   3.03054
 Alpha virt. eigenvalues --    3.03474   3.03967   3.04539   3.05239   3.05339
 Alpha virt. eigenvalues --    3.06388   3.06463   3.07344   3.07513   3.07924
 Alpha virt. eigenvalues --    3.08463   3.08684   3.09441   3.09912   3.10340
 Alpha virt. eigenvalues --    3.11158   3.11687   3.12005   3.12559   3.13318
 Alpha virt. eigenvalues --    3.13951   3.14391   3.14566   3.14890   3.15381
 Alpha virt. eigenvalues --    3.15676   3.16855   3.17180   3.18119   3.18702
 Alpha virt. eigenvalues --    3.18930   3.19349   3.19995   3.20621   3.20935
 Alpha virt. eigenvalues --    3.21343   3.22364   3.22648   3.23418   3.23547
 Alpha virt. eigenvalues --    3.24243   3.24478   3.24748   3.24989   3.25508
 Alpha virt. eigenvalues --    3.26246   3.26792   3.27078   3.27278   3.27444
 Alpha virt. eigenvalues --    3.28803   3.29130   3.29655   3.30248   3.31261
 Alpha virt. eigenvalues --    3.31665   3.32081   3.32177   3.32928   3.33543
 Alpha virt. eigenvalues --    3.33910   3.34260   3.34577   3.35163   3.35464
 Alpha virt. eigenvalues --    3.35666   3.36180   3.36546   3.36924   3.37221
 Alpha virt. eigenvalues --    3.37528   3.38084   3.38296   3.39187   3.39919
 Alpha virt. eigenvalues --    3.40200   3.41069   3.41335   3.42076   3.42843
 Alpha virt. eigenvalues --    3.43355   3.43734   3.44006   3.44625   3.45332
 Alpha virt. eigenvalues --    3.45732   3.46400   3.46676   3.46925   3.47169
 Alpha virt. eigenvalues --    3.47956   3.48347   3.48879   3.49128   3.49551
 Alpha virt. eigenvalues --    3.50184   3.50597   3.50931   3.51357   3.51448
 Alpha virt. eigenvalues --    3.51555   3.52002   3.52888   3.52971   3.53284
 Alpha virt. eigenvalues --    3.54086   3.54515   3.55000   3.55364   3.55895
 Alpha virt. eigenvalues --    3.56530   3.57293   3.57765   3.58487   3.59346
 Alpha virt. eigenvalues --    3.60067   3.61019   3.61278   3.61813   3.62390
 Alpha virt. eigenvalues --    3.63466   3.63941   3.64798   3.65500   3.66179
 Alpha virt. eigenvalues --    3.66803   3.67507   3.68243   3.68724   3.69145
 Alpha virt. eigenvalues --    3.71232   3.71647   3.72040   3.73362   3.74067
 Alpha virt. eigenvalues --    3.74507   3.75508   3.75917   3.76684   3.77553
 Alpha virt. eigenvalues --    3.78285   3.80088   3.81798   3.82251   3.82886
 Alpha virt. eigenvalues --    3.83509   3.85368   3.85699   3.86392   3.88158
 Alpha virt. eigenvalues --    3.88849   3.89348   3.91315   3.91669   3.92557
 Alpha virt. eigenvalues --    3.93560   3.94170   3.94949   3.95159   3.97520
 Alpha virt. eigenvalues --    3.97755   3.98475   3.99012   4.00196   4.01292
 Alpha virt. eigenvalues --    4.01789   4.03052   4.03588   4.04050   4.04450
 Alpha virt. eigenvalues --    4.05935   4.06784   4.07009   4.07578   4.08479
 Alpha virt. eigenvalues --    4.09432   4.11390   4.11870   4.12742   4.13291
 Alpha virt. eigenvalues --    4.14038   4.14468   4.15940   4.16049   4.16820
 Alpha virt. eigenvalues --    4.17220   4.17754   4.18687   4.19055   4.19771
 Alpha virt. eigenvalues --    4.20267   4.20922   4.21229   4.21624   4.22435
 Alpha virt. eigenvalues --    4.22783   4.22849   4.23418   4.23690   4.24034
 Alpha virt. eigenvalues --    4.24717   4.25612   4.25719   4.27096   4.27327
 Alpha virt. eigenvalues --    4.27557   4.27991   4.29036   4.29591   4.30779
 Alpha virt. eigenvalues --    4.32281   4.32743   4.33925   4.34226   4.35174
 Alpha virt. eigenvalues --    4.37136   4.39377   4.40832   4.41349   4.42768
 Alpha virt. eigenvalues --    4.43424   4.43700   4.45801   4.47274   4.47561
 Alpha virt. eigenvalues --    4.48101   4.49417   4.52754   4.53170   4.54421
 Alpha virt. eigenvalues --    4.56554   4.56960   4.57374   4.59512   4.61598
 Alpha virt. eigenvalues --    4.61806   4.62544   4.63438   4.64923   4.65278
 Alpha virt. eigenvalues --    4.66815   4.67644   4.69388   4.69706   4.72037
 Alpha virt. eigenvalues --    4.72672   4.75412   4.76811   4.80752   4.81601
 Alpha virt. eigenvalues --    4.81854   4.83096   4.84445   4.85163   4.86172
 Alpha virt. eigenvalues --    4.86558   4.87442   4.90864   4.92771   4.93774
 Alpha virt. eigenvalues --    4.94247   4.94904   4.97256   4.97803   4.99463
 Alpha virt. eigenvalues --    5.01112   5.03359   5.06479   5.07754   5.12831
 Alpha virt. eigenvalues --    5.14267   5.16272   5.16820   5.18959   5.20572
 Alpha virt. eigenvalues --    5.20925   5.21854   5.24223   5.25959   5.26722
 Alpha virt. eigenvalues --    5.28921   5.29895   5.30657   5.34255   5.34979
 Alpha virt. eigenvalues --    5.38296   5.40943   5.43425   5.44703   5.47707
 Alpha virt. eigenvalues --    5.49853   5.53122   5.53887   5.56680   5.57000
 Alpha virt. eigenvalues --    5.59561   5.65998   5.67511   5.70230   5.74558
 Alpha virt. eigenvalues --    5.74740   5.77236   5.82793   5.84030   5.91747
 Alpha virt. eigenvalues --    5.98684   5.99225   6.05455   6.21209   6.34274
 Alpha virt. eigenvalues --    6.41232   6.53686   6.59628   6.74565   6.83177
 Alpha virt. eigenvalues --    6.88676   6.90486   6.91309   6.91483   6.91948
 Alpha virt. eigenvalues --    6.92239   6.92587   6.93615   6.94654   7.02037
 Alpha virt. eigenvalues --    7.04700   7.06172   7.08300   7.09965   7.10516
 Alpha virt. eigenvalues --    7.14030   7.25768   7.27012   7.28827   7.30396
 Alpha virt. eigenvalues --    7.38656   7.39855   7.41161   8.33624   8.36295
 Alpha virt. eigenvalues --    8.37960   8.48009   8.52405   8.53839   8.75573
 Alpha virt. eigenvalues --    8.79783   8.81706   8.82473   8.87207   8.90413
 Alpha virt. eigenvalues --    8.95270   8.95712   8.98117  15.60133  22.22565
 Alpha virt. eigenvalues --   22.25385  22.30026  22.34864  22.40728  22.54805
 Alpha virt. eigenvalues --   22.57153  22.58169  22.58859  22.60598  22.63116
 Alpha virt. eigenvalues --   22.64671  22.68647  22.70218  22.77176  22.80558
 Alpha virt. eigenvalues --   22.84389  22.85882  22.90014  22.92622  23.01453
 Alpha virt. eigenvalues --   23.15298  23.24115  23.30761  23.35194  23.63778
 Alpha virt. eigenvalues --   33.24213  44.16198  57.10652  57.19458  57.41224
          Condensed to atoms (all electrons):
 Mulliken charges:
               1
     1  C   -0.083608
     2  C   -0.208443
     3  C    0.121112
     4  C    0.128655
     5  C   -0.150094
     6  C   -0.141622
     7  C    0.241833
     8  C    0.102466
     9  C    0.114838
    10  C   -0.202348
    11  H    0.164073
    12  C   -0.091087
    13  C   -0.132678
    14  C   -0.199250
    15  H    0.153116
    16  H    0.163452
    17  H    0.155911
    18  H    0.146757
    19  H    0.154200
    20  H    0.149416
    21  H    0.160002
    22  N    0.224729
    23  C   -0.126774
    24  C   -0.065217
    25  C   -0.222101
    26  C   -0.217782
    27  C   -0.123925
    28  C   -0.152062
    29  H    0.135898
    30  H    0.130141
    31  C   -0.072113
    32  C   -0.175405
    33  C   -0.132042
    34  C   -0.244771
    35  H    0.150120
    36  C   -0.192184
    37  H    0.131577
    38  C    0.348063
    39  H    0.154388
    40  H    0.127073
    41  O   -0.230756
    42  C   -0.238299
    43  H    0.160309
    44  H    0.146658
    45  H    0.146969
    46  H    0.132591
    47  H    0.129390
    48  F   -0.394506
    49  F   -0.399149
    50  F   -0.384171
    51  B    0.506651
 Sum of Mulliken charges =  -0.00000
 Mulliken charges with hydrogens summed into heavy atoms:
               1
     1  C    0.069508
     2  C   -0.044991
     3  C    0.121112
     4  C    0.128655
     5  C    0.005817
     6  C    0.005135
     7  C    0.241833
     8  C    0.102466
     9  C    0.114838
    10  C   -0.038275
    12  C    0.063112
    13  C    0.016738
    14  C   -0.039248
    22  N    0.224729
    23  C   -0.126774
    24  C   -0.065217
    25  C   -0.091960
    26  C   -0.088391
    27  C    0.011973
    28  C   -0.019471
    31  C   -0.072113
    32  C   -0.025285
    33  C   -0.000465
    34  C   -0.090384
    36  C   -0.065110
    38  C    0.348063
    41  O   -0.230756
    42  C    0.215637
    48  F   -0.394506
    49  F   -0.399149
    50  F   -0.384171
    51  B    0.506651
 Electronic spatial extent (au):  <R**2>=          12951.4092
 Charge=             -0.0000 electrons
 Dipole moment (field-independent basis, Debye):
    X=             -9.4677    Y=             -5.4981    Z=             -8.7324  Tot=             14.0043
 Quadrupole moment (field-independent basis, Debye-Ang):
   XX=           -147.8027   YY=           -161.7298   ZZ=           -186.7100
   XY=            -13.4530   XZ=            -26.0839   YZ=            -10.9314
 Traceless Quadrupole moment (field-independent basis, Debye-Ang):
   XX=             17.6115   YY=              3.6843   ZZ=            -21.2958
[...]
 Alpha virt. eigenvalues --    0.78993   0.79655   0.80209   0.80710   0.80954
 Alpha virt. eigenvalues --    0.81387   0.81622   0.81931   0.82625   0.83151
 Alpha virt. eigenvalues --    0.83360   0.83711   0.83888   0.84783   0.85158
 Alpha virt. eigenvalues --    0.85701   0.85925   0.86450   0.86854   0.87340
 Alpha virt. eigenvalues --    0.88213   0.89041   0.89530   0.89833   0.90765
 Alpha virt. eigenvalues --    0.91070   0.91728   0.92200   0.92663   0.93178
 Alpha virt. eigenvalues --    0.93989   0.94692   0.95028   0.96440   0.97126
 Alpha virt. eigenvalues --    0.97472   0.97687   0.98415   0.98624   0.99796
 Alpha virt. eigenvalues --    1.00296   1.00375   1.01199   1.01755   1.02440
 Alpha virt. eigenvalues --    1.02890   1.03836   1.04405   1.04769   1.04928
 Alpha virt. eigenvalues --    1.05637   1.05892   1.06538   1.06829   1.07266
 Alpha virt. eigenvalues --    1.07952   1.08306   1.08746   1.09117   1.10810
 Alpha virt. eigenvalues --    1.11520   1.12012   1.12438   1.12794   1.13412
 Alpha virt. eigenvalues --    1.13619   1.14203   1.14705   1.16017   1.16262
 Alpha virt. eigenvalues --    1.16724   1.17408   1.18517   1.19886   1.19991
 Alpha virt. eigenvalues --    1.20478   1.20880   1.21424   1.21941   1.22227
 Alpha virt. eigenvalues --    1.22622   1.22782   1.23237   1.23567   1.24301
 Alpha virt. eigenvalues --    1.24696   1.24898   1.25604   1.26225   1.27005
 Alpha virt. eigenvalues --    1.27319   1.27799   1.27950   1.28510   1.29587
 Alpha virt. eigenvalues --    1.29661   1.30437   1.31479   1.32868   1.33087
 Alpha virt. eigenvalues --    1.33796   1.34356   1.35071   1.35449   1.35520
 Alpha virt. eigenvalues --    1.36652   1.38678   1.38839   1.39253   1.39621
 Alpha virt. eigenvalues --    1.40209   1.40595   1.41120   1.41618   1.42510
 Alpha virt. eigenvalues --    1.42562   1.43520   1.43999   1.44678   1.45204
 Alpha virt. eigenvalues --    1.45504   1.46188   1.47344   1.47635   1.48405
 Alpha virt. eigenvalues --    1.48508   1.48952   1.49325   1.49999   1.50327
 Alpha virt. eigenvalues --    1.50970   1.51460   1.51709   1.51786   1.52521
 Alpha virt. eigenvalues --    1.53350   1.53805   1.53996   1.54470   1.54919
 Alpha virt. eigenvalues --    1.54996   1.55264   1.56191   1.56661   1.57084
 Alpha virt. eigenvalues --    1.58144   1.58659   1.59184   1.59656   1.59779
 Alpha virt. eigenvalues --    1.60649   1.61292   1.61531   1.62065   1.62633
 Alpha virt. eigenvalues --    1.63150   1.63354   1.63646   1.64164   1.65332
 Alpha virt. eigenvalues --    1.65833   1.66370   1.67052   1.67374   1.67447
 Alpha virt. eigenvalues --    1.67775   1.68272   1.68584   1.69464   1.70293
 Alpha virt. eigenvalues --    1.70438   1.70918   1.72013   1.72258   1.73065
 Alpha virt. eigenvalues --    1.73310   1.74048   1.74681   1.74869   1.75354
 Alpha virt. eigenvalues --    1.75415   1.76082   1.76916   1.77322   1.78609
 Alpha virt. eigenvalues --    1.78926   1.80457   1.81032   1.82471   1.83185
 Alpha virt. eigenvalues --    1.83576   1.83934   1.84686   1.85070   1.85732
 Alpha virt. eigenvalues --    1.86964   1.87301   1.87457   1.88209   1.88956
 Alpha virt. eigenvalues --    1.89581   1.90487   1.91157   1.92253   1.92702
 Alpha virt. eigenvalues --    1.92896   1.93962   1.94788   1.95263   1.96022
 Alpha virt. eigenvalues --    1.96737   1.97545   1.98580   1.98873   1.99753
 Alpha virt. eigenvalues --    2.00177   2.00403   2.01180   2.02195   2.02959
 Alpha virt. eigenvalues --    2.03336   2.03426   2.04243   2.04568   2.05735
 Alpha virt. eigenvalues --    2.05907   2.07036   2.08115   2.08410   2.08888
 Alpha virt. eigenvalues --    2.09381   2.09802   2.10542   2.11224   2.12035
 Alpha virt. eigenvalues --    2.12941   2.13638   2.13948   2.14130   2.14701
 Alpha virt. eigenvalues --    2.14955   2.15514   2.16175   2.17095   2.18383
 Alpha virt. eigenvalues --    2.18545   2.19294   2.20419   2.20711   2.21204
 Alpha virt. eigenvalues --    2.21827   2.22476   2.22893   2.23294   2.24042
 Alpha virt. eigenvalues --    2.25098   2.25725   2.25790   2.26277   2.27134
 Alpha virt. eigenvalues --    2.27756   2.28736   2.29365   2.29799   2.31526
 Alpha virt. eigenvalues --    2.32267   2.32807   2.33851   2.34291   2.34501
 Alpha virt. eigenvalues --    2.35624   2.35842   2.37328   2.38097   2.38496
 Alpha virt. eigenvalues --    2.39255   2.39965   2.40226   2.42016   2.43837
 Alpha virt. eigenvalues --    2.44340   2.44664   2.45406   2.45955   2.47382
 Alpha virt. eigenvalues --    2.48119   2.49021   2.50166   2.51354   2.51592
 Alpha virt. eigenvalues --    2.52451   2.52731   2.53273   2.53340   2.53593
 Alpha virt. eigenvalues --    2.54105   2.54802   2.55813   2.56030   2.56993
 Alpha virt. eigenvalues --    2.57093   2.57875   2.58479   2.59062   2.59297
 Alpha virt. eigenvalues --    2.59516   2.59949   2.60555   2.60753   2.61188
 Alpha virt. eigenvalues --    2.61778   2.62120   2.62331   2.62896   2.63269
 Alpha virt. eigenvalues --    2.64507   2.64887   2.64996   2.65624   2.66404
 Alpha virt. eigenvalues --    2.67064   2.67247   2.67382   2.67943   2.68001
 Alpha virt. eigenvalues --    2.68271   2.68524   2.69058   2.69401   2.69821
 Alpha virt. eigenvalues --    2.69884   2.70509   2.70804   2.71034   2.71727
 Alpha virt. eigenvalues --    2.71896   2.72696   2.73653   2.74094   2.74258
 Alpha virt. eigenvalues --    2.74453   2.75219   2.75501   2.75915   2.76200
 Alpha virt. eigenvalues --    2.76352   2.77608   2.77693   2.78309   2.78867
 Alpha virt. eigenvalues --    2.79123   2.79681   2.80168   2.80454   2.80990
 Alpha virt. eigenvalues --    2.81854   2.82121   2.82831   2.83284   2.83609
 Alpha virt. eigenvalues --    2.83958   2.84406   2.85013   2.85593   2.86197
 Alpha virt. eigenvalues --    2.86508   2.86967   2.87575   2.88277   2.88511
 Alpha virt. eigenvalues --    2.88868   2.89212   2.89313   2.90050   2.90731
 Alpha virt. eigenvalues --    2.90991   2.91551   2.92272   2.93108   2.93721
 Alpha virt. eigenvalues --    2.94154   2.94706   2.94978   2.95362   2.96052
 Alpha virt. eigenvalues --    2.96723   2.97048   2.97817   2.98356   2.98616
 Alpha virt. eigenvalues --    2.99243   2.99889   3.00442   3.01076   3.01752
 Alpha virt. eigenvalues --    3.03326   3.03627   3.03795   3.04074   3.04698
 Alpha virt. eigenvalues --    3.04973   3.05723   3.06281   3.06892   3.07242
 Alpha virt. eigenvalues --    3.07930   3.08416   3.09253   3.09537   3.09829
 Alpha virt. eigenvalues --    3.10376   3.10815   3.11093   3.11849   3.12600
 Alpha virt. eigenvalues --    3.12662   3.13119   3.13850   3.14485   3.14671
 Alpha virt. eigenvalues --    3.15017   3.15819   3.16521   3.17091   3.17611
 Alpha virt. eigenvalues --    3.18012   3.18504   3.18921   3.19069   3.19966
 Alpha virt. eigenvalues --    3.20090   3.20185   3.21982   3.22192   3.22710
 Alpha virt. eigenvalues --    3.23261   3.23775   3.24345   3.24427   3.24794
 Alpha virt. eigenvalues --    3.25798   3.26259   3.26368   3.27668   3.27774
 Alpha virt. eigenvalues --    3.28407   3.29061   3.29758   3.30457   3.30761
 Alpha virt. eigenvalues --    3.30975   3.31714   3.31924   3.32157   3.32645
 Alpha virt. eigenvalues --    3.33069   3.33348   3.33890   3.34183   3.34861
 Alpha virt. eigenvalues --    3.35653   3.35969   3.36303   3.36452   3.37175
 Alpha virt. eigenvalues --    3.37315   3.37620   3.38284   3.39052   3.39389
 Alpha virt. eigenvalues --    3.39814   3.40219   3.40620   3.40947   3.41598
 Alpha virt. eigenvalues --    3.42063   3.42829   3.43387   3.43906   3.44105
 Alpha virt. eigenvalues --    3.44833   3.45275   3.46138   3.46533   3.46742
 Alpha virt. eigenvalues --    3.47414   3.47728   3.47870   3.48089   3.48909
 Alpha virt. eigenvalues --    3.49388   3.49746   3.50076   3.50314   3.50904
 Alpha virt. eigenvalues --    3.51584   3.51866   3.52081   3.52342   3.52544
 Alpha virt. eigenvalues --    3.52902   3.53639   3.53884   3.54503   3.54820
 Alpha virt. eigenvalues --    3.56262   3.57027   3.57245   3.57695   3.57952
 Alpha virt. eigenvalues --    3.58657   3.59676   3.60640   3.60883   3.61312
 Alpha virt. eigenvalues --    3.62177   3.63225   3.63432   3.64301   3.64720
 Alpha virt. eigenvalues --    3.66362   3.67276   3.67397   3.67866   3.68406
 Alpha virt. eigenvalues --    3.69202   3.69863   3.70373   3.71275   3.71453
 Alpha virt. eigenvalues --    3.73537   3.74732   3.75322   3.76299   3.77461
 Alpha virt. eigenvalues --    3.78579   3.78860   3.79272   3.80497   3.82135
 Alpha virt. eigenvalues --    3.82774   3.84016   3.84971   3.86129   3.87192
 Alpha virt. eigenvalues --    3.88121   3.88164   3.89032   3.89950   3.90913
 Alpha virt. eigenvalues --    3.91611   3.93400   3.94417   3.94747   3.96785
 Alpha virt. eigenvalues --    3.96938   3.98561   4.00067   4.00618   4.01266
 Alpha virt. eigenvalues --    4.01700   4.02423   4.02927   4.03880   4.04605
 Alpha virt. eigenvalues --    4.05896   4.06724   4.07051   4.08346   4.08625
 Alpha virt. eigenvalues --    4.09413   4.09891   4.10273   4.11314   4.12805
 Alpha virt. eigenvalues --    4.13594   4.13721   4.14865   4.15534   4.16135
 Alpha virt. eigenvalues --    4.16968   4.17616   4.18182   4.18604   4.19708
 Alpha virt. eigenvalues --    4.20082   4.20344   4.20802   4.21486   4.21653
 Alpha virt. eigenvalues --    4.22072   4.22591   4.23032   4.23884   4.24157
 Alpha virt. eigenvalues --    4.24579   4.24769   4.25989   4.26702   4.27001
 Alpha virt. eigenvalues --    4.27667   4.28347   4.28724   4.29010   4.30373
 Alpha virt. eigenvalues --    4.30869   4.32051   4.33492   4.34708   4.35010
 Alpha virt. eigenvalues --    4.36308   4.36988   4.40332   4.40937   4.42170
 Alpha virt. eigenvalues --    4.42967   4.43689   4.44489   4.45827   4.47175
 Alpha virt. eigenvalues --    4.48847   4.50269   4.50673   4.52357   4.54664
 Alpha virt. eigenvalues --    4.55155   4.55859   4.56508   4.58226   4.58453
 Alpha virt. eigenvalues --    4.59500   4.61604   4.63015   4.63816   4.64515
 Alpha virt. eigenvalues --    4.65526   4.65876   4.68194   4.69725   4.70644
 Alpha virt. eigenvalues --    4.72960   4.73632   4.74022   4.79717   4.79954
 Alpha virt. eigenvalues --    4.82290   4.83293   4.84270   4.84947   4.85845
 Alpha virt. eigenvalues --    4.86835   4.87413   4.89339   4.91525   4.93720
 Alpha virt. eigenvalues --    4.94269   4.95273   4.95989   4.97596   4.99236
 Alpha virt. eigenvalues --    5.00415   5.03217   5.07736   5.07890   5.13267
 Alpha virt. eigenvalues --    5.15727   5.16183   5.16794   5.19487   5.20063
 Alpha virt. eigenvalues --    5.23533   5.24088   5.24554   5.25082   5.25731
 Alpha virt. eigenvalues --    5.28717   5.29861   5.32255   5.33159   5.33235
 Alpha virt. eigenvalues --    5.37561   5.42618   5.44382   5.44902   5.45973
 Alpha virt. eigenvalues --    5.49199   5.53273   5.54846   5.57346   5.58450
 Alpha virt. eigenvalues --    5.59499   5.65345   5.68971   5.71533   5.74443
 Alpha virt. eigenvalues --    5.74954   5.77059   5.84321   5.84505   5.87303
 Alpha virt. eigenvalues --    5.97075   6.00906   6.08623   6.21616   6.31883
 Alpha virt. eigenvalues --    6.42532   6.49514   6.59276   6.74680   6.81361
 Alpha virt. eigenvalues --    6.88577   6.91151   6.91478   6.91647   6.91672
 Alpha virt. eigenvalues --    6.91906   6.92295   6.93004   6.93591   7.01468
 Alpha virt. eigenvalues --    7.02981   7.03868   7.08088   7.09515   7.09683
 Alpha virt. eigenvalues --    7.12862   7.23588   7.25579   7.27123   7.29464
 Alpha virt. eigenvalues --    7.38236   7.38756   7.39291   8.31641   8.32818
 Alpha virt. eigenvalues --    8.35771   8.46445   8.47856   8.52907   8.74010
 Alpha virt. eigenvalues --    8.75521   8.75852   8.79989   8.83323   8.87454
 Alpha virt. eigenvalues --    8.89530   8.94004   8.95800  15.46826  22.23929
 Alpha virt. eigenvalues --   22.24813  22.27243  22.37141  22.43515  22.56683
 Alpha virt. eigenvalues --   22.58417  22.59158  22.59818  22.62340  22.64962
 Alpha virt. eigenvalues --   22.65561  22.68216  22.71869  22.75438  22.81785
 Alpha virt. eigenvalues --   22.84783  22.85721  22.87963  22.95617  23.05037
 Alpha virt. eigenvalues --   23.14061  23.24445  23.30671  23.34507  23.68429
 Alpha virt. eigenvalues --   33.27061  44.13916  57.02164  57.08890  57.21648
          Condensed to atoms (all electrons):
 Mulliken charges:
               1
     1  C   -0.101658
     2  C   -0.177275
     3  C    0.079428
     4  C    0.102991
     5  C   -0.195690
     6  C   -0.117045
     7  C    0.368570
     8  C    0.083350
     9  C    0.103581
    10  C   -0.184667
    11  H    0.166652
    12  C   -0.094966
    13  C   -0.127434
    14  C   -0.187037
    15  H    0.154344
    16  H    0.166910
    17  H    0.158890
    18  H    0.148949
    19  H    0.154822
    20  H    0.149162
    21  H    0.161332
    22  N    0.266587
    23  C   -0.222286
    24  C   -0.023144
    25  C   -0.230653
    26  C   -0.209969
    27  C   -0.125500
    28  C   -0.148180
    29  H    0.137217
    30  H    0.120914
    31  C   -0.054011
    32  C   -0.175466
    33  C   -0.144417
    34  C   -0.235734
    35  H    0.143611
    36  C   -0.204235
    37  H    0.137054
    38  C    0.347058
    39  H    0.156537
    40  H    0.127782
    41  O   -0.240193
    42  C   -0.238349
    43  H    0.161341
    44  H    0.151903
    45  H    0.151722
    46  H    0.133993
    47  H    0.127510
    48  F   -0.413554
    49  F   -0.408779
    50  F   -0.409737
    51  B    0.507768
 Sum of Mulliken charges =  -0.00000
 Mulliken charges with hydrogens summed into heavy atoms:
               1
     1  C    0.052686
     2  C   -0.010365
     3  C    0.079428
     4  C    0.102991
     5  C   -0.036800
     6  C    0.031904
     7  C    0.368570
     8  C    0.083350
     9  C    0.103581
    10  C   -0.018014
    12  C    0.059856
    13  C    0.021729
    14  C   -0.025705
    22  N    0.266587
    23  C   -0.222286
    24  C   -0.023144
    25  C   -0.109739
    26  C   -0.082459
    27  C    0.011716
    28  C   -0.014187
    31  C   -0.054011
    32  C   -0.031855
    33  C   -0.007363
    34  C   -0.079197
    36  C   -0.076453
    38  C    0.347058
    41  O   -0.240193
    42  C    0.226618
    48  F   -0.413554
    49  F   -0.408779
    50  F   -0.409737
    51  B    0.507768
 Electronic spatial extent (au):  <R**2>=          14528.1137
 Charge=             -0.0000 electrons
 Dipole moment (field-independent basis, Debye):
    X=             18.4030    Y=              3.1716    Z=             -9.9865  Tot=             21.1769
 Quadrupole moment (field-independent basis, Debye-Ang):
   XX=           -172.2679   YY=           -156.6931   ZZ=           -195.8251
   XY=            -12.5487   XZ=             49.7064   YZ=              7.7040
 Traceless Quadrupole moment (field-independent basis, Debye-Ang):
   XX=              2.6608   YY=             18.2356   ZZ=            -20.8964
   XY=            -12.5487   XZ=             49.7064   YZ=              7.7040
 Octapole moment (field-independent basis, Debye-Ang**2):
  XXX=            376.8510  YYY=             12.6610  ZZZ=            -34.0316  XYY=             26.9560
  XXY=             16.1687  XXZ=            -26.3931  XZZ=            115.7063  YZZ=              8.8159
  YYZ=            -11.6295  XYZ=            -20.5345
 Hexadecapole moment (field-independent basis, Debye-Ang**3):
 XXXX=         -12170.4790 YYYY=          -2619.3009 ZZZZ=          -1865.9557 XXXY=           -237.8653
 XXXZ=           1218.3089 YYYX=             -1.1654 YYYZ=            134.9281 ZZZX=            190.1363
 ZZZY=            -39.9285 XXYY=          -2976.2253 XXZZ=          -2683.5660 YYZZ=           -898.7965
 XXYZ=            -19.4372 YYXZ=             20.3944 ZZXY=            -56.0736
 N-N= 3.081584872364D+03 E-N=-9.569613247814D+03  KE= 1.451072403733D+03
 Leave Link  601 at Tue Mar 30 21:49:37 2021, MaxMem=  5242880000 cpu:         6.1
 (Enter /opt/nce/packages/global/g09/l9999.exe)
 1\1\GINC-CN031\SP\RTPSSTPSS TD-FC\Gen\C26H19B1F3N1O1\PNG4RJV\30-Mar-20
 21\0\\#p TPSSTPSS chkbasis geom=allcheck Guess=Read int=ultrafine scrf
 =(SMD,solvent=Acetonitrile) td=(NStates=30)\\Title\\0,1\C,0,-0.4340075
 436,3.2788229913,-1.3786611954\C,0,-1.1359440775,2.1470294691,-1.02543
 44811\C,0,-0.4386080051,0.9717286827,-0.6635792211\C,0,0.996390981,0.9
 684129994,-0.6556090249\C,0,1.6759622319,2.1622436322,-1.0371012918\C,
 0,0.9807452648,3.2912675841,-1.3908123282\C,0,1.6967239112,-0.20233349
 49,-0.2884174375\C,0,0.9635347021,-1.3665734328,0.0341882459\C,0,-0.47
 0565299,-1.3383080398,0.0138741875\C,0,-1.2006435717,-2.5027534364,0.3
 453536287\H,0,-2.283402511,-2.4836532004,0.328851087\C,0,-0.5310006447
 ,-3.6567231568,0.6894212439\C,0,0.8826450769,-3.7017139386,0.724913701
 8\C,0,1.6091763234,-2.5816036174,0.4066378456\H,0,-0.9814705416,4.1749
 662566,-1.6567295752\H,0,-2.2189613168,2.1528994433,-1.0269237371\H,0,
 2.7601848751,2.1564811255,-1.0429280843\H,0,1.5106357313,4.1936186435,
 -1.6800903753\H,0,-1.1032868707,-4.5449206839,0.9417445236\H,0,1.38704
 21801,-4.6205537853,1.0078609838\H,0,2.6930156463,-2.5993880866,0.4369
 632716\N,0,-1.1243742906,-0.1735782632,-0.3240642686\C,0,3.1905388785,
 -0.2299287915,-0.3071380925\C,0,3.9677930076,0.2688308967,0.7645397562
 \C,0,3.7946439474,-0.7767206277,-1.4528003982\C,0,5.3654013481,0.19036
 90772,0.6125301437\C,0,5.1826826462,-0.8272197201,-1.5670310704\C,0,5.
 9737224568,-0.3393787833,-0.5260006615\H,0,5.6376216827,-1.2475389863,
 -2.4603454583\H,0,3.1709685283,-1.1570595213,-2.2583879296\C,0,-2.5821
 924223,-0.1541402229,-0.327791893\C,0,-3.2661066381,0.2059044892,0.828
 7811492\C,0,-3.2732234768,-0.496587363,-1.4925918278\C,0,-4.6615384721
 ,0.2273100649,0.8334561699\H,0,-2.71559955,0.4702291459,1.7270298505\C
 ,0,-4.6613151104,-0.4776842795,-1.493643387\H,0,-2.7272361226,-0.77508
 22145,-2.3892006315\C,0,-5.3641885685,-0.1162772045,-0.3310727217\H,0,
 -5.184743269,0.5097061734,1.7398876145\H,0,-5.2171910289,-0.7409584598
 ,-2.3887597259\O,0,-6.7211515443,-0.1287284094,-0.4303167854\C,0,-7.48
 25348082,0.2330337588,0.7408166728\H,0,-8.5274576477,0.1529064183,0.43
 85836895\H,0,-7.2782295786,-0.4583555801,1.5659194461\H,0,-7.259853058
 5,1.2614002771,1.0465833702\H,0,7.0582001817,-0.3764866583,-0.59926307
 74\H,0,5.994995541,0.5539866714,1.4223196297\F,0,4.2258442272,0.656176
 614,3.2401298397\F,0,2.0696684513,0.4132641079,2.4599820651\F,0,3.2492
 545775,2.3492195847,2.0172445251\B,0,3.3634255702,0.923141851,2.129738
 0393\\Version=ES64L-G09RevE.01\State=1-A\HF=-1457.551744\RMSD=5.179e-0
 9\PG=C01 [X(C26H19B1F3N1O1)]\\@


 EXPERIMENTALISTS THINK SILICON IS REALLY FUN TO USE
     ITS PLACE IN NOVEL COMPOUNDS IS CERTAIN TO AMUSE
 THEY SIT ALL DAY IN LABORATORIES MAKING ALL THIS SLUDGE
     "LOADED WITH THE SILICON THEY SAY", TO ME IT LOOKS LIKE FUDGE.
 FOR HAPPY THOUGH THEY BE WITH CRUD, I'D LIKE TO KNOW A LITTLE
      ABOUT THE PI BONDS ON THE EDGE AND SIGMAS IN THE MIDDLE.

 SO LETS DERIVE A WAVEFUNCTION.....6-31G*
     USE AN OPTIMAL GEOMETRY AND SEE WHERE ELECTRONS ARE.
 BUT WHAT OF CORRELATION?  ASKS THE WIRY LITTLE SKEPTIC.
     WE'LL THROW IN PERTURBATION AS AN ELECTRON ANTISEPTIC.
 AND WHEN THE PROGRAM GIVES US ANSWERS IN THEM WE CAN TRUST
     SINCE NOBODY CAN MAKE THE STUFF, WE HAVE NO CHOICE, WE MUST.

 SO THEORY GUYS HAVE GOT IT MADE, IN ROOMS FREE OF POLLUTION.
     INSTEAD OF PROBLEMS WITH THE REFLUX, THEY HAVE ONLY SOLUTIONS.
 AND WHEN THE FEDS ANNOUNCE THE LIST OF CARCINOGENIC TERRORS,
     THE THEORISTS SIT SAFELY AT THEIR TERMINALS FIXING ERRORS.
 IN OTHER WORDS, EXPERIMENTALISTS WILL LIKELY DIE OF CANCER
     FROM WORKING HARD YET FRUITLESSLY...TILL THEORY GIVES THE ANSWER.
          -- THOMAS A. HOLME, 1983
 Job cpu time:       2 days  8 hours 42 minutes 18.0 seconds.
 File lengths (MBytes):  RWF=   4869 Int=      0 D2E=      0 Chk=   1099 Scr=      1
 Normal termination of Gaussian 09 at Tue Mar 30 21:49:38 2021.
