 Entering Gaussian System, Link 0=g09
 Input=/home/png4rjv/fotokatalizis/benchmark/OPCs/PTZ_1b_B97D3_def2TZVP.gjf
 Output=/home/png4rjv/fotokatalizis/benchmark/OPCs/PTZ_1b_B97D3_def2TZVP.log
 Initial command:
 /opt/nce/packages/global/g09/l1.exe "/home/png4rjv/fotokatalizis/benchmark/OPCs/PTZ_1b_B97D3_def2TZVP/Gau-787.inp" -scrdir="/home/png4rjv/fotokatalizis/benchmark/OPCs/PTZ_1b_B97D3_def2TZVP/"
 Default is to use a total of  12 processors:
                               12 via shared-memory
                                1 via Linda
 Entering Link 1 = /opt/nce/packages/global/g09/l1.exe PID=       788.
  
 Copyright (c) 1988,1990,1992,1993,1995,1998,2003,2009,2015,
            Gaussian, Inc.  All Rights Reserved.
  
 This is part of the Gaussian(R) 09 program.  It is based on
 the Gaussian(R) 03 system (copyright 2003, Gaussian, Inc.),
 the Gaussian(R) 98 system (copyright 1998, Gaussian, Inc.),
 the Gaussian(R) 94 system (copyright 1995, Gaussian, Inc.),
 the Gaussian 92(TM) system (copyright 1992, Gaussian, Inc.),
 the Gaussian 90(TM) system (copyright 1990, Gaussian, Inc.),
 the Gaussian 88(TM) system (copyright 1988, Gaussian, Inc.),
 the Gaussian 86(TM) system (copyright 1986, Carnegie Mellon
 University), and the Gaussian 82(TM) system (copyright 1983,
 Carnegie Mellon University). Gaussian is a federally registered
 trademark of Gaussian, Inc.
  
 This software contains proprietary and confidential information,
 including trade secrets, belonging to Gaussian, Inc.
  
 This software is provided under written license and may be
 used, copied, transmitted, or stored only in accord with that
 written license.
  
 The following legend is applicable only to US Government
 contracts under FAR:
  
                    RESTRICTED RIGHTS LEGEND
  
 Use, reproduction and disclosure by the US Government is
 subject to restrictions as set forth in subparagraphs (a)
 and (c) of the Commercial Computer Software - Restricted
 Rights clause in FAR 52.227-19.
  
 Gaussian, Inc.
 340 Quinnipiac St., Bldg. 40, Wallingford CT 06492
  
  
 ---------------------------------------------------------------
 Warning -- This program may not be used in any manner that
 competes with the business of Gaussian, Inc. or will provide
 assistance to any competitor of Gaussian, Inc.  The licensee
 of this program is prohibited from giving any competitor of
 Gaussian, Inc. access to this program.  By using this program,
 the user acknowledges that Gaussian, Inc. is engaged in the
 business of creating and licensing software in the field of
 computational chemistry and represents and warrants to the
 licensee that it is not a competitor of Gaussian, Inc. and that
 it will not use this program in any manner prohibited above.
 ---------------------------------------------------------------
  

 Cite this work as:
 Gaussian 09, Revision E.01,
 M. J. Frisch, G. W. Trucks, H. B. Schlegel, G. E. Scuseria, 
 M. A. Robb, J. R. Cheeseman, G. Scalmani, V. Barone, B. Mennucci, 
 G. A. Petersson, H. Nakatsuji, M. Caricato, X. Li, H. P. Hratchian, 
 A. F. Izmaylov, J. Bloino, G. Zheng, J. L. Sonnenberg, M. Hada, 
 M. Ehara, K. Toyota, R. Fukuda, J. Hasegawa, M. Ishida, T. Nakajima, 
 Y. Honda, O. Kitao, H. Nakai, T. Vreven, J. A. Montgomery, Jr., 
 J. E. Peralta, F. Ogliaro, M. Bearpark, J. J. Heyd, E. Brothers, 
 K. N. Kudin, V. N. Staroverov, T. Keith, R. Kobayashi, J. Normand, 
 K. Raghavachari, A. Rendell, J. C. Burant, S. S. Iyengar, J. Tomasi, 
 M. Cossi, N. Rega, J. M. Millam, M. Klene, J. E. Knox, J. B. Cross, 
 V. Bakken, C. Adamo, J. Jaramillo, R. Gomperts, R. E. Stratmann, 
 O. Yazyev, A. J. Austin, R. Cammi, C. Pomelli, J. W. Ochterski, 
 R. L. Martin, K. Morokuma, V. G. Zakrzewski, G. A. Voth, 
 P. Salvador, J. J. Dannenberg, S. Dapprich, A. D. Daniels, 
 O. Farkas, J. B. Foresman, J. V. Ortiz, J. Cioslowski, 
 and D. J. Fox, Gaussian, Inc., Wallingford CT, 2013.
 
 ******************************************
 Gaussian 09:  ES64L-G09RevE.01 30-Nov-2015
                30-Mar-2021 
 ******************************************
 %chk=cp.chk
 Default route:  MaxDisk=500GB
 ----------------------------------------------------------------------
 #p B97D3/def2TZVP opt freq=noraman nosymm int=ultrafine scrf=(SMD,solv
 ent=n,n-DiMethylAcetamide)
 ----------------------------------------------------------------------
 1/14=-1,18=20,19=15,26=4,38=1/1,3;
 2/9=110,12=2,15=1,17=6,18=5,40=1/2;
 3/5=44,7=101,11=2,16=1,25=1,30=1,70=32201,71=1,72=147,74=-59,75=-5/1,2,3;
 4//1;
 5/5=2,38=5,53=147/2;
 6/7=2,8=2,9=2,10=2,28=1/1;
 7/30=1/1,2,3,16;
 1/14=-1,18=20,19=15,26=4/3(2);
 2/9=110,15=1/2;
 99//99;
 2/9=110,15=1/2;
 3/5=44,7=101,11=2,16=1,25=1,30=1,70=32205,71=1,72=147,74=-59,75=-5/1,2,3;
 4/5=5,16=3,69=1/1;
 5/5=2,38=5,53=147/2;
 7/30=1/1,2,3,16;
 1/14=-1,18=20,19=15,26=4/3(-5);
 2/9=110,15=1/2;
 6/7=2,8=2,9=2,10=2,19=2,28=1/1;
 99/9=1/99;
 Leave Link    1 at Tue Mar 30 04:47:22 2021, MaxMem=           0 cpu:         0.9
 (Enter /opt/nce/packages/global/g09/l101.exe)
 -----
 Title
 -----
 Symbolic Z-matrix:
 Charge =  0 Multiplicity = 1
 C                    -1.96587   3.55795  -0.4129 
 C                    -2.25317   2.51937   0.47414 
 C                    -1.48663   1.34851   0.44676 
 C                    -0.43397   1.21038  -0.4751 
 C                    -0.19289   2.23549  -1.39782 
 C                    -0.94181   3.41256  -1.35496 
 C                    -0.41788  -1.18962  -0.46937 
 C                    -1.46858  -1.33736   0.45319 
 C                    -2.2193   -2.51831   0.48617 
 H                    -3.04103  -2.61356   1.19921 
 C                    -1.91804  -3.55714  -0.3959 
 C                    -0.89595  -3.40257  -1.33867 
 C                    -0.16293  -2.21576  -1.3872 
 H                    -3.07615   2.60689   1.18673 
 H                     0.6013    2.10304  -2.1345 
 H                    -0.73315   4.21395  -2.06703 
 H                    -2.49871  -4.48164  -0.36173 
 H                    -0.67663  -4.20452  -2.04689 
 C                     1.69233   0.02568  -0.05102 
 C                     2.39141  -1.17681   0.17752 
 C                     3.72533  -1.15866   0.58458 
 C                     3.70905   1.24034   0.57914 
 C                     4.40315   0.04598   0.7834 
 H                     4.23691  -2.1097    0.7538 
 H                     4.20757   2.19906   0.74396 
 H                     1.88953  -2.13416   0.05174 
 H                     5.4481    0.05373   1.09974 
 H                    -2.55887   4.47474  -0.38311 
 N                     0.34006   0.01558  -0.46695 
 H                     0.62945  -2.07607  -2.12447 
 S                    -1.83371   0.00584   1.56436 
 C                     2.37499   1.23851   0.172 
 H                     1.86023   2.18843   0.04196 
 
 NAtoms=     33 NQM=       33 NQMF=       0 NMMI=      0 NMMIF=      0
                NMic=       0 NMicF=      0.
                    Isotopes and Nuclear Properties:
 (Nuclear quadrupole moments (NQMom) in fm**2, nuclear magnetic moments (NMagM)
  in nuclear magnetons)

  Atom         1           2           3           4           5           6           7           8           9          10
 IAtWgt=          12          12          12          12          12          12          12          12          12           1
 AtmWgt=  12.0000000  12.0000000  12.0000000  12.0000000  12.0000000  12.0000000  12.0000000  12.0000000  12.0000000   1.0078250
 NucSpn=           0           0           0           0           0           0           0           0           0           1
 AtZEff=   0.0000000   0.0000000   0.0000000   0.0000000   0.0000000   0.0000000   0.0000000   0.0000000   0.0000000   0.0000000
 NQMom=    0.0000000   0.0000000   0.0000000   0.0000000   0.0000000   0.0000000   0.0000000   0.0000000   0.0000000   0.0000000
 NMagM=    0.0000000   0.0000000   0.0000000   0.0000000   0.0000000   0.0000000   0.0000000   0.0000000   0.0000000   2.7928460
 AtZNuc=   6.0000000   6.0000000   6.0000000   6.0000000   6.0000000   6.0000000   6.0000000   6.0000000   6.0000000   1.0000000

  Atom        11          12          13          14          15          16          17          18          19          20
 IAtWgt=          12          12          12           1           1           1           1           1          12          12
 AtmWgt=  12.0000000  12.0000000  12.0000000   1.0078250   1.0078250   1.0078250   1.0078250   1.0078250  12.0000000  12.0000000
 NucSpn=           0           0           0           1           1           1           1           1           0           0
 AtZEff=   0.0000000   0.0000000   0.0000000   0.0000000   0.0000000   0.0000000   0.0000000   0.0000000   0.0000000   0.0000000
 NQMom=    0.0000000   0.0000000   0.0000000   0.0000000   0.0000000   0.0000000   0.0000000   0.0000000   0.0000000   0.0000000
 NMagM=    0.0000000   0.0000000   0.0000000   2.7928460   2.7928460   2.7928460   2.7928460   2.7928460   0.0000000   0.0000000
 AtZNuc=   6.0000000   6.0000000   6.0000000   1.0000000   1.0000000   1.0000000   1.0000000   1.0000000   6.0000000   6.0000000

  Atom        21          22          23          24          25          26          27          28          29          30
 IAtWgt=          12          12          12           1           1           1           1           1          14           1
 AtmWgt=  12.0000000  12.0000000  12.0000000   1.0078250   1.0078250   1.0078250   1.0078250   1.0078250  14.0030740   1.0078250
 NucSpn=           0           0           0           1           1           1           1           1           2           1
 AtZEff=   0.0000000   0.0000000   0.0000000   0.0000000   0.0000000   0.0000000   0.0000000   0.0000000   0.0000000   0.0000000
 NQMom=    0.0000000   0.0000000   0.0000000   0.0000000   0.0000000   0.0000000   0.0000000   0.0000000   2.0440000   0.0000000
 NMagM=    0.0000000   0.0000000   0.0000000   2.7928460   2.7928460   2.7928460   2.7928460   2.7928460   0.4037610   2.7928460
 AtZNuc=   6.0000000   6.0000000   6.0000000   1.0000000   1.0000000   1.0000000   1.0000000   1.0000000   7.0000000   1.0000000

  Atom        31          32          33
 IAtWgt=          32          12           1
 AtmWgt=  31.9720718  12.0000000   1.0078250
 NucSpn=           0           0           1
 AtZEff=   0.0000000   0.0000000   0.0000000
 NQMom=    0.0000000   0.0000000   0.0000000
 NMagM=    0.0000000   0.0000000   2.7928460
 AtZNuc=  16.0000000   6.0000000   1.0000000
 Leave Link  101 at Tue Mar 30 04:47:22 2021, MaxMem=  5242880000 cpu:         4.2
 (Enter /opt/nce/packages/global/g09/l103.exe)

 GradGradGradGradGradGradGradGradGradGradGradGradGradGradGradGradGradGrad
 Berny optimization.
 Initialization pass.
                           ----------------------------
                           !    Initial Parameters    !
                           ! (Angstroms and Degrees)  !
 --------------------------                            --------------------------
 ! Name  Definition              Value          Derivative Info.                !
 --------------------------------------------------------------------------------
 ! R1    R(1,2)                  1.3957         estimate D2E/DX2                !
 ! R2    R(1,6)                  1.399          estimate D2E/DX2                !
 ! R3    R(1,28)                 1.0923         estimate D2E/DX2                !
 ! R4    R(2,3)                  1.3997         estimate D2E/DX2                !
 ! R5    R(2,14)                 1.0921         estimate D2E/DX2                !
 ! R6    R(3,4)                  1.4061         estimate D2E/DX2                !
 ! R7    R(3,31)                 1.7811         estimate D2E/DX2                !
 ! R8    R(4,5)                  1.4001         estimate D2E/DX2                !
 ! R9    R(4,29)                 1.4236         estimate D2E/DX2                !
 ! R10   R(5,6)                  1.3958         estimate D2E/DX2                !
 ! R11   R(5,15)                 1.0913         estimate D2E/DX2                !
 ! R12   R(6,16)                 1.0922         estimate D2E/DX2                !
 ! R13   R(7,8)                  1.406          estimate D2E/DX2                !
 ! R14   R(7,13)                 1.4001         estimate D2E/DX2                !
 ! R15   R(7,29)                 1.4237         estimate D2E/DX2                !
 ! R16   R(8,9)                  1.3997         estimate D2E/DX2                !
 ! R17   R(8,31)                 1.7811         estimate D2E/DX2                !
 ! R18   R(9,10)                 1.0921         estimate D2E/DX2                !
 ! R19   R(9,11)                 1.3957         estimate D2E/DX2                !
 ! R20   R(11,12)                1.3991         estimate D2E/DX2                !
 ! R21   R(11,17)                1.0923         estimate D2E/DX2                !
 ! R22   R(12,13)                1.3958         estimate D2E/DX2                !
 ! R23   R(12,18)                1.0922         estimate D2E/DX2                !
 ! R24   R(13,30)                1.0913         estimate D2E/DX2                !
 ! R25   R(19,20)                1.4096         estimate D2E/DX2                !
 ! R26   R(19,29)                1.4148         estimate D2E/DX2                !
 ! R27   R(19,32)                1.4095         estimate D2E/DX2                !
 ! R28   R(20,21)                1.3948         estimate D2E/DX2                !
 ! R29   R(20,26)                1.0882         estimate D2E/DX2                !
 ! R30   R(21,23)                1.3965         estimate D2E/DX2                !
 ! R31   R(21,24)                1.0931         estimate D2E/DX2                !
 ! R32   R(22,23)                1.3964         estimate D2E/DX2                !
 ! R33   R(22,25)                1.0931         estimate D2E/DX2                !
 ! R34   R(22,32)                1.3948         estimate D2E/DX2                !
 ! R35   R(23,27)                1.0918         estimate D2E/DX2                !
 ! R36   R(32,33)                1.0882         estimate D2E/DX2                !
 ! A1    A(2,1,6)              120.0857         estimate D2E/DX2                !
 ! A2    A(2,1,28)             119.7018         estimate D2E/DX2                !
 ! A3    A(6,1,28)             120.1977         estimate D2E/DX2                !
 ! A4    A(1,2,3)              119.8206         estimate D2E/DX2                !
 ! A5    A(1,2,14)             120.6744         estimate D2E/DX2                !
 ! A6    A(3,2,14)             119.5036         estimate D2E/DX2                !
 ! A7    A(2,3,4)              120.3311         estimate D2E/DX2                !
 ! A8    A(2,3,31)             120.7702         estimate D2E/DX2                !
 ! A9    A(4,3,31)             118.8966         estimate D2E/DX2                !
 ! A10   A(3,4,5)              119.2789         estimate D2E/DX2                !
 ! A11   A(3,4,29)             119.0612         estimate D2E/DX2                !
 ! A12   A(5,4,29)             121.6424         estimate D2E/DX2                !
 ! A13   A(4,5,6)              120.3184         estimate D2E/DX2                !
 ! A14   A(4,5,15)             118.7713         estimate D2E/DX2                !
 ! A15   A(6,5,15)             120.8999         estimate D2E/DX2                !
 ! A16   A(1,6,5)              120.0697         estimate D2E/DX2                !
 ! A17   A(1,6,16)             120.1732         estimate D2E/DX2                !
 ! A18   A(5,6,16)             119.753          estimate D2E/DX2                !
 ! A19   A(8,7,13)             119.2868         estimate D2E/DX2                !
 ! A20   A(8,7,29)             119.0563         estimate D2E/DX2                !
 ! A21   A(13,7,29)            121.6395         estimate D2E/DX2                !
 ! A22   A(7,8,9)              120.3249         estimate D2E/DX2                !
 ! A23   A(7,8,31)             118.9012         estimate D2E/DX2                !
 ! A24   A(9,8,31)             120.7717         estimate D2E/DX2                !
 ! A25   A(8,9,10)             119.5055         estimate D2E/DX2                !
 ! A26   A(8,9,11)             119.8216         estimate D2E/DX2                !
 ! A27   A(10,9,11)            120.6715         estimate D2E/DX2                !
 ! A28   A(9,11,12)            120.0883         estimate D2E/DX2                !
 ! A29   A(9,11,17)            119.7            estimate D2E/DX2                !
 ! A30   A(12,11,17)           120.1968         estimate D2E/DX2                !
 ! A31   A(11,12,13)           120.0684         estimate D2E/DX2                !
 ! A32   A(11,12,18)           120.1693         estimate D2E/DX2                !
 ! A33   A(13,12,18)           119.7582         estimate D2E/DX2                !
 ! A34   A(7,13,12)            120.3144         estimate D2E/DX2                !
 ! A35   A(7,13,30)            118.7682         estimate D2E/DX2                !
 ! A36   A(12,13,30)           120.907          estimate D2E/DX2                !
 ! A37   A(20,19,29)           121.0375         estimate D2E/DX2                !
 ! A38   A(20,19,32)           117.9168         estimate D2E/DX2                !
 ! A39   A(29,19,32)           121.0352         estimate D2E/DX2                !
 ! A40   A(19,20,21)           120.6992         estimate D2E/DX2                !
 ! A41   A(19,20,26)           120.1999         estimate D2E/DX2                !
 ! A42   A(21,20,26)           119.0949         estimate D2E/DX2                !
 ! A43   A(20,21,23)           121.1302         estimate D2E/DX2                !
 ! A44   A(20,21,24)           118.7801         estimate D2E/DX2                !
 ! A45   A(23,21,24)           120.0886         estimate D2E/DX2                !
 ! A46   A(23,22,25)           120.0941         estimate D2E/DX2                !
 ! A47   A(23,22,32)           121.13           estimate D2E/DX2                !
 ! A48   A(25,22,32)           118.7748         estimate D2E/DX2                !
 ! A49   A(21,23,22)           118.4067         estimate D2E/DX2                !
 ! A50   A(21,23,27)           120.7921         estimate D2E/DX2                !
 ! A51   A(22,23,27)           120.799          estimate D2E/DX2                !
 ! A52   A(4,29,7)             114.8971         estimate D2E/DX2                !
 ! A53   A(4,29,19)            121.021          estimate D2E/DX2                !
 ! A54   A(7,29,19)            121.0219         estimate D2E/DX2                !
 ! A55   A(3,31,8)              97.8802         estimate D2E/DX2                !
 ! A56   A(19,32,22)           120.7001         estimate D2E/DX2                !
 ! A57   A(19,32,33)           120.2054         estimate D2E/DX2                !
 ! A58   A(22,32,33)           119.0884         estimate D2E/DX2                !
 ! D1    D(6,1,2,3)              2.0071         estimate D2E/DX2                !
 ! D2    D(6,1,2,14)          -177.5489         estimate D2E/DX2                !
 ! D3    D(28,1,2,3)          -179.389          estimate D2E/DX2                !
 ! D4    D(28,1,2,14)            1.0549         estimate D2E/DX2                !
 ! D5    D(2,1,6,5)             -0.8782         estimate D2E/DX2                !
 ! D6    D(2,1,6,16)           178.3857         estimate D2E/DX2                !
 ! D7    D(28,1,6,5)          -179.4751         estimate D2E/DX2                !
 ! D8    D(28,1,6,16)           -0.2111         estimate D2E/DX2                !
 ! D9    D(1,2,3,4)             -0.3788         estimate D2E/DX2                !
 ! D10   D(1,2,3,31)          -179.8438         estimate D2E/DX2                !
 ! D11   D(14,2,3,4)           179.1825         estimate D2E/DX2                !
 ! D12   D(14,2,3,31)           -0.2825         estimate D2E/DX2                !
 ! D13   D(2,3,4,5)             -2.3602         estimate D2E/DX2                !
 ! D14   D(2,3,4,29)           179.1366         estimate D2E/DX2                !
 ! D15   D(31,3,4,5)           177.1148         estimate D2E/DX2                !
 ! D16   D(31,3,4,29)           -1.3884         estimate D2E/DX2                !
 ! D17   D(2,3,31,8)           143.6135         estimate D2E/DX2                !
 ! D18   D(4,3,31,8)           -35.8591         estimate D2E/DX2                !
 ! D19   D(3,4,5,6)              3.497          estimate D2E/DX2                !
 ! D20   D(3,4,5,15)          -177.6641         estimate D2E/DX2                !
 ! D21   D(29,4,5,6)          -178.0398         estimate D2E/DX2                !
 ! D22   D(29,4,5,15)            0.7991         estimate D2E/DX2                !
 ! D23   D(3,4,29,7)            49.1325         estimate D2E/DX2                !
 ! D24   D(3,4,29,19)         -111.2738         estimate D2E/DX2                !
 ! D25   D(5,4,29,7)          -129.334          estimate D2E/DX2                !
 ! D26   D(5,4,29,19)           70.2597         estimate D2E/DX2                !
 ! D27   D(4,5,6,1)             -1.8997         estimate D2E/DX2                !
 ! D28   D(4,5,6,16)           178.8333         estimate D2E/DX2                !
 ! D29   D(15,5,6,1)           179.2865         estimate D2E/DX2                !
 ! D30   D(15,5,6,16)            0.0194         estimate D2E/DX2                !
 ! D31   D(13,7,8,9)             2.3599         estimate D2E/DX2                !
 ! D32   D(13,7,8,31)         -177.1164         estimate D2E/DX2                !
 ! D33   D(29,7,8,9)          -179.1361         estimate D2E/DX2                !
 ! D34   D(29,7,8,31)            1.3876         estimate D2E/DX2                !
 ! D35   D(8,7,13,12)           -3.4968         estimate D2E/DX2                !
 ! D36   D(8,7,13,30)          177.6635         estimate D2E/DX2                !
 ! D37   D(29,7,13,12)         178.0393         estimate D2E/DX2                !
 ! D38   D(29,7,13,30)          -0.8005         estimate D2E/DX2                !
 ! D39   D(8,7,29,4)           -49.1317         estimate D2E/DX2                !
 ! D40   D(8,7,29,19)          111.2745         estimate D2E/DX2                !
 ! D41   D(13,7,29,4)          129.3357         estimate D2E/DX2                !
 ! D42   D(13,7,29,19)         -70.2581         estimate D2E/DX2                !
 ! D43   D(7,8,9,10)          -179.1868         estimate D2E/DX2                !
 ! D44   D(7,8,9,11)             0.3775         estimate D2E/DX2                !
 ! D45   D(31,8,9,10)            0.2797         estimate D2E/DX2                !
 ! D46   D(31,8,9,11)          179.8439         estimate D2E/DX2                !
 ! D47   D(7,8,31,3)            35.8597         estimate D2E/DX2                !
 ! D48   D(9,8,31,3)          -143.6142         estimate D2E/DX2                !
 ! D49   D(8,9,11,12)           -2.004          estimate D2E/DX2                !
 ! D50   D(8,9,11,17)          179.3929         estimate D2E/DX2                !
 ! D51   D(10,9,11,12)         177.5551         estimate D2E/DX2                !
 ! D52   D(10,9,11,17)          -1.0481         estimate D2E/DX2                !
 ! D53   D(9,11,12,13)           0.8749         estimate D2E/DX2                !
 ! D54   D(9,11,12,18)        -178.383          estimate D2E/DX2                !
 ! D55   D(17,11,12,13)        179.4711         estimate D2E/DX2                !
 ! D56   D(17,11,12,18)          0.2132         estimate D2E/DX2                !
 ! D57   D(11,12,13,7)           1.901          estimate D2E/DX2                !
 ! D58   D(11,12,13,30)       -179.2844         estimate D2E/DX2                !
 ! D59   D(18,12,13,7)        -178.838          estimate D2E/DX2                !
 ! D60   D(18,12,13,30)         -0.0234         estimate D2E/DX2                !
 ! D61   D(29,19,20,21)        179.8571         estimate D2E/DX2                !
 ! D62   D(29,19,20,26)         -1.0437         estimate D2E/DX2                !
 ! D63   D(32,19,20,21)         -1.3109         estimate D2E/DX2                !
 ! D64   D(32,19,20,26)        177.7883         estimate D2E/DX2                !
 ! D65   D(20,19,29,4)         169.0096         estimate D2E/DX2                !
 ! D66   D(20,19,29,7)           9.8            estimate D2E/DX2                !
 ! D67   D(32,19,29,4)          -9.7859         estimate D2E/DX2                !
 ! D68   D(32,19,29,7)        -168.9955         estimate D2E/DX2                !
 ! D69   D(20,19,32,22)          1.3097         estimate D2E/DX2                !
 ! D70   D(20,19,32,33)       -177.7849         estimate D2E/DX2                !
 ! D71   D(29,19,32,22)       -179.8583         estimate D2E/DX2                !
 ! D72   D(29,19,32,33)          1.0471         estimate D2E/DX2                !
 ! D73   D(19,20,21,23)          0.3197         estimate D2E/DX2                !
 ! D74   D(19,20,21,24)        179.9379         estimate D2E/DX2                !
 ! D75   D(26,20,21,23)       -178.7893         estimate D2E/DX2                !
 ! D76   D(26,20,21,24)          0.8289         estimate D2E/DX2                !
 ! D77   D(20,21,23,22)          0.6969         estimate D2E/DX2                !
 ! D78   D(20,21,23,27)       -179.8487         estimate D2E/DX2                !
 ! D79   D(24,21,23,22)       -178.9163         estimate D2E/DX2                !
 ! D80   D(24,21,23,27)          0.5381         estimate D2E/DX2                !
 ! D81   D(25,22,23,21)        178.918          estimate D2E/DX2                !
 ! D82   D(25,22,23,27)         -0.5363         estimate D2E/DX2                !
 ! D83   D(32,22,23,21)         -0.6981         estimate D2E/DX2                !
 ! D84   D(32,22,23,27)        179.8475         estimate D2E/DX2                !
 ! D85   D(23,22,32,19)         -0.3173         estimate D2E/DX2                !
 ! D86   D(23,22,32,33)        178.7872         estimate D2E/DX2                !
 ! D87   D(25,22,32,19)       -179.9384         estimate D2E/DX2                !
 ! D88   D(25,22,32,33)         -0.8338         estimate D2E/DX2                !
 --------------------------------------------------------------------------------
 Trust Radius=3.00D-01 FncErr=1.00D-07 GrdErr=1.00D-06
 Number of steps in this run=    192 maximum allowed number of steps=    198.
 GradGradGradGradGradGradGradGradGradGradGradGradGradGradGradGradGradGrad

 Leave Link  103 at Tue Mar 30 04:47:22 2021, MaxMem=  5242880000 cpu:         0.2
 (Enter /opt/nce/packages/global/g09/l202.exe)
                          Input orientation:                          
 ---------------------------------------------------------------------
 Center     Atomic      Atomic             Coordinates (Angstroms)
 Number     Number       Type             X           Y           Z
 ---------------------------------------------------------------------
      1          6           0       -1.965872    3.557948   -0.412902
      2          6           0       -2.253168    2.519367    0.474144
      3          6           0       -1.486629    1.348512    0.446759
      4          6           0       -0.433970    1.210384   -0.475097
      5          6           0       -0.192888    2.235487   -1.397816
      6          6           0       -0.941805    3.412564   -1.354961
      7          6           0       -0.417880   -1.189617   -0.469365
      8          6           0       -1.468582   -1.337363    0.453187
      9          6           0       -2.219298   -2.518310    0.486174
     10          1           0       -3.041027   -2.613564    1.199214
     11          6           0       -1.918035   -3.557138   -0.395900
     12          6           0       -0.895948   -3.402570   -1.338669
     13          6           0       -0.162927   -2.215764   -1.387196
     14          1           0       -3.076148    2.606890    1.186728
     15          1           0        0.601304    2.103043   -2.134497
     16          1           0       -0.733145    4.213953   -2.067033
     17          1           0       -2.498707   -4.481636   -0.361725
     18          1           0       -0.676625   -4.204520   -2.046893
     19          6           0        1.692326    0.025680   -0.051024
     20          6           0        2.391414   -1.176811    0.177515
     21          6           0        3.725331   -1.158657    0.584578
     22          6           0        3.709052    1.240343    0.579135
     23          6           0        4.403146    0.045981    0.783403
     24          1           0        4.236905   -2.109705    0.753795
     25          1           0        4.207568    2.199061    0.743959
     26          1           0        1.889530   -2.134165    0.051743
     27          1           0        5.448104    0.053734    1.099740
     28          1           0       -2.558872    4.474739   -0.383109
     29          7           0        0.340059    0.015583   -0.466952
     30          1           0        0.629453   -2.076072   -2.124470
     31         16           0       -1.833705    0.005836    1.564355
     32          6           0        2.374986    1.238513    0.171997
     33          1           0        1.860230    2.188433    0.041957
 ---------------------------------------------------------------------
                    Distance matrix (angstroms):
                    1          2          3          4          5
     1  C    0.000000
     2  C    1.395722   0.000000
     3  C    2.418739   1.399726   0.000000
     4  C    2.803863   2.433922   1.406054   0.000000
     5  C    2.421246   2.798138   2.421352   1.400131   0.000000
     6  C    1.399044   2.421384   2.793446   2.425212   1.395788
     7  C    4.993880   4.244414   2.902345   2.400062   3.555837
     8  C    4.996146   3.935782   2.685943   2.902266   4.221240
     9  C    6.147640   5.037805   3.935819   4.244361   5.500395
    10  H    6.468573   5.243418   4.322081   4.921650   6.194333
    11  C    7.115267   6.147618   4.996157   4.993795   6.126538
    12  C    7.102858   6.340164   5.109739   4.715774   5.682031
    13  C    6.126631   5.500469   4.221332   3.555823   4.451364
    14  H    2.167035   1.092123   2.158157   3.419502   3.889858
    15  H    3.416289   3.889260   3.404653   2.149940   1.091321
    16  H    2.164742   3.411696   3.885568   3.412505   2.157326
    17  H    8.057384   7.054999   5.972317   6.055996   7.177049
    18  H    8.036666   7.351991   6.140893   5.643634   6.490685
    19  C    5.098067   4.696935   3.478998   2.470728   3.201738
    20  C    6.461616   5.943220   4.635619   3.755982   4.561147
    21  C    7.458627   7.020150   5.785276   4.902556   5.550004
    22  C    6.209685   6.098770   5.198493   4.275153   4.485954
    23  C    7.370851   7.107728   6.041470   5.131993   5.538518
    24  H    8.482801   7.976689   6.694205   5.860908   6.567586
    25  H    6.426217   6.474296   5.765036   4.899740   4.894133
    26  H    6.890586   6.244656   4.866572   4.106363   5.052875
    27  H    8.338743   8.110506   7.084727   6.198124   6.543594
    28  H    1.092265   2.156807   3.407592   3.896111   3.412002
    29  N    4.227125   3.725510   2.438925   1.423635   2.465464
    30  H    6.434855   6.015011   4.776693   3.827805   4.449024
    31  S    4.067495   2.771705   1.781084   2.751283   4.054390
    32  C    4.956302   4.811620   3.872940   2.882665   3.170528
    33  H    4.089196   4.149258   3.474305   2.547014   2.508078
                    6          7          8          9         10
     6  C    0.000000
     7  C    4.715808   0.000000
     8  C    5.109667   1.406025   0.000000
     9  C    6.340113   2.433842   1.399749   0.000000
    10  H    6.873482   3.419456   2.158200   1.092125   0.000000
    11  C    7.102786   2.803751   2.418751   1.395700   2.166987
    12  C    6.815308   2.425160   2.793517   2.421409   3.415369
    13  C    5.682057   1.400140   2.421432   2.798162   3.889887
    14  H    3.415364   4.921636   4.321977   5.243343   5.220587
    15  H    2.168803   3.827925   4.776707   6.015032   6.828366
    16  H    1.092158   5.643625   6.140805   7.351930   7.912628
    17  H    8.107333   3.896000   3.407593   2.156769   2.494060
    18  H    7.653042   3.412504   3.885638   3.411682   4.319577
    19  C    4.484404   2.470815   3.479002   4.696943   5.561774
    20  C    5.875474   2.882837   3.873156   4.811814   5.711352
    21  C    6.814692   4.275272   5.198647   6.098931   6.948247
    22  C    5.485412   4.902614   5.785181   7.020075   7.797478
    23  C    6.668957   5.132097   6.041512   7.107791   7.915920
    24  H    7.858839   4.899970   5.765367   6.474653   7.308937
    25  H    5.691581   5.860893   6.693991   7.976506   8.712677
    26  H    6.384472   2.547129   3.474618   4.149550   5.084969
    27  H    7.624843   6.198208   7.084753   8.110544   8.898861
    28  H    2.165091   6.056089   5.972324   7.055048   7.278754
    29  N    3.737809   1.423722   2.438914   3.725503   4.595679
    30  H    5.760740   2.149903   3.404667   3.889270   4.980783
    31  S    4.574242   2.751306   1.781065   2.771727   2.907269
    32  C    4.249612   3.755963   4.635431   5.943052   6.725092
    33  H    3.361737   4.106392   4.866347   6.244462   6.958501
                   11         12         13         14         15
    11  C    0.000000
    12  C    1.399059   0.000000
    13  C    2.421230   1.395773   0.000000
    14  H    6.468476   6.873464   6.194347   0.000000
    15  H    6.434861   5.760806   4.449112   4.980768   0.000000
    16  H    8.036573   7.653002   6.490654   4.319638   2.498249
    17  H    1.092266   2.165096   3.411984   7.278623   7.490713
    18  H    2.164712   1.092157   2.157368   7.912605   6.436313
    19  C    5.098061   4.484428   3.201779   5.561746   3.137933
    20  C    4.956421   4.249655   3.170552   6.725261   4.394011
    21  C    6.209801   5.485458   4.485969   7.797567   5.271774
    22  C    7.458594   6.814737   5.550077   6.948062   4.214991
    23  C    7.370926   6.669040   5.538593   7.915855   5.215328
    24  H    6.426519   5.691756   4.894243   8.712890   6.269535
    25  H    8.482695   7.858848   6.567627   7.308549   4.615178
    26  H    4.089351   3.361694   2.507944   6.958718   4.938937
    27  H    8.338785   7.624885   6.543634   8.898823   6.176684
    28  H    8.057412   8.107429   7.177156   2.494158   4.321923
    29  N    4.227100   3.737830   2.465513   4.595650   2.684482
    30  H    3.416315   2.168854   1.091308   6.828297   4.179222
    31  S    4.067492   4.574294   4.054462   2.907189   4.899903
    32  C    6.461486   5.875438   4.561153   5.711129   3.035338
    33  H    6.890471   6.384509   5.052979   5.084627   2.515778
                   16         17         18         19         20
    16  H    0.000000
    17  H    9.035406   0.000000
    18  H    8.418687   2.497312   0.000000
    19  C    5.242979   6.162564   5.243092   0.000000
    20  C    6.622779   5.926713   4.850554   1.409588   0.000000
    21  C    7.468198   7.118731   5.964825   2.437161   1.394763
    22  C    5.964702   8.494853   7.468381   2.437148   2.782104
    23  C    7.202670   8.333439   7.202875   2.836411   2.430923
    24  H    8.523328   7.227649   6.031159   3.417965   2.146678
    25  H    6.030930   9.530392   8.523500   3.417898   3.875021
    26  H    7.187923   4.993816   3.908426   2.171263   1.088225
    27  H    8.095907   9.265920   8.096069   3.928220   3.421709
    28  H    2.497376   8.956603   9.035517   6.162556   7.533900
    29  N    4.619344   5.319271   4.619430   1.414823   2.458699
    30  H    6.436178   4.321966   2.498429   3.137872   3.035179
    31  S    5.666256   4.928429   5.666308   3.878497   4.601479
    32  C    4.850462   7.533780   6.622870   1.409513   2.415386
    33  H    3.908473   7.978290   7.188100   2.171253   3.409604
                   21         22         23         24         25
    21  C    0.000000
    22  C    2.399061   0.000000
    23  C    1.396466   1.396421   0.000000
    24  H    1.093085   3.395873   2.162289   0.000000
    25  H    3.395913   1.093081   2.162304   4.308877   0.000000
    26  H    2.146088   3.869898   3.406850   2.450234   4.962793
    27  H    2.168693   2.168726   1.091818   2.503428   2.503585
    28  H    8.494868   7.118574   8.333327   9.530479   7.227289
    29  N    3.734250   3.734227   4.251234   4.603529   4.603423
    30  H    4.214861   5.271814   5.215323   4.615111   6.269574
    31  S    5.763583   5.763404   6.285683   6.479570   6.479218
    32  C    2.782100   1.394811   2.430922   3.875022   2.146660
    33  H    3.869890   2.146061   3.406797   4.962790   2.450085
                   26         27         28         29         30
    26  H    0.000000
    27  H    4.306814   0.000000
    28  H    7.978408   9.265840   0.000000
    29  N    2.700245   5.343042   5.319295   0.000000
    30  H    2.515367   6.176650   7.490720   2.684425   0.000000
    31  S    4.553030   7.296774   4.928446   2.975156   4.899890
    32  C    3.409558   3.421763   5.926572   2.458606   4.393987
    33  H    4.322708   4.306818   4.993630   2.700220   4.939051
                   31         32         33
    31  S    0.000000
    32  C    4.601221   0.000000
    33  H    4.552646   1.088224   0.000000
 Symmetry turned off by external request.
 Stoichiometry    C18H13NS
 Framework group  C1[X(C18H13NS)]
 Deg. of freedom    93
 Full point group                 C1      NOp   1
 Rotational constants (GHZ):      0.3749666      0.3439519      0.2142863
 Leave Link  202 at Tue Mar 30 04:47:22 2021, MaxMem=  5242880000 cpu:         0.1
 (Enter /opt/nce/packages/global/g09/l301.exe)
 Standard basis: def2TZVP (5D, 7F)
 Ernie: Thresh=  0.10000D-02 Tol=  0.10000D-05 Strict=F.
   704 basis functions,  1142 primitive gaussians,   804 cartesian basis functions
    72 alpha electrons       72 beta electrons
       nuclear repulsion energy      1561.5731074347 Hartrees.
 IExCor= 3630 DFT=T Ex+Corr=B97D3 ExCW=0 ScaHFX=  0.000000
 ScaDFX=  1.000000  1.000000  1.000000  1.000000 ScalE2=  1.000000  1.000000
 IRadAn=      5 IRanWt=     -1 IRanGd=            0 ICorTp=0 IEmpDi=141
 NAtoms=   33 NActive=   33 NUniq=   33 SFac= 1.00D+00 NAtFMM=   60 NAOKFM=F Big=F
 Integral buffers will be    131072 words long.
 Raffenetti 2 integral format.
 Two-electron integral symmetry is turned off.
 R6Disp:  Grimme-D3(BJ) Dispersion energy=       -0.1328660654 Hartrees.
 Nuclear repulsion after empirical dispersion term =     1561.4402413693 Hartrees.
 ------------------------------------------------------------------------------
 Polarizable Continuum Model (PCM)
 =================================
 Model                : PCM (using non-symmetric T matrix).
 Atomic radii         : SMD-Coulomb.
 Polarization charges : Total charges.
 Charge compensation  : None.
 Solution method      : On-the-fly selection.
 Cavity type          : VdW (van der Waals Surface) (Alpha=1.000).
 Cavity algorithm     : GePol (No added spheres)
                        Default sphere list used, NSphG=   33.
                        Lebedev-Laikov grids with approx.  5.0 points / Ang**2.
                        Smoothing algorithm: York/Karplus (Gamma=1.0000).
                        Polarization charges: spherical gaussians, with
                                              point-specific exponents (IZeta= 3).
                        Self-potential: point-specific (ISelfS= 7).
                        Self-field    : sphere-specific E.n sum rule (ISelfD= 2).
 1st derivatives      : Analytical E(r).r(x)/FMM algorithm (CHGder, D1EAlg=3).
                        Cavity 1st derivative terms included.
 Solvent              : n,n-DiMethylAcetamide, Eps=  37.781000 Eps(inf)=   2.067844
 ------------------------------------------------------------------------------
 GePol: Number of generator spheres                  =      33
 GePol: Total number of spheres                      =      33
 GePol: Number of exposed spheres                    =      33 (100.00%)
 GePol: Number of points                             =    2567
 GePol: Average weight of points                     =       0.11
 GePol: Minimum weight of points                     =   0.49D-11
 GePol: Maximum weight of points                     =    0.19854
 GePol: Number of points with low weight             =     142
 GePol: Fraction of low-weight points (<1% of avg)   =       5.53%
 GePol: Cavity surface area                          =    292.797 Ang**2
 GePol: Cavity volume                                =    293.541 Ang**3
 ------------------------------------------------------------------------------
 Atomic radii for non-electrostatic terms: SMD-CDS.
 ------------------------------------------------------------------------------
 PCM non-electrostatic energy =        -0.0051021016 Hartrees.
 Nuclear repulsion after PCM non-electrostatic terms =     1561.4351392677 Hartrees.
 Leave Link  301 at Tue Mar 30 04:47:22 2021, MaxMem=  5242880000 cpu:         1.6
 (Enter /opt/nce/packages/global/g09/l302.exe)
 NPDir=0 NMtPBC=     1 NCelOv=     1 NCel=       1 NClECP=     1 NCelD=      1
         NCelK=      1 NCelE2=     1 NClLst=     1 CellRange=     0.0.
 One-electron integrals computed using PRISM.
   1 Symmetry operations used in ECPInt.
 ECPInt:  NShTT=   37675 NPrTT=  118348 LenC2=   34059 LenP2D=   76440.
 LDataN:  DoStor=T MaxTD1= 6 Len=  172
 NBasis=   704 RedAO= T EigKep=  6.14D-06  NBF=   704
 NBsUse=   704 1.00D-06 EigRej= -1.00D+00 NBFU=   704
 Precomputing XC quadrature grid using
 IXCGrd= 4 IRadAn=           5 IRanWt=          -1 IRanGd=           0 AccXCQ= 0.00D+00.
 Generated NRdTot=       0 NPtTot=           0 NUsed=           0 NTot=          32
 NSgBfM=   792   792   792   792   792 MxSgAt=    33 MxSgA2=    33.
 Leave Link  302 at Tue Mar 30 04:47:24 2021, MaxMem=  5242880000 cpu:        13.2
 (Enter /opt/nce/packages/global/g09/l303.exe)
 DipDrv:  MaxL=1.
 Leave Link  303 at Tue Mar 30 04:47:24 2021, MaxMem=  5242880000 cpu:         1.5
 (Enter /opt/nce/packages/global/g09/l401.exe)
 ExpMin= 9.52D-02 ExpMax= 6.07D+04 ExpMxC= 2.07D+03 IAcc=3 IRadAn=         5 AccDes= 0.00D+00
 Harris functional with IExCor= 3630 and IRadAn=       5 diagonalized for initial guess.
 HarFok:  IExCor= 3630 AccDes= 0.00D+00 IRadAn=         5 IDoV= 1 UseB2=F ITyADJ=14
 ICtDFT=  3500011 ScaDFX=  1.000000  1.000000  1.000000  1.000000
 FoFCou: FMM=F IPFlag=           0 FMFlag=      100000 FMFlg1=           0
         NFxFlg=           0 DoJE=T BraDBF=F KetDBF=T FulRan=T
         wScrn=  0.000000 ICntrl=     500 IOpCl=  0 I1Cent=   200000004 NGrid=           0
         NMat0=    1 NMatS0=      1 NMatT0=    0 NMatD0=    1 NMtDS0=    0 NMtDT0=    0
 Symmetry not used in FoFCou.
 Harris En= -1146.70438528313    
 JPrj=0 DoOrth=F DoCkMO=F.
 Leave Link  401 at Tue Mar 30 04:47:29 2021, MaxMem=  5242880000 cpu:        67.7
 (Enter /opt/nce/packages/global/g09/l502.exe)
 Closed shell SCF:
 Using DIIS extrapolation, IDIIS=  1040.
 Two-electron integral symmetry not used.
 IVT=     1972336 IEndB=     1972336 NGot=  5242880000 MDV=  5241571525
 LenX=  5241571525 LenY=  5240924305
 Requested convergence on RMS density matrix=1.00D-08 within 128 cycles.
 Requested convergence on MAX density matrix=1.00D-06.
 Requested convergence on             energy=1.00D-06.
 No special actions if energy rises.
 Fock matrices will be formed incrementally for  20 cycles.

 Cycle   1  Pass 1  IDiag  1:
 FoFJK:  IHMeth= 1 ICntrl=     500 DoSepK=F KAlg= 0 I1Cent=   0 FoldK=F
 IRaf= 810000000 NMat=   1 IRICut=       1 DoRegI=T DoRafI=F ISym2E= 0.
 FoFCou: FMM=F IPFlag=           0 FMFlag=      100000 FMFlg1=           0
         NFxFlg=           0 DoJE=T BraDBF=F KetDBF=F FulRan=T
         wScrn=  0.000000 ICntrl=     500 IOpCl=  0 I1Cent=           0 NGrid=           0
         NMat0=    1 NMatS0=      1 NMatT0=    0 NMatD0=    1 NMtDS0=    0 NMtDT0=    0
 Symmetry not used in FoFCou.
 Inv3:  Mode=1 IEnd=    19768467.
 Iteration    1 A*A^-1 deviation from unit magnitude is 8.10D-15 for   2556.
 Iteration    1 A*A^-1 deviation from orthogonality  is 2.42D-15 for   2563   2447.
 Iteration    1 A^-1*A deviation from unit magnitude is 8.22D-15 for   2556.
 Iteration    1 A^-1*A deviation from orthogonality  is 2.30D-06 for   2308   2284.
 Iteration    2 A*A^-1 deviation from unit magnitude is 3.11D-15 for    210.
 Iteration    2 A*A^-1 deviation from orthogonality  is 3.16D-15 for   2558    661.
 Iteration    2 A^-1*A deviation from unit magnitude is 9.99D-16 for    618.
 Iteration    2 A^-1*A deviation from orthogonality  is 6.91D-16 for   2549   1877.
 E= -1146.05763701228    
 DIIS: error= 1.79D-02 at cycle   1 NSaved=   1.
 NSaved= 1 IEnMin= 1 EnMin= -1146.05763701228     IErMin= 1 ErrMin= 1.79D-02
 ErrMax= 1.79D-02  0.00D+00 EMaxC= 1.00D-01 BMatC= 4.26D-01 BMatP= 4.26D-01
 IDIUse=3 WtCom= 8.21D-01 WtEn= 1.79D-01
 Coeff-Com:  0.100D+01
 Coeff-En:   0.100D+01
 Coeff:      0.100D+01
 Gap=     0.276 Goal=   None    Shift=    0.000
 GapD=    0.276 DampG=1.000 DampE=0.500 DampFc=0.5000 IDamp=-1.
 Damping current iteration by 5.00D-01
 RMSDP=3.38D-03 MaxDP=2.30D-01              OVMax= 3.25D-01

 Cycle   2  Pass 1  IDiag  1:
 RMSU=  1.69D-03    CP:  9.88D-01
 E= -1146.16268301932     Delta-E=       -0.105046007036 Rises=F Damp=T
 DIIS: error= 9.01D-03 at cycle   2 NSaved=   2.
 NSaved= 2 IEnMin= 2 EnMin= -1146.16268301932     IErMin= 2 ErrMin= 9.01D-03
 ErrMax= 9.01D-03  0.00D+00 EMaxC= 1.00D-01 BMatC= 6.66D-02 BMatP= 4.26D-01
 IDIUse=3 WtCom= 9.10D-01 WtEn= 9.01D-02
 Coeff-Com:  0.215D+00 0.785D+00
 Coeff-En:   0.378D+00 0.622D+00
 Coeff:      0.230D+00 0.770D+00
 Gap=     0.167 Goal=   None    Shift=    0.000
 RMSDP=1.72D-03 MaxDP=9.63D-02 DE=-1.05D-01 OVMax= 2.95D-01

 Cycle   3  Pass 1  IDiag  1:
 RMSU=  1.59D-03    CP:  9.98D-01  6.19D-01
 E= -1146.41974046782     Delta-E=       -0.257057448498 Rises=F Damp=F
 DIIS: error= 1.12D-02 at cycle   3 NSaved=   3.
 NSaved= 3 IEnMin= 3 EnMin= -1146.41974046782     IErMin= 2 ErrMin= 9.01D-03
 ErrMax= 1.12D-02  0.00D+00 EMaxC= 1.00D-01 BMatC= 7.35D-02 BMatP= 6.66D-02
 IDIUse=2 WtCom= 0.00D+00 WtEn= 1.00D+00
 Coeff-En:   0.000D+00 0.000D+00 0.100D+01
 Coeff:      0.000D+00 0.000D+00 0.100D+01
 Gap=     0.175 Goal=   None    Shift=    0.000
 RMSDP=1.91D-03 MaxDP=9.88D-02 DE=-2.57D-01 OVMax= 3.04D-01

 Cycle   4  Pass 1  IDiag  1:
 RMSU=  1.14D-03    CP:  9.69D-01  6.74D-01  4.99D-02
 E= -1145.91504327408     Delta-E=        0.504697193742 Rises=F Damp=F
 DIIS: error= 3.40D-02 at cycle   4 NSaved=   4.
 NSaved= 4 IEnMin= 3 EnMin= -1146.41974046782     IErMin= 2 ErrMin= 9.01D-03
 ErrMax= 3.40D-02  0.00D+00 EMaxC= 1.00D-01 BMatC= 5.32D-01 BMatP= 6.66D-02
 IDIUse=2 WtCom= 0.00D+00 WtEn= 1.00D+00
 Coeff-En:   0.000D+00 0.000D+00 0.813D+00 0.187D+00
 Coeff:      0.000D+00 0.000D+00 0.813D+00 0.187D+00
 Gap=     0.147 Goal=   None    Shift=    0.000
 RMSDP=7.25D-04 MaxDP=3.95D-02 DE= 5.05D-01 OVMax= 1.65D-01

 Cycle   5  Pass 1  IDiag  1:
 RMSU=  2.82D-04    CP:  9.74D-01  5.89D-01  3.23D-01  5.76D-01
 E= -1146.44859015418     Delta-E=       -0.533546880108 Rises=F Damp=F
 DIIS: error= 9.69D-03 at cycle   5 NSaved=   5.
 NSaved= 5 IEnMin= 5 EnMin= -1146.44859015418     IErMin= 2 ErrMin= 9.01D-03
 ErrMax= 9.69D-03  0.00D+00 EMaxC= 1.00D-01 BMatC= 4.93D-02 BMatP= 6.66D-02
 IDIUse=3 WtCom= 9.03D-01 WtEn= 9.69D-02
 Coeff-Com:  0.803D-02 0.262D-01 0.369D+00-0.738D-01 0.670D+00
 Coeff-En:   0.000D+00 0.000D+00 0.426D+00 0.000D+00 0.574D+00
 Coeff:      0.725D-02 0.236D-01 0.375D+00-0.667D-01 0.661D+00
 Gap=     0.122 Goal=   None    Shift=    0.000
 RMSDP=5.00D-04 MaxDP=2.53D-02 DE=-5.34D-01 OVMax= 8.92D-02

 Cycle   6  Pass 1  IDiag  1:
 RMSU=  5.49D-05    CP:  9.83D-01  5.86D-01  5.81D-01  3.42D-01  7.96D-01
 E= -1146.50245199881     Delta-E=       -0.053861844628 Rises=F Damp=F
 DIIS: error= 5.16D-04 at cycle   6 NSaved=   6.
 NSaved= 6 IEnMin= 6 EnMin= -1146.50245199881     IErMin= 6 ErrMin= 5.16D-04
 ErrMax= 5.16D-04  0.00D+00 EMaxC= 1.00D-01 BMatC= 4.53D-04 BMatP= 4.93D-02
 IDIUse=3 WtCom= 9.95D-01 WtEn= 5.16D-03
 Coeff-Com:  0.858D-03 0.737D-02 0.173D+00-0.664D-01 0.417D+00 0.468D+00
 Coeff-En:   0.000D+00 0.000D+00 0.000D+00 0.000D+00 0.000D+00 0.100D+01
 Coeff:      0.854D-03 0.733D-02 0.172D+00-0.661D-01 0.415D+00 0.471D+00
 Gap=     0.120 Goal=   None    Shift=    0.000
 RMSDP=3.07D-05 MaxDP=2.47D-03 DE=-5.39D-02 OVMax= 4.99D-03

 Cycle   7  Pass 1  IDiag  1:
 RMSU=  2.24D-05    CP:  9.83D-01  5.88D-01  5.80D-01  3.38D-01  8.40D-01
                    CP:  7.14D-01
 E= -1146.50283135802     Delta-E=       -0.000379359205 Rises=F Damp=F
 DIIS: error= 1.48D-04 at cycle   7 NSaved=   7.
 NSaved= 7 IEnMin= 7 EnMin= -1146.50283135802     IErMin= 7 ErrMin= 1.48D-04
 ErrMax= 1.48D-04  0.00D+00 EMaxC= 1.00D-01 BMatC= 1.91D-05 BMatP= 4.53D-04
 IDIUse=3 WtCom= 9.99D-01 WtEn= 1.48D-03
 Coeff-Com:  0.205D-03 0.244D-02 0.674D-01-0.285D-01 0.167D+00 0.246D+00
 Coeff-Com:  0.545D+00
 Coeff-En:   0.000D+00 0.000D+00 0.000D+00 0.000D+00 0.000D+00 0.000D+00
 Coeff-En:   0.100D+01
 Coeff:      0.205D-03 0.244D-02 0.673D-01-0.284D-01 0.167D+00 0.246D+00
 Coeff:      0.546D+00
 Gap=     0.120 Goal=   None    Shift=    0.000
 RMSDP=1.27D-05 MaxDP=9.02D-04 DE=-3.79D-04 OVMax= 1.78D-03

 Cycle   8  Pass 1  IDiag  1:
 RMSU=  8.46D-06    CP:  9.82D-01  5.88D-01  5.76D-01  3.41D-01  8.48D-01
                    CP:  7.28D-01  7.02D-01
 E= -1146.50284383507     Delta-E=       -0.000012477053 Rises=F Damp=F
 DIIS: error= 5.10D-05 at cycle   8 NSaved=   8.
 NSaved= 8 IEnMin= 8 EnMin= -1146.50284383507     IErMin= 8 ErrMin= 5.10D-05
 ErrMax= 5.10D-05  0.00D+00 EMaxC= 1.00D-01 BMatC= 4.07D-06 BMatP= 1.91D-05
 IDIUse=1 WtCom= 1.00D+00 WtEn= 0.00D+00
 Coeff-Com:  0.178D-03-0.680D-04 0.138D-01-0.527D-02 0.302D-01 0.730D-01
 Coeff-Com:  0.348D+00 0.540D+00
 Coeff:      0.178D-03-0.680D-04 0.138D-01-0.527D-02 0.302D-01 0.730D-01
 Coeff:      0.348D+00 0.540D+00
 Gap=     0.120 Goal=   None    Shift=    0.000
 RMSDP=5.50D-06 MaxDP=2.68D-04 DE=-1.25D-05 OVMax= 8.86D-04

 Cycle   9  Pass 1  IDiag  1:
 RMSU=  2.18D-06    CP:  9.82D-01  5.88D-01  5.79D-01  3.40D-01  8.44D-01
                    CP:  7.38D-01  7.91D-01  7.13D-01
 E= -1146.50284787328     Delta-E=       -0.000004038214 Rises=F Damp=F
 DIIS: error= 2.92D-05 at cycle   9 NSaved=   9.
 NSaved= 9 IEnMin= 9 EnMin= -1146.50284787328     IErMin= 9 ErrMin= 2.92D-05
 ErrMax= 2.92D-05  0.00D+00 EMaxC= 1.00D-01 BMatC= 5.06D-07 BMatP= 4.07D-06
 IDIUse=1 WtCom= 1.00D+00 WtEn= 0.00D+00
 Coeff-Com:  0.110D-03-0.314D-03 0.249D-02-0.586D-03 0.291D-02 0.230D-01
 Coeff-Com:  0.166D+00 0.345D+00 0.461D+00
 Coeff:      0.110D-03-0.314D-03 0.249D-02-0.586D-03 0.291D-02 0.230D-01
 Coeff:      0.166D+00 0.345D+00 0.461D+00
 Gap=     0.120 Goal=   None    Shift=    0.000
 RMSDP=1.82D-06 MaxDP=9.64D-05 DE=-4.04D-06 OVMax= 2.06D-04

 Cycle  10  Pass 1  IDiag  1:
 RMSU=  8.93D-07    CP:  9.83D-01  5.88D-01  5.79D-01  3.40D-01  8.42D-01
                    CP:  7.42D-01  8.05D-01  7.27D-01  7.89D-01
 E= -1146.50284835444     Delta-E=       -0.000000481154 Rises=F Damp=F
 DIIS: error= 6.11D-06 at cycle  10 NSaved=  10.
 NSaved=10 IEnMin=10 EnMin= -1146.50284835444     IErMin=10 ErrMin= 6.11D-06
 ErrMax= 6.11D-06  0.00D+00 EMaxC= 1.00D-01 BMatC= 3.32D-08 BMatP= 5.06D-07
 IDIUse=1 WtCom= 1.00D+00 WtEn= 0.00D+00
 Coeff-Com:  0.505D-04-0.127D-03 0.579D-03-0.585D-04-0.193D-03 0.875D-02
 Coeff-Com:  0.735D-01 0.171D+00 0.281D+00 0.466D+00
 Coeff:      0.505D-04-0.127D-03 0.579D-03-0.585D-04-0.193D-03 0.875D-02
 Coeff:      0.735D-01 0.171D+00 0.281D+00 0.466D+00
 Gap=     0.120 Goal=   None    Shift=    0.000
 RMSDP=3.35D-07 MaxDP=1.25D-05 DE=-4.81D-07 OVMax= 6.75D-05

 Cycle  11  Pass 1  IDiag  1:
 RMSU=  2.53D-07    CP:  9.83D-01  5.88D-01  5.80D-01  3.40D-01  8.42D-01
                    CP:  7.43D-01  8.08D-01  7.23D-01  8.15D-01  8.38D-01
 E= -1146.50284838685     Delta-E=       -0.000000032411 Rises=F Damp=F
 DIIS: error= 2.27D-06 at cycle  11 NSaved=  11.
 NSaved=11 IEnMin=11 EnMin= -1146.50284838685     IErMin=11 ErrMin= 2.27D-06
 ErrMax= 2.27D-06  0.00D+00 EMaxC= 1.00D-01 BMatC= 3.94D-09 BMatP= 3.32D-08
 IDIUse=1 WtCom= 1.00D+00 WtEn= 0.00D+00
 Coeff-Com:  0.130D-04-0.123D-04-0.189D-04 0.386D-04-0.573D-03 0.203D-02
 Coeff-Com:  0.207D-01 0.569D-01 0.109D+00 0.297D+00 0.515D+00
 Coeff:      0.130D-04-0.123D-04-0.189D-04 0.386D-04-0.573D-03 0.203D-02
 Coeff:      0.207D-01 0.569D-01 0.109D+00 0.297D+00 0.515D+00
 Gap=     0.120 Goal=   None    Shift=    0.000
 RMSDP=1.65D-07 MaxDP=1.07D-05 DE=-3.24D-08 OVMax= 2.14D-05

 Cycle  12  Pass 1  IDiag  1:
 RMSU=  7.42D-08    CP:  9.83D-01  5.88D-01  5.79D-01  3.40D-01  8.42D-01
                    CP:  7.42D-01  8.06D-01  7.33D-01  8.12D-01  8.48D-01
                    CP:  7.72D-01
 E= -1146.50284839128     Delta-E=       -0.000000004426 Rises=F Damp=F
 DIIS: error= 4.29D-07 at cycle  12 NSaved=  12.
 NSaved=12 IEnMin=12 EnMin= -1146.50284839128     IErMin=12 ErrMin= 4.29D-07
 ErrMax= 4.29D-07  0.00D+00 EMaxC= 1.00D-01 BMatC= 1.62D-10 BMatP= 3.94D-09
 IDIUse=1 WtCom= 1.00D+00 WtEn= 0.00D+00
 Coeff-Com:  0.239D-05-0.154D-05-0.362D-04 0.255D-04-0.243D-03 0.412D-03
 Coeff-Com:  0.488D-02 0.151D-01 0.320D-01 0.106D+00 0.244D+00 0.598D+00
 Coeff:      0.239D-05-0.154D-05-0.362D-04 0.255D-04-0.243D-03 0.412D-03
 Coeff:      0.488D-02 0.151D-01 0.320D-01 0.106D+00 0.244D+00 0.598D+00
 Gap=     0.120 Goal=   None    Shift=    0.000
 RMSDP=3.69D-08 MaxDP=2.16D-06 DE=-4.43D-09 OVMax= 4.63D-06

 Cycle  13  Pass 1  IDiag  1:
 RMSU=  2.28D-08    CP:  9.83D-01  5.88D-01  5.79D-01  3.40D-01  8.42D-01
                    CP:  7.43D-01  8.06D-01  7.33D-01  8.16D-01  8.56D-01
                    CP:  7.84D-01  8.57D-01
 E= -1146.50284839141     Delta-E=       -0.000000000137 Rises=F Damp=F
 DIIS: error= 1.81D-07 at cycle  13 NSaved=  13.
 NSaved=13 IEnMin=13 EnMin= -1146.50284839141     IErMin=13 ErrMin= 1.81D-07
 ErrMax= 1.81D-07  0.00D+00 EMaxC= 1.00D-01 BMatC= 3.37D-11 BMatP= 1.62D-10
 IDIUse=1 WtCom= 1.00D+00 WtEn= 0.00D+00
 Coeff-Com: -0.383D-06-0.533D-07-0.119D-04 0.786D-05-0.483D-04-0.641D-06
 Coeff-Com:  0.144D-03 0.113D-02 0.398D-02 0.213D-01 0.732D-01 0.353D+00
 Coeff-Com:  0.547D+00
 Coeff:     -0.383D-06-0.533D-07-0.119D-04 0.786D-05-0.483D-04-0.641D-06
 Coeff:      0.144D-03 0.113D-02 0.398D-02 0.213D-01 0.732D-01 0.353D+00
 Coeff:      0.547D+00
 Gap=     0.120 Goal=   None    Shift=    0.000
 RMSDP=1.69D-08 MaxDP=1.01D-06 DE=-1.37D-10 OVMax= 1.61D-06

 Cycle  14  Pass 1  IDiag  1:
 RMSU=  6.44D-09    CP:  9.83D-01  5.88D-01  5.79D-01  3.40D-01  8.42D-01
                    CP:  7.43D-01  8.06D-01  7.32D-01  8.18D-01  8.60D-01
                    CP:  7.98D-01  8.98D-01  7.26D-01
 E= -1146.50284839144     Delta-E=       -0.000000000031 Rises=F Damp=F
 DIIS: error= 5.69D-08 at cycle  14 NSaved=  14.
 NSaved=14 IEnMin=14 EnMin= -1146.50284839144     IErMin=14 ErrMin= 5.69D-08
 ErrMax= 5.69D-08  0.00D+00 EMaxC= 1.00D-01 BMatC= 1.50D-12 BMatP= 3.37D-11
 IDIUse=1 WtCom= 1.00D+00 WtEn= 0.00D+00
 Coeff-Com: -0.336D-06 0.293D-06-0.448D-05 0.178D-05-0.742D-05-0.258D-04
 Coeff-Com: -0.233D-03-0.431D-03-0.904D-04 0.360D-02 0.196D-01 0.126D+00
 Coeff-Com:  0.257D+00 0.595D+00
 Coeff:     -0.336D-06 0.293D-06-0.448D-05 0.178D-05-0.742D-05-0.258D-04
 Coeff:     -0.233D-03-0.431D-03-0.904D-04 0.360D-02 0.196D-01 0.126D+00
 Coeff:      0.257D+00 0.595D+00
 Gap=     0.120 Goal=   None    Shift=    0.000
 RMSDP=2.81D-09 MaxDP=1.22D-07 DE=-3.14D-11 OVMax= 6.82D-07

 Error on total polarization charges =  0.05648
 SCF Done:  E(RB97D3) =  -1146.50284839     A.U. after   14 cycles
            NFock= 14  Conv=0.28D-08     -V/T= 2.0035
 KE= 1.142552861837D+03 PE=-5.808879888053D+03 EE= 1.958389038557D+03
 SMD-CDS (non-electrostatic) energy       (kcal/mol) =      -3.20
 (included in total energy above)
 Leave Link  502 at Tue Mar 30 04:53:01 2021, MaxMem=  5242880000 cpu:      3946.8
 (Enter /opt/nce/packages/global/g09/l601.exe)
 Copying SCF densities to generalized density rwf, IOpCl= 0 IROHF=0.

 **********************************************************************

            Population analysis using the SCF density.

 **********************************************************************

 Alpha  occ. eigenvalues --  -88.02733 -14.03229  -9.95065  -9.95064  -9.95028
 Alpha  occ. eigenvalues --   -9.94300  -9.94299  -9.91278  -9.91277  -9.91029
 Alpha  occ. eigenvalues --   -9.91029  -9.90827  -9.90826  -9.90759  -9.90758
 Alpha  occ. eigenvalues --   -9.90097  -9.90097  -9.89707  -9.89706  -9.89247
 Alpha  occ. eigenvalues --   -7.72904  -5.76085  -5.75682  -5.75036  -0.89787
 Alpha  occ. eigenvalues --   -0.79365  -0.79113  -0.76725  -0.73509  -0.69609
 Alpha  occ. eigenvalues --   -0.68722  -0.68563  -0.67183  -0.65706  -0.62284
 Alpha  occ. eigenvalues --   -0.57373  -0.57240  -0.54642  -0.53851  -0.53839
 Alpha  occ. eigenvalues --   -0.50799  -0.48573  -0.48298  -0.44373  -0.43237
 Alpha  occ. eigenvalues --   -0.42931  -0.41874  -0.41249  -0.39756  -0.39195
 Alpha  occ. eigenvalues --   -0.39049  -0.38009  -0.37880  -0.36860  -0.36204
 Alpha  occ. eigenvalues --   -0.34861  -0.33373  -0.33295  -0.33066  -0.31782
 Alpha  occ. eigenvalues --   -0.31208  -0.30858  -0.30166  -0.29356  -0.27801
 Alpha  occ. eigenvalues --   -0.26812  -0.23632  -0.23547  -0.22864  -0.22507
 Alpha  occ. eigenvalues --   -0.19742  -0.17287
 Alpha virt. eigenvalues --   -0.05328  -0.04941  -0.04735  -0.04639  -0.03032
 Alpha virt. eigenvalues --   -0.02051  -0.00803   0.02718   0.04515   0.05672
 Alpha virt. eigenvalues --    0.05798   0.06671   0.07193   0.07545   0.08340
 Alpha virt. eigenvalues --    0.08362   0.08679   0.09535   0.09864   0.10334
 Alpha virt. eigenvalues --    0.10565   0.10994   0.11098   0.11889   0.12159
 Alpha virt. eigenvalues --    0.13162   0.14582   0.15210   0.15523   0.16263
 Alpha virt. eigenvalues --    0.16880   0.17724   0.17822   0.18771   0.19352
 Alpha virt. eigenvalues --    0.19495   0.19821   0.20342   0.20587   0.21526
 Alpha virt. eigenvalues --    0.21787   0.21826   0.21954   0.22215   0.23043
 Alpha virt. eigenvalues --    0.23584   0.23974   0.23988   0.24735   0.24767
 Alpha virt. eigenvalues --    0.25615   0.26074   0.26461   0.26672   0.27034
 Alpha virt. eigenvalues --    0.28085   0.28520   0.28849   0.29022   0.29558
 Alpha virt. eigenvalues --    0.29852   0.30084   0.30567   0.30868   0.31852
 Alpha virt. eigenvalues --    0.32431   0.32754   0.33054   0.34336   0.34702
 Alpha virt. eigenvalues --    0.34977   0.35242   0.35867   0.35915   0.36595
 Alpha virt. eigenvalues --    0.37082   0.37549   0.38319   0.38464   0.39458
 Alpha virt. eigenvalues --    0.39600   0.40170   0.40492   0.40514   0.40954
 Alpha virt. eigenvalues --    0.41751   0.41963   0.42066   0.42948   0.43488
 Alpha virt. eigenvalues --    0.44179   0.44591   0.44634   0.45351   0.45592
 Alpha virt. eigenvalues --    0.45984   0.46434   0.46506   0.46658   0.47972
 Alpha virt. eigenvalues --    0.48139   0.48567   0.49234   0.49606   0.50439
 Alpha virt. eigenvalues --    0.51184   0.51932   0.51975   0.53929   0.54021
 Alpha virt. eigenvalues --    0.54406   0.56744   0.56834   0.57761   0.58824
 Alpha virt. eigenvalues --    0.59063   0.60818   0.60858   0.61682   0.61981
 Alpha virt. eigenvalues --    0.62584   0.63112   0.63246   0.64159   0.65031
 Alpha virt. eigenvalues --    0.65501   0.65675   0.65849   0.66292   0.66969
 Alpha virt. eigenvalues --    0.67850   0.68002   0.68504   0.69717   0.70798
 Alpha virt. eigenvalues --    0.70873   0.71722   0.71801   0.72826   0.72859
 Alpha virt. eigenvalues --    0.74354   0.74816   0.75244   0.76521   0.77750
 Alpha virt. eigenvalues --    0.78440   0.78760   0.79060   0.80420   0.80821
 Alpha virt. eigenvalues --    0.81342   0.82289   0.83455   0.83811   0.83813
 Alpha virt. eigenvalues --    0.84479   0.84920   0.85314   0.86069   0.87251
 Alpha virt. eigenvalues --    0.87624   0.88414   0.88663   0.90583   0.91043
 Alpha virt. eigenvalues --    0.91482   0.92946   0.93966   0.94892   0.96367
 Alpha virt. eigenvalues --    0.97217   0.98510   0.98837   0.99503   1.00681
 Alpha virt. eigenvalues --    1.01889   1.02052   1.02763   1.03514   1.04081
 Alpha virt. eigenvalues --    1.06033   1.06138   1.06858   1.07821   1.08572
 Alpha virt. eigenvalues --    1.09312   1.09394   1.11552   1.12777   1.13388
 Alpha virt. eigenvalues --    1.13518   1.14074   1.15913   1.16495   1.17415
 Alpha virt. eigenvalues --    1.17487   1.18770   1.19642   1.19792   1.20479
 Alpha virt. eigenvalues --    1.21237   1.21303   1.22851   1.23298   1.23616
 Alpha virt. eigenvalues --    1.24177   1.24419   1.24868   1.27239   1.27347
 Alpha virt. eigenvalues --    1.27655   1.28453   1.30207   1.31256   1.32932
 Alpha virt. eigenvalues --    1.33737   1.33798   1.35659   1.36155   1.37675
 Alpha virt. eigenvalues --    1.37707   1.38192   1.40071   1.40204   1.40257
 Alpha virt. eigenvalues --    1.41187   1.42588   1.43461   1.43946   1.44466
 Alpha virt. eigenvalues --    1.44594   1.44946   1.46768   1.46827   1.47447
 Alpha virt. eigenvalues --    1.49696   1.49880   1.50994   1.51155   1.52527
 Alpha virt. eigenvalues --    1.53085   1.53226   1.54552   1.55427   1.55472
 Alpha virt. eigenvalues --    1.56277   1.56419   1.57236   1.57292   1.58864
 Alpha virt. eigenvalues --    1.58874   1.59812   1.60393   1.61421   1.61607
 Alpha virt. eigenvalues --    1.62821   1.62949   1.63230   1.64609   1.64637
 Alpha virt. eigenvalues --    1.65722   1.66027   1.66348   1.67085   1.67344
 Alpha virt. eigenvalues --    1.69406   1.70307   1.70736   1.71520   1.72622
 Alpha virt. eigenvalues --    1.73090   1.75136   1.75799   1.76923   1.77921
 Alpha virt. eigenvalues --    1.79943   1.79959   1.81233   1.82154   1.82592
 Alpha virt. eigenvalues --    1.83282   1.84241   1.86067   1.86180   1.88065
 Alpha virt. eigenvalues --    1.88372   1.89352   1.89490   1.91894   1.93446
 Alpha virt. eigenvalues --    1.94539   1.94957   1.96156   1.97470   1.98338
 Alpha virt. eigenvalues --    1.98781   1.99575   2.00995   2.01067   2.03275
 Alpha virt. eigenvalues --    2.03322   2.04288   2.04621   2.04986   2.06240
 Alpha virt. eigenvalues --    2.07047   2.08637   2.09208   2.09881   2.10704
 Alpha virt. eigenvalues --    2.11283   2.12868   2.14169   2.14912   2.15151
 Alpha virt. eigenvalues --    2.16150   2.17848   2.17874   2.18700   2.19148
 Alpha virt. eigenvalues --    2.19455   2.21201   2.22762   2.27194   2.28695
 Alpha virt. eigenvalues --    2.31723   2.32780   2.35061   2.36119   2.36448
 Alpha virt. eigenvalues --    2.37146   2.38070   2.42287   2.42706   2.43312
 Alpha virt. eigenvalues --    2.43875   2.44911   2.45389   2.46472   2.46824
 Alpha virt. eigenvalues --    2.49560   2.50575   2.50899   2.51728   2.51938
 Alpha virt. eigenvalues --    2.52588   2.53224   2.53390   2.54892   2.55150
 Alpha virt. eigenvalues --    2.55418   2.56245   2.56708   2.57060   2.59020
 Alpha virt. eigenvalues --    2.59244   2.60091   2.60157   2.60589   2.61058
 Alpha virt. eigenvalues --    2.61947   2.62140   2.62371   2.64251   2.64541
 Alpha virt. eigenvalues --    2.64580   2.65519   2.66373   2.66568   2.67812
 Alpha virt. eigenvalues --    2.67969   2.68320   2.68966   2.69618   2.69994
 Alpha virt. eigenvalues --    2.71359   2.72062   2.72590   2.72939   2.73961
 Alpha virt. eigenvalues --    2.74896   2.75760   2.76617   2.76728   2.77140
 Alpha virt. eigenvalues --    2.77737   2.78725   2.78979   2.79012   2.80032
 Alpha virt. eigenvalues --    2.81339   2.82285   2.82342   2.83362   2.84126
 Alpha virt. eigenvalues --    2.84182   2.85389   2.85642   2.86066   2.86659
 Alpha virt. eigenvalues --    2.88049   2.88674   2.89267   2.90230   2.90691
 Alpha virt. eigenvalues --    2.93693   2.95010   2.95760   2.97394   2.98439
 Alpha virt. eigenvalues --    2.99935   3.00897   3.02376   3.02583   3.04125
 Alpha virt. eigenvalues --    3.04200   3.05571   3.05669   3.06240   3.06303
 Alpha virt. eigenvalues --    3.06848   3.08247   3.08335   3.08803   3.09357
 Alpha virt. eigenvalues --    3.09978   3.10369   3.10529   3.11581   3.11869
 Alpha virt. eigenvalues --    3.12784   3.12951   3.14250   3.14745   3.14775
 Alpha virt. eigenvalues --    3.17437   3.18232   3.18741   3.19101   3.20586
 Alpha virt. eigenvalues --    3.21547   3.21808   3.22887   3.23456   3.24578
 Alpha virt. eigenvalues --    3.24839   3.24982   3.25392   3.26103   3.26474
 Alpha virt. eigenvalues --    3.26638   3.26968   3.27994   3.28911   3.29853
 Alpha virt. eigenvalues --    3.29963   3.30695   3.30704   3.31797   3.32485
 Alpha virt. eigenvalues --    3.32543   3.33517   3.34194   3.34643   3.37113
 Alpha virt. eigenvalues --    3.37760   3.37831   3.39096   3.39553   3.39599
 Alpha virt. eigenvalues --    3.40882   3.41906   3.42272   3.43165   3.44177
 Alpha virt. eigenvalues --    3.44369   3.44655   3.46015   3.46700   3.47598
 Alpha virt. eigenvalues --    3.48166   3.48169   3.48523   3.49597   3.50884
 Alpha virt. eigenvalues --    3.52831   3.53530   3.53592   3.54407   3.58641
 Alpha virt. eigenvalues --    3.58926   3.60978   3.62392   3.62709   3.63061
 Alpha virt. eigenvalues --    3.64502   3.65246   3.66563   3.67227   3.69180
 Alpha virt. eigenvalues --    3.70297   3.71113   3.72338   3.74352   3.78875
 Alpha virt. eigenvalues --    3.82306   3.82381   3.83272   3.83901   3.85354
 Alpha virt. eigenvalues --    3.85651   3.87627   3.88472   3.91594   3.93100
 Alpha virt. eigenvalues --    3.94548   3.95058   3.96083   3.98110   3.98194
 Alpha virt. eigenvalues --    3.98587   3.99747   4.01151   4.02268   4.02776
 Alpha virt. eigenvalues --    4.03885   4.05337   4.05466   4.08750   4.09501
 Alpha virt. eigenvalues --    4.09932   4.10522   4.11002   4.11304   4.11875
 Alpha virt. eigenvalues --    4.12395   4.13883   4.14099   4.14725   4.15274
 Alpha virt. eigenvalues --    4.16459   4.17354   4.18156   4.19966   4.19981
 Alpha virt. eigenvalues --    4.20851   4.21169   4.23780   4.25288   4.26263
 Alpha virt. eigenvalues --    4.29122   4.30442   4.31527   4.32576   4.35359
 Alpha virt. eigenvalues --    4.39372   4.41264   4.48757   4.50456   4.50800
 Alpha virt. eigenvalues --    4.53270   4.53772   4.56969   4.59834   4.62774
 Alpha virt. eigenvalues --    4.64174   4.65247   4.65463   4.65633   4.67524
 Alpha virt. eigenvalues --    4.70802   4.72673   4.75602   4.76702   4.80330
 Alpha virt. eigenvalues --    4.81943   4.82932   4.84190   4.85397   4.89267
 Alpha virt. eigenvalues --    4.89278   4.98995   4.99688   5.01482   5.02172
 Alpha virt. eigenvalues --    5.06154   5.09333   5.11204   5.13141   5.13703
 Alpha virt. eigenvalues --    5.17199   5.19977   5.21350   5.22746   5.29940
 Alpha virt. eigenvalues --    5.31943   5.36159   5.37844   5.43539   5.45867
 Alpha virt. eigenvalues --    5.48149   5.53598   5.61978   5.69677   5.72667
 Alpha virt. eigenvalues --    5.75235   5.92815   5.95585   5.99206   8.79495
 Alpha virt. eigenvalues --    9.22934   9.39004  20.05686  21.91202  21.98299
 Alpha virt. eigenvalues --   22.08272  22.40182  22.41249  22.41392  22.42346
 Alpha virt. eigenvalues --   22.45972  22.46895  22.53375  22.59533  22.65175
 Alpha virt. eigenvalues --   22.65478  22.66851  22.69765  23.00474  23.06631
 Alpha virt. eigenvalues --   23.11200  32.98771
          Condensed to atoms (all electrons):
               1          2          3          4          5          6
     1  C    5.148565   0.245050   0.196130  -0.218846   0.159315   0.291116
     2  C    0.245050   5.400224   0.097660   0.142380  -0.221554   0.125974
     3  C    0.196130   0.097660   5.330519   0.230304   0.156995  -0.171575
     4  C   -0.218846   0.142380   0.230304   5.427336   0.143430   0.111052
     5  C    0.159315  -0.221554   0.156995   0.143430   5.425256   0.254990
     6  C    0.291116   0.125974  -0.171575   0.111052   0.254990   5.118849
     7  C    0.000176  -0.000909  -0.009423  -0.089161   0.012408  -0.001146
     8  C   -0.001184   0.003901  -0.036152  -0.009448  -0.004324   0.000458
     9  C   -0.000429   0.005403   0.003898  -0.000902  -0.002722   0.000222
    10  H   -0.000013   0.000183   0.000204  -0.000010  -0.000038   0.000008
    11  C    0.000035  -0.000429  -0.001182   0.000171   0.000408  -0.000019
    12  C   -0.000019   0.000222   0.000456  -0.001142  -0.000480   0.000028
    13  C    0.000408  -0.002722  -0.004317   0.012382   0.009713  -0.000480
    14  H   -0.074165   0.467758  -0.101916   0.025204  -0.008633   0.019062
    15  H    0.015396  -0.004538   0.015861  -0.081197   0.457865  -0.058733
    16  H   -0.071247   0.017241  -0.005786   0.020823  -0.070487   0.450132
    17  H    0.000000  -0.000002   0.000005   0.000003   0.000001  -0.000000
    18  H   -0.000000   0.000001  -0.000003  -0.000020  -0.000006   0.000000
    19  C   -0.001610   0.003344  -0.018320  -0.074827  -0.006047   0.002180
    20  C    0.000066  -0.000385  -0.000928   0.016206  -0.000033  -0.000133
    21  C    0.000000   0.000012   0.000037   0.000949  -0.000262  -0.000015
    22  C    0.000058   0.000024  -0.000272  -0.002066   0.004021  -0.000099
    23  C   -0.000000  -0.000003  -0.000124  -0.000627  -0.000079   0.000018
    24  H   -0.000000   0.000000   0.000004   0.000020  -0.000002   0.000000
    25  H   -0.000001  -0.000001   0.000008   0.000114   0.000024   0.000002
    26  H    0.000001  -0.000015  -0.000151  -0.000621   0.000070   0.000002
    27  H   -0.000000  -0.000000  -0.000000  -0.000008   0.000004   0.000000
    28  H    0.452862  -0.073107   0.019000  -0.006128   0.018026  -0.070014
    29  N   -0.001557   0.019446  -0.083315   0.273555  -0.050160   0.006898
    30  H    0.000002  -0.000004   0.000133   0.001510   0.000133   0.000027
    31  S    0.012763  -0.067599   0.394899  -0.097313   0.024910  -0.003940
    32  C    0.000225   0.000031   0.006285  -0.030684   0.002663  -0.001345
    33  H   -0.000469   0.000481   0.001895   0.004734  -0.009675   0.003110
               7          8          9         10         11         12
     1  C    0.000176  -0.001184  -0.000429  -0.000013   0.000035  -0.000019
     2  C   -0.000909   0.003901   0.005403   0.000183  -0.000429   0.000222
     3  C   -0.009423  -0.036152   0.003898   0.000204  -0.001182   0.000456
     4  C   -0.089161  -0.009448  -0.000902  -0.000010   0.000171  -0.001142
     5  C    0.012408  -0.004324  -0.002722  -0.000038   0.000408  -0.000480
     6  C   -0.001146   0.000458   0.000222   0.000008  -0.000019   0.000028
     7  C    5.427168   0.230296   0.142402   0.025208  -0.218822   0.111056
     8  C    0.230296   5.330635   0.097558  -0.101922   0.196113  -0.171590
     9  C    0.142402   0.097558   5.400240   0.467730   0.245184   0.125950
    10  H    0.025208  -0.101922   0.467730   0.546838  -0.074128   0.019059
    11  C   -0.218822   0.196113   0.245184  -0.074128   5.148465   0.291124
    12  C    0.111056  -0.171590   0.125950   0.019059   0.291124   5.118911
    13  C    0.143467   0.157005  -0.221563  -0.008631   0.159291   0.254967
    14  H   -0.000010   0.000204   0.000183   0.000048  -0.000013   0.000008
    15  H    0.001512   0.000132  -0.000004   0.000001   0.000002   0.000027
    16  H   -0.000020  -0.000003   0.000001   0.000000  -0.000000   0.000000
    17  H   -0.006130   0.018999  -0.073082  -0.010476   0.452844  -0.070014
    18  H    0.020821  -0.005784   0.017240  -0.000213  -0.071241   0.450145
    19  C   -0.074794  -0.018282   0.003346   0.000061  -0.001609   0.002180
    20  C   -0.030678   0.006273   0.000033   0.000004   0.000223  -0.001341
    21  C   -0.002059  -0.000273   0.000024  -0.000000   0.000058  -0.000099
    22  C    0.000949   0.000037   0.000012  -0.000000   0.000000  -0.000015
    23  C   -0.000628  -0.000124  -0.000003  -0.000000  -0.000000   0.000018
    24  H    0.000114   0.000008  -0.000001   0.000000  -0.000001   0.000002
    25  H    0.000020   0.000004   0.000000  -0.000000  -0.000000   0.000000
    26  H    0.004741   0.001892   0.000481   0.000004  -0.000470   0.003114
    27  H   -0.000008  -0.000000  -0.000000   0.000000  -0.000000   0.000000
    28  H    0.000003   0.000005  -0.000002  -0.000000   0.000000  -0.000000
    29  N    0.273635  -0.083272   0.019459  -0.000237  -0.001558   0.006897
    30  H   -0.081180   0.015853  -0.004538   0.000060   0.015394  -0.058724
    31  S   -0.097321   0.395010  -0.067615   0.002343   0.012761  -0.003940
    32  C    0.016208  -0.000924  -0.000386  -0.000005   0.000067  -0.000133
    33  H   -0.000619  -0.000151  -0.000015   0.000000   0.000001   0.000002
              13         14         15         16         17         18
     1  C    0.000408  -0.074165   0.015396  -0.071247   0.000000  -0.000000
     2  C   -0.002722   0.467758  -0.004538   0.017241  -0.000002   0.000001
     3  C   -0.004317  -0.101916   0.015861  -0.005786   0.000005  -0.000003
     4  C    0.012382   0.025204  -0.081197   0.020823   0.000003  -0.000020
     5  C    0.009713  -0.008633   0.457865  -0.070487   0.000001  -0.000006
     6  C   -0.000480   0.019062  -0.058733   0.450132  -0.000000   0.000000
     7  C    0.143467  -0.000010   0.001512  -0.000020  -0.006130   0.020821
     8  C    0.157005   0.000204   0.000132  -0.000003   0.018999  -0.005784
     9  C   -0.221563   0.000183  -0.000004   0.000001  -0.073082   0.017240
    10  H   -0.008631   0.000048   0.000001   0.000000  -0.010476  -0.000213
    11  C    0.159291  -0.000013   0.000002  -0.000000   0.452844  -0.071241
    12  C    0.254967   0.000008   0.000027   0.000000  -0.070014   0.450145
    13  C    5.425186  -0.000038   0.000133  -0.000006   0.018028  -0.070496
    14  H   -0.000038   0.546869   0.000060  -0.000213  -0.000000   0.000000
    15  H    0.000133   0.000060   0.528910  -0.009930  -0.000000  -0.000001
    16  H   -0.000006  -0.000213  -0.009930   0.541873   0.000000   0.000000
    17  H    0.018028  -0.000000  -0.000000   0.000000   0.541712  -0.009207
    18  H   -0.070496   0.000000  -0.000001   0.000000  -0.009207   0.541866
    19  C   -0.006051   0.000061  -0.001818   0.000055   0.000009   0.000055
    20  C    0.002651  -0.000005  -0.000954   0.000002  -0.000004  -0.000043
    21  C    0.004013  -0.000000   0.000057   0.000000  -0.000001  -0.000003
    22  C   -0.000263  -0.000000   0.000814  -0.000003  -0.000000   0.000000
    23  C   -0.000077  -0.000000  -0.000080   0.000000   0.000000   0.000000
    24  H    0.000024  -0.000000  -0.000000  -0.000000  -0.000000   0.000000
    25  H   -0.000002   0.000000   0.000028   0.000000   0.000000  -0.000000
    26  H   -0.009678   0.000000  -0.000000  -0.000000  -0.000004   0.000067
    27  H    0.000004   0.000000  -0.000000   0.000000  -0.000000   0.000000
    28  H    0.000001  -0.010476  -0.000171  -0.009207   0.000000   0.000000
    29  N   -0.050179  -0.000237   0.003258  -0.000293   0.000021  -0.000293
    30  H    0.457868   0.000001   0.000257  -0.000001  -0.000171  -0.009928
    31  S    0.024905   0.002341  -0.000412   0.000035  -0.000411   0.000035
    32  C   -0.000031   0.000004  -0.000882  -0.000043   0.000001   0.000002
    33  H    0.000070   0.000004  -0.002200   0.000067   0.000000  -0.000000
              19         20         21         22         23         24
     1  C   -0.001610   0.000066   0.000000   0.000058  -0.000000  -0.000000
     2  C    0.003344  -0.000385   0.000012   0.000024  -0.000003   0.000000
     3  C   -0.018320  -0.000928   0.000037  -0.000272  -0.000124   0.000004
     4  C   -0.074827   0.016206   0.000949  -0.002066  -0.000627   0.000020
     5  C   -0.006047  -0.000033  -0.000262   0.004021  -0.000079  -0.000002
     6  C    0.002180  -0.000133  -0.000015  -0.000099   0.000018   0.000000
     7  C   -0.074794  -0.030678  -0.002059   0.000949  -0.000628   0.000114
     8  C   -0.018282   0.006273  -0.000273   0.000037  -0.000124   0.000008
     9  C    0.003346   0.000033   0.000024   0.000012  -0.000003  -0.000001
    10  H    0.000061   0.000004  -0.000000  -0.000000  -0.000000   0.000000
    11  C   -0.001609   0.000223   0.000058   0.000000  -0.000000  -0.000001
    12  C    0.002180  -0.001341  -0.000099  -0.000015   0.000018   0.000002
    13  C   -0.006051   0.002651   0.004013  -0.000263  -0.000077   0.000024
    14  H    0.000061  -0.000005  -0.000000  -0.000000  -0.000000  -0.000000
    15  H   -0.001818  -0.000954   0.000057   0.000814  -0.000080  -0.000000
    16  H    0.000055   0.000002   0.000000  -0.000003   0.000000  -0.000000
    17  H    0.000009  -0.000004  -0.000001  -0.000000   0.000000  -0.000000
    18  H    0.000055  -0.000043  -0.000003   0.000000   0.000000   0.000000
    19  C    4.933523   0.358748   0.028859   0.028878  -0.108338   0.014822
    20  C    0.358748   5.234624   0.385072  -0.106166   0.049016  -0.068906
    21  C    0.028859   0.385072   5.037608   0.038495   0.392110   0.445060
    22  C    0.028878  -0.106166   0.038495   5.037777   0.392118   0.014626
    23  C   -0.108338   0.049016   0.392110   0.392118   5.082675  -0.064475
    24  H    0.014822  -0.068906   0.445060   0.014626  -0.064475   0.549262
    25  H    0.014825  -0.003682   0.014623   0.445062  -0.064475  -0.000313
    26  H   -0.062655   0.443126  -0.047392  -0.002876   0.011669  -0.009072
    27  H   -0.004965   0.016686  -0.068384  -0.068392   0.448654  -0.009066
    28  H    0.000009   0.000001  -0.000000  -0.000001   0.000000   0.000000
    29  N    0.481968  -0.085958   0.003938   0.003937   0.000250  -0.000149
    30  H   -0.001820  -0.000882   0.000812   0.000057  -0.000080   0.000028
    31  S    0.005108   0.002596  -0.000519  -0.000520   0.000276  -0.000006
    32  C    0.358662   0.045508  -0.106200   0.384878   0.049069  -0.003683
    33  H   -0.062684   0.010378  -0.002876  -0.047406   0.011670   0.000059
              25         26         27         28         29         30
     1  C   -0.000001   0.000001  -0.000000   0.452862  -0.001557   0.000002
     2  C   -0.000001  -0.000015  -0.000000  -0.073107   0.019446  -0.000004
     3  C    0.000008  -0.000151  -0.000000   0.019000  -0.083315   0.000133
     4  C    0.000114  -0.000621  -0.000008  -0.006128   0.273555   0.001510
     5  C    0.000024   0.000070   0.000004   0.018026  -0.050160   0.000133
     6  C    0.000002   0.000002   0.000000  -0.070014   0.006898   0.000027
     7  C    0.000020   0.004741  -0.000008   0.000003   0.273635  -0.081180
     8  C    0.000004   0.001892  -0.000000   0.000005  -0.083272   0.015853
     9  C    0.000000   0.000481  -0.000000  -0.000002   0.019459  -0.004538
    10  H   -0.000000   0.000004   0.000000  -0.000000  -0.000237   0.000060
    11  C   -0.000000  -0.000470  -0.000000   0.000000  -0.001558   0.015394
    12  C    0.000000   0.003114   0.000000  -0.000000   0.006897  -0.058724
    13  C   -0.000002  -0.009678   0.000004   0.000001  -0.050179   0.457868
    14  H    0.000000   0.000000   0.000000  -0.010476  -0.000237   0.000001
    15  H    0.000028  -0.000000  -0.000000  -0.000171   0.003258   0.000257
    16  H    0.000000  -0.000000   0.000000  -0.009207  -0.000293  -0.000001
    17  H    0.000000  -0.000004  -0.000000   0.000000   0.000021  -0.000171
    18  H   -0.000000   0.000067   0.000000   0.000000  -0.000293  -0.009928
    19  C    0.014825  -0.062655  -0.004965   0.000009   0.481968  -0.001820
    20  C   -0.003682   0.443126   0.016686   0.000001  -0.085958  -0.000882
    21  C    0.014623  -0.047392  -0.068384  -0.000000   0.003938   0.000812
    22  C    0.445062  -0.002876  -0.068392  -0.000001   0.003937   0.000057
    23  C   -0.064475   0.011669   0.448654   0.000000   0.000250  -0.000080
    24  H   -0.000313  -0.009072  -0.009066   0.000000  -0.000149   0.000028
    25  H    0.549259   0.000059  -0.009066  -0.000000  -0.000149  -0.000000
[...]
 Alpha virt. eigenvalues --   22.66594  22.67990  22.71180  23.01838  23.07780
 Alpha virt. eigenvalues --   23.11863  32.98997
          Condensed to atoms (all electrons):
               1          2          3          4          5          6
     1  C    5.149379   0.242455   0.198595  -0.221561   0.161819   0.289660
     2  C    0.242455   5.403537   0.094470   0.144522  -0.224156   0.127802
     3  C    0.198595   0.094470   5.330615   0.228110   0.159343  -0.173189
     4  C   -0.221561   0.144522   0.228110   5.430611   0.137582   0.112862
     5  C    0.161819  -0.224156   0.159343   0.137582   5.431268   0.253240
     6  C    0.289660   0.127802  -0.173189   0.112862   0.253240   5.118344
     7  C    0.000226  -0.001172  -0.008794  -0.088552   0.012721  -0.001211
     8  C   -0.001209   0.004213  -0.037313  -0.008847  -0.004534   0.000461
     9  C   -0.000442   0.005480   0.004182  -0.001139  -0.002792   0.000229
    10  H   -0.000014   0.000184   0.000219  -0.000010  -0.000039   0.000008
    11  C    0.000036  -0.000442  -0.001202   0.000220   0.000422  -0.000019
    12  C   -0.000019   0.000228   0.000454  -0.001204  -0.000485   0.000028
    13  C    0.000423  -0.002796  -0.004504   0.012705   0.009980  -0.000487
    14  H   -0.074619   0.469513  -0.102429   0.025428  -0.008756   0.019231
    15  H    0.015664  -0.004678   0.016001  -0.081731   0.460151  -0.059275
    16  H   -0.071942   0.017496  -0.005933   0.021233  -0.071204   0.451764
    17  H    0.000000  -0.000003   0.000005   0.000004   0.000001  -0.000000
    18  H   -0.000000   0.000002  -0.000003  -0.000020  -0.000006   0.000000
    19  C   -0.001658   0.003430  -0.017888  -0.074622  -0.006701   0.002213
    20  C    0.000068  -0.000388  -0.000925   0.016586  -0.000062  -0.000140
    21  C    0.000000   0.000012   0.000033   0.000917  -0.000268  -0.000014
    22  C    0.000061   0.000020  -0.000264  -0.002079   0.004083  -0.000103
    23  C   -0.000000  -0.000003  -0.000123  -0.000629  -0.000077   0.000018
    24  H   -0.000000   0.000000   0.000004   0.000020  -0.000002   0.000000
    25  H   -0.000001  -0.000001   0.000009   0.000113   0.000024   0.000001
    26  H    0.000001  -0.000015  -0.000150  -0.000615   0.000073   0.000002
    27  H   -0.000000  -0.000000  -0.000000  -0.000008   0.000004   0.000000
    28  H    0.454347  -0.073715   0.019321  -0.006275   0.018229  -0.070522
    29  N   -0.001623   0.019703  -0.081682   0.272498  -0.050161   0.006883
    30  H    0.000002  -0.000004   0.000115   0.001479   0.000146   0.000027
    31  S    0.012836  -0.067705   0.397783  -0.099525   0.025386  -0.003986
    32  C    0.000193   0.000042   0.006305  -0.030838   0.002476  -0.001280
    33  H   -0.000480   0.000497   0.001847   0.004701  -0.009763   0.003165
               7          8          9         10         11         12
     1  C    0.000226  -0.001209  -0.000442  -0.000014   0.000036  -0.000019
     2  C   -0.001172   0.004213   0.005480   0.000184  -0.000442   0.000228
     3  C   -0.008794  -0.037313   0.004182   0.000219  -0.001202   0.000454
     4  C   -0.088552  -0.008847  -0.001139  -0.000010   0.000220  -0.001204
     5  C    0.012721  -0.004534  -0.002792  -0.000039   0.000422  -0.000485
     6  C   -0.001211   0.000461   0.000229   0.000008  -0.000019   0.000028
     7  C    5.430673   0.228509   0.144296   0.025418  -0.221463   0.112765
     8  C    0.228509   5.330116   0.094709  -0.102412   0.198467  -0.173100
     9  C    0.144296   0.094709   5.403356   0.469480   0.242672   0.127685
    10  H    0.025418  -0.102412   0.469480   0.545880  -0.074583   0.019225
    11  C   -0.221463   0.198467   0.242672  -0.074583   5.149225   0.289713
    12  C    0.112765  -0.173100   0.127685   0.019225   0.289713   5.118400
    13  C    0.137599   0.159126  -0.224051  -0.008750   0.161757   0.253280
    14  H   -0.000010   0.000219   0.000184   0.000047  -0.000014   0.000008
    15  H    0.001482   0.000114  -0.000004   0.000001   0.000002   0.000027
    16  H   -0.000020  -0.000003   0.000002   0.000000  -0.000000   0.000000
    17  H   -0.006276   0.019318  -0.073694  -0.010587   0.454331  -0.070518
    18  H    0.021235  -0.005933   0.017494  -0.000210  -0.071938   0.451779
    19  C   -0.074669  -0.017893   0.003432   0.000061  -0.001660   0.002216
    20  C   -0.030891   0.006309   0.000046   0.000004   0.000193  -0.001274
    21  C   -0.002073  -0.000262   0.000020  -0.000000   0.000061  -0.000103
    22  C    0.000917   0.000032   0.000012   0.000000   0.000000  -0.000014
    23  C   -0.000630  -0.000123  -0.000003  -0.000000  -0.000000   0.000018
    24  H    0.000113   0.000008  -0.000001   0.000000  -0.000001   0.000001
    25  H    0.000020   0.000004   0.000000  -0.000000  -0.000000   0.000000
    26  H    0.004692   0.001860   0.000500   0.000004  -0.000482   0.003169
    27  H   -0.000008  -0.000000  -0.000000   0.000000  -0.000000   0.000000
    28  H    0.000004   0.000005  -0.000003  -0.000000   0.000000  -0.000000
    29  N    0.272302  -0.081575   0.019701  -0.000225  -0.001621   0.006880
    30  H   -0.081720   0.015996  -0.004676   0.000058   0.015666  -0.059275
    31  S   -0.099506   0.397805  -0.067714   0.002313   0.012830  -0.003979
    32  C    0.016598  -0.000920  -0.000389  -0.000005   0.000068  -0.000140
    33  H   -0.000616  -0.000149  -0.000015   0.000000   0.000001   0.000002
              13         14         15         16         17         18
     1  C    0.000423  -0.074619   0.015664  -0.071942   0.000000  -0.000000
     2  C   -0.002796   0.469513  -0.004678   0.017496  -0.000003   0.000002
     3  C   -0.004504  -0.102429   0.016001  -0.005933   0.000005  -0.000003
     4  C    0.012705   0.025428  -0.081731   0.021233   0.000004  -0.000020
     5  C    0.009980  -0.008756   0.460151  -0.071204   0.000001  -0.000006
     6  C   -0.000487   0.019231  -0.059275   0.451764  -0.000000   0.000000
     7  C    0.137599  -0.000010   0.001482  -0.000020  -0.006276   0.021235
     8  C    0.159126   0.000219   0.000114  -0.000003   0.019318  -0.005933
     9  C   -0.224051   0.000184  -0.000004   0.000002  -0.073694   0.017494
    10  H   -0.008750   0.000047   0.000001   0.000000  -0.010587  -0.000210
    11  C    0.161757  -0.000014   0.000002  -0.000000   0.454331  -0.071938
    12  C    0.253280   0.000008   0.000027   0.000000  -0.070518   0.451779
    13  C    5.431350  -0.000039   0.000146  -0.000006   0.018229  -0.071216
    14  H   -0.000039   0.545893   0.000058  -0.000210  -0.000000   0.000000
    15  H    0.000146   0.000058   0.527568  -0.010012  -0.000000  -0.000001
    16  H   -0.000006  -0.000210  -0.010012   0.541671   0.000000   0.000000
    17  H    0.018229  -0.000000  -0.000000   0.000000   0.541519  -0.009307
    18  H   -0.071216   0.000000  -0.000001   0.000000  -0.009307   0.541663
    19  C   -0.006701   0.000061  -0.001837   0.000058   0.000009   0.000058
    20  C    0.002454  -0.000005  -0.000945   0.000002  -0.000004  -0.000039
    21  C    0.004089   0.000000   0.000055   0.000000  -0.000001  -0.000003
    22  C   -0.000271  -0.000000   0.000822  -0.000003  -0.000000   0.000000
    23  C   -0.000076  -0.000000  -0.000079  -0.000000   0.000000  -0.000000
    24  H    0.000024  -0.000000  -0.000000  -0.000000  -0.000000   0.000000
    25  H   -0.000002   0.000000   0.000029   0.000000   0.000000  -0.000000
    26  H   -0.009805   0.000000   0.000000  -0.000000  -0.000005   0.000070
    27  H    0.000004   0.000000  -0.000000   0.000000  -0.000000   0.000000
    28  H    0.000001  -0.010588  -0.000166  -0.009308   0.000000   0.000000
    29  N   -0.050116  -0.000225   0.003160  -0.000298   0.000021  -0.000298
    30  H    0.460148   0.000001   0.000247  -0.000001  -0.000166  -0.010013
    31  S    0.025373   0.002324  -0.000403   0.000035  -0.000422   0.000035
    32  C   -0.000059   0.000004  -0.000870  -0.000039   0.000001   0.000002
    33  H    0.000073   0.000004  -0.002230   0.000070   0.000000  -0.000000
              19         20         21         22         23         24
     1  C   -0.001658   0.000068   0.000000   0.000061  -0.000000  -0.000000
     2  C    0.003430  -0.000388   0.000012   0.000020  -0.000003   0.000000
     3  C   -0.017888  -0.000925   0.000033  -0.000264  -0.000123   0.000004
     4  C   -0.074622   0.016586   0.000917  -0.002079  -0.000629   0.000020
     5  C   -0.006701  -0.000062  -0.000268   0.004083  -0.000077  -0.000002
     6  C    0.002213  -0.000140  -0.000014  -0.000103   0.000018   0.000000
     7  C   -0.074669  -0.030891  -0.002073   0.000917  -0.000630   0.000113
     8  C   -0.017893   0.006309  -0.000262   0.000032  -0.000123   0.000008
     9  C    0.003432   0.000046   0.000020   0.000012  -0.000003  -0.000001
    10  H    0.000061   0.000004  -0.000000   0.000000  -0.000000   0.000000
    11  C   -0.001660   0.000193   0.000061   0.000000  -0.000000  -0.000001
    12  C    0.002216  -0.001274  -0.000103  -0.000014   0.000018   0.000001
    13  C   -0.006701   0.002454   0.004089  -0.000271  -0.000076   0.000024
    14  H    0.000061  -0.000005   0.000000  -0.000000  -0.000000  -0.000000
    15  H   -0.001837  -0.000945   0.000055   0.000822  -0.000079  -0.000000
    16  H    0.000058   0.000002   0.000000  -0.000003  -0.000000  -0.000000
    17  H    0.000009  -0.000004  -0.000001  -0.000000   0.000000  -0.000000
    18  H    0.000058  -0.000039  -0.000003   0.000000  -0.000000   0.000000
    19  C    4.931107   0.358464   0.027893   0.027891  -0.108279   0.014913
    20  C    0.358464   5.236104   0.386591  -0.105823   0.048585  -0.069154
    21  C    0.027893   0.386591   5.035625   0.038140   0.391974   0.446179
    22  C    0.027891  -0.105823   0.038140   5.035481   0.392004   0.014692
    23  C   -0.108279   0.048585   0.391974   0.392004   5.084499  -0.064791
    24  H    0.014913  -0.069154   0.446179   0.014692  -0.064791   0.548833
    25  H    0.014917  -0.003710   0.014692   0.446162  -0.064790  -0.000312
    26  H   -0.062746   0.444204  -0.047390  -0.002906   0.011735  -0.009108
    27  H   -0.005019   0.016797  -0.068870  -0.068867   0.450239  -0.009095
    28  H    0.000009   0.000001  -0.000000  -0.000001   0.000000   0.000000
    29  N    0.484212  -0.086895   0.003994   0.003997   0.000262  -0.000153
    30  H   -0.001837  -0.000879   0.000824   0.000055  -0.000079   0.000029
    31  S    0.005182   0.002512  -0.000505  -0.000505   0.000270  -0.000005
    32  C    0.358404   0.045461  -0.105841   0.386578   0.048639  -0.003709
    33  H   -0.062760   0.010406  -0.002910  -0.047422   0.011741   0.000059
              25         26         27         28         29         30
     1  C   -0.000001   0.000001  -0.000000   0.454347  -0.001623   0.000002
     2  C   -0.000001  -0.000015  -0.000000  -0.073715   0.019703  -0.000004
     3  C    0.000009  -0.000150  -0.000000   0.019321  -0.081682   0.000115
     4  C    0.000113  -0.000615  -0.000008  -0.006275   0.272498   0.001479
     5  C    0.000024   0.000073   0.000004   0.018229  -0.050161   0.000146
     6  C    0.000001   0.000002   0.000000  -0.070522   0.006883   0.000027
     7  C    0.000020   0.004692  -0.000008   0.000004   0.272302  -0.081720
     8  C    0.000004   0.001860  -0.000000   0.000005  -0.081575   0.015996
     9  C    0.000000   0.000500  -0.000000  -0.000003   0.019701  -0.004676
    10  H   -0.000000   0.000004   0.000000  -0.000000  -0.000225   0.000058
    11  C   -0.000000  -0.000482  -0.000000   0.000000  -0.001621   0.015666
    12  C    0.000000   0.003169   0.000000  -0.000000   0.006880  -0.059275
    13  C   -0.000002  -0.009805   0.000004   0.000001  -0.050116   0.460148
    14  H    0.000000   0.000000   0.000000  -0.010588  -0.000225   0.000001
    15  H    0.000029   0.000000  -0.000000  -0.000166   0.003160   0.000247
    16  H    0.000000  -0.000000   0.000000  -0.009308  -0.000298  -0.000001
    17  H    0.000000  -0.000005  -0.000000   0.000000   0.000021  -0.000166
    18  H   -0.000000   0.000070   0.000000   0.000000  -0.000298  -0.010013
    19  C    0.014917  -0.062746  -0.005019   0.000009   0.484212  -0.001837
    20  C   -0.003710   0.444204   0.016797   0.000001  -0.086895  -0.000879
    21  C    0.014692  -0.047390  -0.068870  -0.000000   0.003994   0.000824
    22  C    0.446162  -0.002906  -0.068867  -0.000001   0.003997   0.000055
    23  C   -0.064790   0.011735   0.450239   0.000000   0.000262  -0.000079
    24  H   -0.000312  -0.009108  -0.009095   0.000000  -0.000153   0.000029
    25  H    0.548834   0.000059  -0.009095  -0.000000  -0.000153  -0.000000
    26  H    0.000059   0.523089  -0.000181   0.000000  -0.009064  -0.002236
    27  H   -0.009095  -0.000181   0.549826  -0.000000   0.000027  -0.000000
    28  H   -0.000000   0.000000  -0.000000   0.541530   0.000021  -0.000000
    29  N   -0.000153  -0.009064   0.000027   0.000021   6.274669   0.003158
    30  H   -0.000000  -0.002236  -0.000000  -0.000000   0.003158   0.527568
    31  S   -0.000005   0.000196   0.000001  -0.000422  -0.004426  -0.000403
    32  C   -0.069147   0.010398   0.016795  -0.000004  -0.086871  -0.000944
    33  H   -0.009111  -0.000166  -0.000181  -0.000005  -0.009050   0.000000
              31         32         33
     1  C    0.012836   0.000193  -0.000480
     2  C   -0.067705   0.000042   0.000497
     3  C    0.397783   0.006305   0.001847
     4  C   -0.099525  -0.030838   0.004701
     5  C    0.025386   0.002476  -0.009763
     6  C   -0.003986  -0.001280   0.003165
     7  C   -0.099506   0.016598  -0.000616
     8  C    0.397805  -0.000920  -0.000149
     9  C   -0.067714  -0.000389  -0.000015
    10  H    0.002313  -0.000005   0.000000
    11  C    0.012830   0.000068   0.000001
    12  C   -0.003979  -0.000140   0.000002
    13  C    0.025373  -0.000059   0.000073
    14  H    0.002324   0.000004   0.000004
    15  H   -0.000403  -0.000870  -0.002230
    16  H    0.000035  -0.000039   0.000070
    17  H   -0.000422   0.000001   0.000000
    18  H    0.000035   0.000002  -0.000000
    19  C    0.005182   0.358404  -0.062760
    20  C    0.002512   0.045461   0.010406
    21  C   -0.000505  -0.105841  -0.002910
    22  C   -0.000505   0.386578  -0.047422
    23  C    0.000270   0.048639   0.011741
    24  H   -0.000005  -0.003709   0.000059
    25  H   -0.000005  -0.069147  -0.009111
    26  H    0.000196   0.010398  -0.000166
    27  H    0.000001   0.016795  -0.000181
    28  H   -0.000422  -0.000004  -0.000005
    29  N   -0.004426  -0.086871  -0.009050
    30  H   -0.000403  -0.000944   0.000000
    31  S   15.542293   0.002517   0.000196
    32  C    0.002517   5.236240   0.444217
    33  H    0.000196   0.444217   0.523098
 Mulliken charges:
               1
     1  C   -0.152198
     2  C   -0.158529
     3  C   -0.023011
     4  C    0.208066
     5  C   -0.297941
     6  C   -0.075713
     7  C    0.208040
     8  C   -0.022998
     9  C   -0.158560
    10  H    0.133933
    11  C   -0.152238
    12  C   -0.075767
    13  C   -0.297884
    14  H    0.133920
    15  H    0.136705
    16  H    0.136650
    17  H    0.137544
    18  H    0.136650
    19  C    0.209741
    20  C   -0.273655
    21  C   -0.122859
    22  C   -0.122692
    23  C   -0.200303
    24  H    0.131456
    25  H    0.131464
    26  H    0.144818
    27  H    0.127634
    28  H    0.137539
    29  N    0.092949
    30  H    0.136715
    31  S   -0.080376
    32  C   -0.273880
    33  H    0.144781
 Sum of Mulliken charges =  -0.00000
 Mulliken charges with hydrogens summed into heavy atoms:
               1
     1  C   -0.014660
     2  C   -0.024609
     3  C   -0.023011
     4  C    0.208066
     5  C   -0.161236
     6  C    0.060937
     7  C    0.208040
     8  C   -0.022998
     9  C   -0.024627
    11  C   -0.014694
    12  C    0.060883
    13  C   -0.161169
    19  C    0.209741
    20  C   -0.128837
    21  C    0.008597
    22  C    0.008772
    23  C   -0.072669
    29  N    0.092949
    31  S   -0.080376
    32  C   -0.129099
 Electronic spatial extent (au):  <R**2>=           5301.1974
 Charge=              0.0000 electrons
 Dipole moment (field-independent basis, Debye):
    X=             -1.2441    Y=              0.0030    Z=              1.7891  Tot=              2.1792
 Quadrupole moment (field-independent basis, Debye-Ang):
   XX=           -119.0811   YY=           -100.7952   ZZ=           -123.2900
   XY=              0.0508   XZ=              2.9216   YZ=             -0.0104
 Traceless Quadrupole moment (field-independent basis, Debye-Ang):
   XX=             -4.6924   YY=             13.5936   ZZ=             -8.9012
   XY=              0.0508   XZ=              2.9216   YZ=             -0.0104
 Octapole moment (field-independent basis, Debye-Ang**2):
  XXX=              4.1702  YYY=              0.2633  ZZZ=             13.3910  XYY=            -30.4829
  XXY=             -0.2048  XXZ=            -24.4786  XZZ=             -6.0831  YZZ=              0.0215
  YYZ=             22.8490  XYZ=              0.1369
 Hexadecapole moment (field-independent basis, Debye-Ang**3):
 XXXX=          -3358.2794 YYYY=          -2839.3552 ZZZZ=           -751.8276 XXXY=              1.0274
 XXXZ=            -24.6819 YYYX=             -0.2489 YYYZ=             -0.1779 ZZZX=             38.1786
 ZZZY=             -0.0948 XXYY=           -958.5440 XXZZ=           -748.3303 YYZZ=           -606.8480
 XXYZ=              0.1130 YYXZ=             11.3180 ZZXY=              0.2399
 N-N= 1.563156499142D+03 E-N=-5.812447246239D+03  KE= 1.142710675265D+03
 Leave Link  601 at Tue Mar 30 07:47:09 2021, MaxMem=  5242880000 cpu:         3.1
 (Enter /opt/nce/packages/global/g09/l9999.exe)
 1\1\GINC-CN005\SP\RB97D3 TD-FC\Gen\C18H13N1S1\PNG4RJV\30-Mar-2021\0\\#
 p B97D3 chkbasis geom=allcheck Guess=Read int=ultrafine scrf=(SMD,solv
 ent=n,n-DiMethylAcetamide) td=(NStates=30)\\Title\\0,1\C,0,-1.96426216
 ,3.554533354,-0.4123670137\C,0,-2.2535345779,2.5182560408,0.4746195928
 \C,0,-1.4861196255,1.3487697926,0.4471746716\C,0,-0.4341149466,1.21274
 27078,-0.4729861084\C,0,-0.1905100781,2.2341424889,-1.395242427\C,0,-0
 .9411674767,3.4086172535,-1.3537768387\C,0,-0.4179078315,-1.1910080761
 ,-0.4673669875\C,0,-1.4676638228,-1.3371957351,0.4538033032\C,0,-2.218
 4740957,-2.5172645481,0.4873132949\H,0,-3.036108881,-2.6181765699,1.19
 63667688\C,0,-1.9149442262,-3.5537134611,-0.3946976373\C,0,-0.89450217
 55,-3.3979671039,-1.3374066632\C,0,-0.1604580329,-2.2132675675,-1.3848
 936861\H,0,-3.0729445711,2.6108946016,1.1827764512\H,0,0.6018220672,2.
 1060337466,-2.1270469307\H,0,-0.7331278775,4.2054785474,-2.0627340836\
 H,0,-2.4929904839,-4.473452996,-0.360719806\H,0,-0.6755429868,-4.19528
 50292,-2.0425484552\C,0,1.6909732805,0.0258332027,-0.0515942886\C,0,2.
 3894137188,-1.1771799544,0.176172802\C,0,3.7219532923,-1.1590993715,0.
 583272682\C,0,3.7066365983,1.2394765508,0.5776648788\C,0,4.4000331337,
 0.0450408616,0.7827217132\H,0,4.2301587555,-2.1063838404,0.7505690421\
 H,0,4.2027639943,2.1939132374,0.7404958205\H,0,1.8917186031,-2.1308728
 879,0.0477582303\H,0,5.4401239186,0.0524308836,1.0972351921\H,0,-2.555
 233038,4.4661930312,-0.3832125292\N,0,0.3420119575,0.0160560718,-0.463
 4964673\H,0,0.6297877437,-2.0776098644,-2.1175853715\S,0,-1.8418083683
 ,0.0060084615,1.5518346355\C,0,2.3739359251,1.2387210117,0.1706012537\
 H,0,1.8642592674,2.18549416,0.0380689612\\Version=ES64L-G09RevE.01\Sta
 te=1-A\HF=-1146.5031725\RMSD=3.096e-09\PG=C01 [X(C18H13N1S1)]\\@


 KEEP CLOSE TO NATURES HEART, YOURSELF;
 AND BREAK CLEAR AWAY, ONCE IN A WHILE, AND
 CLIMB A MOUNTAIN OR SPEND A WEEK IN THE
 WOODS.  WASH YOUR SPIRIT CLEAN...
                                         -- JOHN MUIR
 Job cpu time:       0 days 11 hours 43 minutes 22.2 seconds.
 File lengths (MBytes):  RWF=   1845 Int=      0 D2E=      0 Chk=    444 Scr=      1
 Normal termination of Gaussian 09 at Tue Mar 30 07:47:10 2021.
