 Entering Gaussian System, Link 0=g09
 Input=/home/png4rjv/fotokatalizis/benchmark/OPCs/PTZ_1b_TDHF_def2TZVP.gjf
 Output=/home/png4rjv/fotokatalizis/benchmark/OPCs/PTZ_1b_TDHF_def2TZVP.log
 Initial command:
 /opt/nce/packages/global/g09/l1.exe "/home/png4rjv/fotokatalizis/benchmark/OPCs/PTZ_1b_TDHF_def2TZVP/Gau-41762.inp" -scrdir="/home/png4rjv/fotokatalizis/benchmark/OPCs/PTZ_1b_TDHF_def2TZVP/"
 Default is to use a total of  12 processors:
                               12 via shared-memory
                                1 via Linda
 Entering Link 1 = /opt/nce/packages/global/g09/l1.exe PID=     41763.
  
 Copyright (c) 1988,1990,1992,1993,1995,1998,2003,2009,2015,
            Gaussian, Inc.  All Rights Reserved.
  
 This is part of the Gaussian(R) 09 program.  It is based on
 the Gaussian(R) 03 system (copyright 2003, Gaussian, Inc.),
 the Gaussian(R) 98 system (copyright 1998, Gaussian, Inc.),
 the Gaussian(R) 94 system (copyright 1995, Gaussian, Inc.),
 the Gaussian 92(TM) system (copyright 1992, Gaussian, Inc.),
 the Gaussian 90(TM) system (copyright 1990, Gaussian, Inc.),
 the Gaussian 88(TM) system (copyright 1988, Gaussian, Inc.),
 the Gaussian 86(TM) system (copyright 1986, Carnegie Mellon
 University), and the Gaussian 82(TM) system (copyright 1983,
 Carnegie Mellon University). Gaussian is a federally registered
 trademark of Gaussian, Inc.
  
 This software contains proprietary and confidential information,
 including trade secrets, belonging to Gaussian, Inc.
  
 This software is provided under written license and may be
 used, copied, transmitted, or stored only in accord with that
 written license.
  
 The following legend is applicable only to US Government
 contracts under FAR:
  
                    RESTRICTED RIGHTS LEGEND
  
 Use, reproduction and disclosure by the US Government is
 subject to restrictions as set forth in subparagraphs (a)
 and (c) of the Commercial Computer Software - Restricted
 Rights clause in FAR 52.227-19.
  
 Gaussian, Inc.
 340 Quinnipiac St., Bldg. 40, Wallingford CT 06492
  
  
 ---------------------------------------------------------------
 Warning -- This program may not be used in any manner that
 competes with the business of Gaussian, Inc. or will provide
 assistance to any competitor of Gaussian, Inc.  The licensee
 of this program is prohibited from giving any competitor of
 Gaussian, Inc. access to this program.  By using this program,
 the user acknowledges that Gaussian, Inc. is engaged in the
 business of creating and licensing software in the field of
 computational chemistry and represents and warrants to the
 licensee that it is not a competitor of Gaussian, Inc. and that
 it will not use this program in any manner prohibited above.
 ---------------------------------------------------------------
  

 Cite this work as:
 Gaussian 09, Revision E.01,
 M. J. Frisch, G. W. Trucks, H. B. Schlegel, G. E. Scuseria, 
 M. A. Robb, J. R. Cheeseman, G. Scalmani, V. Barone, B. Mennucci, 
 G. A. Petersson, H. Nakatsuji, M. Caricato, X. Li, H. P. Hratchian, 
 A. F. Izmaylov, J. Bloino, G. Zheng, J. L. Sonnenberg, M. Hada, 
 M. Ehara, K. Toyota, R. Fukuda, J. Hasegawa, M. Ishida, T. Nakajima, 
 Y. Honda, O. Kitao, H. Nakai, T. Vreven, J. A. Montgomery, Jr., 
 J. E. Peralta, F. Ogliaro, M. Bearpark, J. J. Heyd, E. Brothers, 
 K. N. Kudin, V. N. Staroverov, T. Keith, R. Kobayashi, J. Normand, 
 K. Raghavachari, A. Rendell, J. C. Burant, S. S. Iyengar, J. Tomasi, 
 M. Cossi, N. Rega, J. M. Millam, M. Klene, J. E. Knox, J. B. Cross, 
 V. Bakken, C. Adamo, J. Jaramillo, R. Gomperts, R. E. Stratmann, 
 O. Yazyev, A. J. Austin, R. Cammi, C. Pomelli, J. W. Ochterski, 
 R. L. Martin, K. Morokuma, V. G. Zakrzewski, G. A. Voth, 
 P. Salvador, J. J. Dannenberg, S. Dapprich, A. D. Daniels, 
 O. Farkas, J. B. Foresman, J. V. Ortiz, J. Cioslowski, 
 and D. J. Fox, Gaussian, Inc., Wallingford CT, 2013.
 
 ******************************************
 Gaussian 09:  ES64L-G09RevE.01 30-Nov-2015
                 3-Apr-2021 
 ******************************************
 %chk=cp.chk
 Default route:  MaxDisk=500GB
 ----------------------------------------------------------------------
 #p hf/def2TZVP opt freq=noraman nosymm int=ultrafine scrf=(SMD,solvent
 =n,n-DiMethylAcetamide)
 ----------------------------------------------------------------------
 1/14=-1,18=20,19=15,38=1/1,3;
 2/9=110,12=2,15=1,17=6,18=5,40=1/2;
 3/5=44,7=101,11=9,16=1,25=1,30=1,70=32201,71=1,72=147,75=-5/1,2,3;
 4//1;
 5/5=2,38=5,53=147/2;
 6/7=2,8=2,9=2,10=2,28=1/1;
 7/30=1/1,2,3,16;
 1/14=-1,18=20,19=15/3(2);
 2/9=110,15=1/2;
 99//99;
 2/9=110,15=1/2;
 3/5=44,7=101,11=9,16=1,25=1,30=1,70=32205,71=1,72=147,75=-5/1,2,3;
 4/5=5,16=3,69=1/1;
 5/5=2,38=5,53=147/2;
 7/30=1/1,2,3,16;
 1/14=-1,18=20,19=15/3(-5);
 2/9=110,15=1/2;
 6/7=2,8=2,9=2,10=2,19=2,28=1/1;
 99/9=1/99;
 Leave Link    1 at Sat Apr  3 20:11:19 2021, MaxMem=           0 cpu:         0.8
 (Enter /opt/nce/packages/global/g09/l101.exe)
 -----
 Title
 -----
 Symbolic Z-matrix:
 Charge =  0 Multiplicity = 1
 C                    -1.96587   3.55795  -0.4129 
 C                    -2.25317   2.51937   0.47414 
 C                    -1.48663   1.34851   0.44676 
 C                    -0.43397   1.21038  -0.4751 
 C                    -0.19289   2.23549  -1.39782 
 C                    -0.94181   3.41256  -1.35496 
 C                    -0.41788  -1.18962  -0.46937 
 C                    -1.46858  -1.33736   0.45319 
 C                    -2.2193   -2.51831   0.48617 
 H                    -3.04103  -2.61356   1.19921 
 C                    -1.91804  -3.55714  -0.3959 
 C                    -0.89595  -3.40257  -1.33867 
 C                    -0.16293  -2.21576  -1.3872 
 H                    -3.07615   2.60689   1.18673 
 H                     0.6013    2.10304  -2.1345 
 H                    -0.73315   4.21395  -2.06703 
 H                    -2.49871  -4.48164  -0.36173 
 H                    -0.67663  -4.20452  -2.04689 
 C                     1.69233   0.02568  -0.05102 
 C                     2.39141  -1.17681   0.17752 
 C                     3.72533  -1.15866   0.58458 
 C                     3.70905   1.24034   0.57914 
 C                     4.40315   0.04598   0.7834 
 H                     4.23691  -2.1097    0.7538 
 H                     4.20757   2.19906   0.74396 
 H                     1.88953  -2.13416   0.05174 
 H                     5.4481    0.05373   1.09974 
 H                    -2.55887   4.47474  -0.38311 
 N                     0.34006   0.01558  -0.46695 
 H                     0.62945  -2.07607  -2.12447 
 S                    -1.83371   0.00584   1.56436 
 C                     2.37499   1.23851   0.172 
 H                     1.86023   2.18843   0.04196 
 
 NAtoms=     33 NQM=       33 NQMF=       0 NMMI=      0 NMMIF=      0
                NMic=       0 NMicF=      0.
                    Isotopes and Nuclear Properties:
 (Nuclear quadrupole moments (NQMom) in fm**2, nuclear magnetic moments (NMagM)
  in nuclear magnetons)

  Atom         1           2           3           4           5           6           7           8           9          10
 IAtWgt=          12          12          12          12          12          12          12          12          12           1
 AtmWgt=  12.0000000  12.0000000  12.0000000  12.0000000  12.0000000  12.0000000  12.0000000  12.0000000  12.0000000   1.0078250
 NucSpn=           0           0           0           0           0           0           0           0           0           1
 AtZEff=   0.0000000   0.0000000   0.0000000   0.0000000   0.0000000   0.0000000   0.0000000   0.0000000   0.0000000   0.0000000
 NQMom=    0.0000000   0.0000000   0.0000000   0.0000000   0.0000000   0.0000000   0.0000000   0.0000000   0.0000000   0.0000000
 NMagM=    0.0000000   0.0000000   0.0000000   0.0000000   0.0000000   0.0000000   0.0000000   0.0000000   0.0000000   2.7928460
 AtZNuc=   6.0000000   6.0000000   6.0000000   6.0000000   6.0000000   6.0000000   6.0000000   6.0000000   6.0000000   1.0000000

  Atom        11          12          13          14          15          16          17          18          19          20
 IAtWgt=          12          12          12           1           1           1           1           1          12          12
 AtmWgt=  12.0000000  12.0000000  12.0000000   1.0078250   1.0078250   1.0078250   1.0078250   1.0078250  12.0000000  12.0000000
 NucSpn=           0           0           0           1           1           1           1           1           0           0
 AtZEff=   0.0000000   0.0000000   0.0000000   0.0000000   0.0000000   0.0000000   0.0000000   0.0000000   0.0000000   0.0000000
 NQMom=    0.0000000   0.0000000   0.0000000   0.0000000   0.0000000   0.0000000   0.0000000   0.0000000   0.0000000   0.0000000
 NMagM=    0.0000000   0.0000000   0.0000000   2.7928460   2.7928460   2.7928460   2.7928460   2.7928460   0.0000000   0.0000000
 AtZNuc=   6.0000000   6.0000000   6.0000000   1.0000000   1.0000000   1.0000000   1.0000000   1.0000000   6.0000000   6.0000000

  Atom        21          22          23          24          25          26          27          28          29          30
 IAtWgt=          12          12          12           1           1           1           1           1          14           1
 AtmWgt=  12.0000000  12.0000000  12.0000000   1.0078250   1.0078250   1.0078250   1.0078250   1.0078250  14.0030740   1.0078250
 NucSpn=           0           0           0           1           1           1           1           1           2           1
 AtZEff=   0.0000000   0.0000000   0.0000000   0.0000000   0.0000000   0.0000000   0.0000000   0.0000000   0.0000000   0.0000000
 NQMom=    0.0000000   0.0000000   0.0000000   0.0000000   0.0000000   0.0000000   0.0000000   0.0000000   2.0440000   0.0000000
 NMagM=    0.0000000   0.0000000   0.0000000   2.7928460   2.7928460   2.7928460   2.7928460   2.7928460   0.4037610   2.7928460
 AtZNuc=   6.0000000   6.0000000   6.0000000   1.0000000   1.0000000   1.0000000   1.0000000   1.0000000   7.0000000   1.0000000

  Atom        31          32          33
 IAtWgt=          32          12           1
 AtmWgt=  31.9720718  12.0000000   1.0078250
 NucSpn=           0           0           1
 AtZEff=   0.0000000   0.0000000   0.0000000
 NQMom=    0.0000000   0.0000000   0.0000000
 NMagM=    0.0000000   0.0000000   2.7928460
 AtZNuc=  16.0000000   6.0000000   1.0000000
 Leave Link  101 at Sat Apr  3 20:11:19 2021, MaxMem=  5242880000 cpu:         4.2
 (Enter /opt/nce/packages/global/g09/l103.exe)

 GradGradGradGradGradGradGradGradGradGradGradGradGradGradGradGradGradGrad
 Berny optimization.
 Initialization pass.
                           ----------------------------
                           !    Initial Parameters    !
                           ! (Angstroms and Degrees)  !
 --------------------------                            --------------------------
 ! Name  Definition              Value          Derivative Info.                !
 --------------------------------------------------------------------------------
 ! R1    R(1,2)                  1.3957         estimate D2E/DX2                !
 ! R2    R(1,6)                  1.399          estimate D2E/DX2                !
 ! R3    R(1,28)                 1.0923         estimate D2E/DX2                !
 ! R4    R(2,3)                  1.3997         estimate D2E/DX2                !
 ! R5    R(2,14)                 1.0921         estimate D2E/DX2                !
 ! R6    R(3,4)                  1.4061         estimate D2E/DX2                !
 ! R7    R(3,31)                 1.7811         estimate D2E/DX2                !
 ! R8    R(4,5)                  1.4001         estimate D2E/DX2                !
 ! R9    R(4,29)                 1.4236         estimate D2E/DX2                !
 ! R10   R(5,6)                  1.3958         estimate D2E/DX2                !
 ! R11   R(5,15)                 1.0913         estimate D2E/DX2                !
 ! R12   R(6,16)                 1.0922         estimate D2E/DX2                !
 ! R13   R(7,8)                  1.406          estimate D2E/DX2                !
 ! R14   R(7,13)                 1.4001         estimate D2E/DX2                !
 ! R15   R(7,29)                 1.4237         estimate D2E/DX2                !
 ! R16   R(8,9)                  1.3997         estimate D2E/DX2                !
 ! R17   R(8,31)                 1.7811         estimate D2E/DX2                !
 ! R18   R(9,10)                 1.0921         estimate D2E/DX2                !
 ! R19   R(9,11)                 1.3957         estimate D2E/DX2                !
 ! R20   R(11,12)                1.3991         estimate D2E/DX2                !
 ! R21   R(11,17)                1.0923         estimate D2E/DX2                !
 ! R22   R(12,13)                1.3958         estimate D2E/DX2                !
 ! R23   R(12,18)                1.0922         estimate D2E/DX2                !
 ! R24   R(13,30)                1.0913         estimate D2E/DX2                !
 ! R25   R(19,20)                1.4096         estimate D2E/DX2                !
 ! R26   R(19,29)                1.4148         estimate D2E/DX2                !
 ! R27   R(19,32)                1.4095         estimate D2E/DX2                !
 ! R28   R(20,21)                1.3948         estimate D2E/DX2                !
 ! R29   R(20,26)                1.0882         estimate D2E/DX2                !
 ! R30   R(21,23)                1.3965         estimate D2E/DX2                !
 ! R31   R(21,24)                1.0931         estimate D2E/DX2                !
 ! R32   R(22,23)                1.3964         estimate D2E/DX2                !
 ! R33   R(22,25)                1.0931         estimate D2E/DX2                !
 ! R34   R(22,32)                1.3948         estimate D2E/DX2                !
 ! R35   R(23,27)                1.0918         estimate D2E/DX2                !
 ! R36   R(32,33)                1.0882         estimate D2E/DX2                !
 ! A1    A(2,1,6)              120.0857         estimate D2E/DX2                !
 ! A2    A(2,1,28)             119.7018         estimate D2E/DX2                !
 ! A3    A(6,1,28)             120.1977         estimate D2E/DX2                !
 ! A4    A(1,2,3)              119.8206         estimate D2E/DX2                !
 ! A5    A(1,2,14)             120.6744         estimate D2E/DX2                !
 ! A6    A(3,2,14)             119.5036         estimate D2E/DX2                !
 ! A7    A(2,3,4)              120.3311         estimate D2E/DX2                !
 ! A8    A(2,3,31)             120.7702         estimate D2E/DX2                !
 ! A9    A(4,3,31)             118.8966         estimate D2E/DX2                !
 ! A10   A(3,4,5)              119.2789         estimate D2E/DX2                !
 ! A11   A(3,4,29)             119.0612         estimate D2E/DX2                !
 ! A12   A(5,4,29)             121.6424         estimate D2E/DX2                !
 ! A13   A(4,5,6)              120.3184         estimate D2E/DX2                !
 ! A14   A(4,5,15)             118.7713         estimate D2E/DX2                !
 ! A15   A(6,5,15)             120.8999         estimate D2E/DX2                !
 ! A16   A(1,6,5)              120.0697         estimate D2E/DX2                !
 ! A17   A(1,6,16)             120.1732         estimate D2E/DX2                !
 ! A18   A(5,6,16)             119.753          estimate D2E/DX2                !
 ! A19   A(8,7,13)             119.2868         estimate D2E/DX2                !
 ! A20   A(8,7,29)             119.0563         estimate D2E/DX2                !
 ! A21   A(13,7,29)            121.6395         estimate D2E/DX2                !
 ! A22   A(7,8,9)              120.3249         estimate D2E/DX2                !
 ! A23   A(7,8,31)             118.9012         estimate D2E/DX2                !
 ! A24   A(9,8,31)             120.7717         estimate D2E/DX2                !
 ! A25   A(8,9,10)             119.5055         estimate D2E/DX2                !
 ! A26   A(8,9,11)             119.8216         estimate D2E/DX2                !
 ! A27   A(10,9,11)            120.6715         estimate D2E/DX2                !
 ! A28   A(9,11,12)            120.0883         estimate D2E/DX2                !
 ! A29   A(9,11,17)            119.7            estimate D2E/DX2                !
 ! A30   A(12,11,17)           120.1968         estimate D2E/DX2                !
 ! A31   A(11,12,13)           120.0684         estimate D2E/DX2                !
 ! A32   A(11,12,18)           120.1693         estimate D2E/DX2                !
 ! A33   A(13,12,18)           119.7582         estimate D2E/DX2                !
 ! A34   A(7,13,12)            120.3144         estimate D2E/DX2                !
 ! A35   A(7,13,30)            118.7682         estimate D2E/DX2                !
 ! A36   A(12,13,30)           120.907          estimate D2E/DX2                !
 ! A37   A(20,19,29)           121.0375         estimate D2E/DX2                !
 ! A38   A(20,19,32)           117.9168         estimate D2E/DX2                !
 ! A39   A(29,19,32)           121.0352         estimate D2E/DX2                !
 ! A40   A(19,20,21)           120.6992         estimate D2E/DX2                !
 ! A41   A(19,20,26)           120.1999         estimate D2E/DX2                !
 ! A42   A(21,20,26)           119.0949         estimate D2E/DX2                !
 ! A43   A(20,21,23)           121.1302         estimate D2E/DX2                !
 ! A44   A(20,21,24)           118.7801         estimate D2E/DX2                !
 ! A45   A(23,21,24)           120.0886         estimate D2E/DX2                !
 ! A46   A(23,22,25)           120.0941         estimate D2E/DX2                !
 ! A47   A(23,22,32)           121.13           estimate D2E/DX2                !
 ! A48   A(25,22,32)           118.7748         estimate D2E/DX2                !
 ! A49   A(21,23,22)           118.4067         estimate D2E/DX2                !
 ! A50   A(21,23,27)           120.7921         estimate D2E/DX2                !
 ! A51   A(22,23,27)           120.799          estimate D2E/DX2                !
 ! A52   A(4,29,7)             114.8971         estimate D2E/DX2                !
 ! A53   A(4,29,19)            121.021          estimate D2E/DX2                !
 ! A54   A(7,29,19)            121.0219         estimate D2E/DX2                !
 ! A55   A(3,31,8)              97.8802         estimate D2E/DX2                !
 ! A56   A(19,32,22)           120.7001         estimate D2E/DX2                !
 ! A57   A(19,32,33)           120.2054         estimate D2E/DX2                !
 ! A58   A(22,32,33)           119.0884         estimate D2E/DX2                !
 ! D1    D(6,1,2,3)              2.0071         estimate D2E/DX2                !
 ! D2    D(6,1,2,14)          -177.5489         estimate D2E/DX2                !
 ! D3    D(28,1,2,3)          -179.389          estimate D2E/DX2                !
 ! D4    D(28,1,2,14)            1.0549         estimate D2E/DX2                !
 ! D5    D(2,1,6,5)             -0.8782         estimate D2E/DX2                !
 ! D6    D(2,1,6,16)           178.3857         estimate D2E/DX2                !
 ! D7    D(28,1,6,5)          -179.4751         estimate D2E/DX2                !
 ! D8    D(28,1,6,16)           -0.2111         estimate D2E/DX2                !
 ! D9    D(1,2,3,4)             -0.3788         estimate D2E/DX2                !
 ! D10   D(1,2,3,31)          -179.8438         estimate D2E/DX2                !
 ! D11   D(14,2,3,4)           179.1825         estimate D2E/DX2                !
 ! D12   D(14,2,3,31)           -0.2825         estimate D2E/DX2                !
 ! D13   D(2,3,4,5)             -2.3602         estimate D2E/DX2                !
 ! D14   D(2,3,4,29)           179.1366         estimate D2E/DX2                !
 ! D15   D(31,3,4,5)           177.1148         estimate D2E/DX2                !
 ! D16   D(31,3,4,29)           -1.3884         estimate D2E/DX2                !
 ! D17   D(2,3,31,8)           143.6135         estimate D2E/DX2                !
 ! D18   D(4,3,31,8)           -35.8591         estimate D2E/DX2                !
 ! D19   D(3,4,5,6)              3.497          estimate D2E/DX2                !
 ! D20   D(3,4,5,15)          -177.6641         estimate D2E/DX2                !
 ! D21   D(29,4,5,6)          -178.0398         estimate D2E/DX2                !
 ! D22   D(29,4,5,15)            0.7991         estimate D2E/DX2                !
 ! D23   D(3,4,29,7)            49.1325         estimate D2E/DX2                !
 ! D24   D(3,4,29,19)         -111.2738         estimate D2E/DX2                !
 ! D25   D(5,4,29,7)          -129.334          estimate D2E/DX2                !
 ! D26   D(5,4,29,19)           70.2597         estimate D2E/DX2                !
 ! D27   D(4,5,6,1)             -1.8997         estimate D2E/DX2                !
 ! D28   D(4,5,6,16)           178.8333         estimate D2E/DX2                !
 ! D29   D(15,5,6,1)           179.2865         estimate D2E/DX2                !
 ! D30   D(15,5,6,16)            0.0194         estimate D2E/DX2                !
 ! D31   D(13,7,8,9)             2.3599         estimate D2E/DX2                !
 ! D32   D(13,7,8,31)         -177.1164         estimate D2E/DX2                !
 ! D33   D(29,7,8,9)          -179.1361         estimate D2E/DX2                !
 ! D34   D(29,7,8,31)            1.3876         estimate D2E/DX2                !
 ! D35   D(8,7,13,12)           -3.4968         estimate D2E/DX2                !
 ! D36   D(8,7,13,30)          177.6635         estimate D2E/DX2                !
 ! D37   D(29,7,13,12)         178.0393         estimate D2E/DX2                !
 ! D38   D(29,7,13,30)          -0.8005         estimate D2E/DX2                !
 ! D39   D(8,7,29,4)           -49.1317         estimate D2E/DX2                !
 ! D40   D(8,7,29,19)          111.2745         estimate D2E/DX2                !
 ! D41   D(13,7,29,4)          129.3357         estimate D2E/DX2                !
 ! D42   D(13,7,29,19)         -70.2581         estimate D2E/DX2                !
 ! D43   D(7,8,9,10)          -179.1868         estimate D2E/DX2                !
 ! D44   D(7,8,9,11)             0.3775         estimate D2E/DX2                !
 ! D45   D(31,8,9,10)            0.2797         estimate D2E/DX2                !
 ! D46   D(31,8,9,11)          179.8439         estimate D2E/DX2                !
 ! D47   D(7,8,31,3)            35.8597         estimate D2E/DX2                !
 ! D48   D(9,8,31,3)          -143.6142         estimate D2E/DX2                !
 ! D49   D(8,9,11,12)           -2.004          estimate D2E/DX2                !
 ! D50   D(8,9,11,17)          179.3929         estimate D2E/DX2                !
 ! D51   D(10,9,11,12)         177.5551         estimate D2E/DX2                !
 ! D52   D(10,9,11,17)          -1.0481         estimate D2E/DX2                !
 ! D53   D(9,11,12,13)           0.8749         estimate D2E/DX2                !
 ! D54   D(9,11,12,18)        -178.383          estimate D2E/DX2                !
 ! D55   D(17,11,12,13)        179.4711         estimate D2E/DX2                !
 ! D56   D(17,11,12,18)          0.2132         estimate D2E/DX2                !
 ! D57   D(11,12,13,7)           1.901          estimate D2E/DX2                !
 ! D58   D(11,12,13,30)       -179.2844         estimate D2E/DX2                !
 ! D59   D(18,12,13,7)        -178.838          estimate D2E/DX2                !
 ! D60   D(18,12,13,30)         -0.0234         estimate D2E/DX2                !
 ! D61   D(29,19,20,21)        179.8571         estimate D2E/DX2                !
 ! D62   D(29,19,20,26)         -1.0437         estimate D2E/DX2                !
 ! D63   D(32,19,20,21)         -1.3109         estimate D2E/DX2                !
 ! D64   D(32,19,20,26)        177.7883         estimate D2E/DX2                !
 ! D65   D(20,19,29,4)         169.0096         estimate D2E/DX2                !
 ! D66   D(20,19,29,7)           9.8            estimate D2E/DX2                !
 ! D67   D(32,19,29,4)          -9.7859         estimate D2E/DX2                !
 ! D68   D(32,19,29,7)        -168.9955         estimate D2E/DX2                !
 ! D69   D(20,19,32,22)          1.3097         estimate D2E/DX2                !
 ! D70   D(20,19,32,33)       -177.7849         estimate D2E/DX2                !
 ! D71   D(29,19,32,22)       -179.8583         estimate D2E/DX2                !
 ! D72   D(29,19,32,33)          1.0471         estimate D2E/DX2                !
 ! D73   D(19,20,21,23)          0.3197         estimate D2E/DX2                !
 ! D74   D(19,20,21,24)        179.9379         estimate D2E/DX2                !
 ! D75   D(26,20,21,23)       -178.7893         estimate D2E/DX2                !
 ! D76   D(26,20,21,24)          0.8289         estimate D2E/DX2                !
 ! D77   D(20,21,23,22)          0.6969         estimate D2E/DX2                !
 ! D78   D(20,21,23,27)       -179.8487         estimate D2E/DX2                !
 ! D79   D(24,21,23,22)       -178.9163         estimate D2E/DX2                !
 ! D80   D(24,21,23,27)          0.5381         estimate D2E/DX2                !
 ! D81   D(25,22,23,21)        178.918          estimate D2E/DX2                !
 ! D82   D(25,22,23,27)         -0.5363         estimate D2E/DX2                !
 ! D83   D(32,22,23,21)         -0.6981         estimate D2E/DX2                !
 ! D84   D(32,22,23,27)        179.8475         estimate D2E/DX2                !
 ! D85   D(23,22,32,19)         -0.3173         estimate D2E/DX2                !
 ! D86   D(23,22,32,33)        178.7872         estimate D2E/DX2                !
 ! D87   D(25,22,32,19)       -179.9384         estimate D2E/DX2                !
 ! D88   D(25,22,32,33)         -0.8338         estimate D2E/DX2                !
 --------------------------------------------------------------------------------
 Trust Radius=3.00D-01 FncErr=1.00D-07 GrdErr=1.00D-07
 Number of steps in this run=    192 maximum allowed number of steps=    198.
 GradGradGradGradGradGradGradGradGradGradGradGradGradGradGradGradGradGrad

 Leave Link  103 at Sat Apr  3 20:11:19 2021, MaxMem=  5242880000 cpu:         0.2
 (Enter /opt/nce/packages/global/g09/l202.exe)
                          Input orientation:                          
 ---------------------------------------------------------------------
 Center     Atomic      Atomic             Coordinates (Angstroms)
 Number     Number       Type             X           Y           Z
 ---------------------------------------------------------------------
      1          6           0       -1.965872    3.557948   -0.412902
      2          6           0       -2.253168    2.519367    0.474144
      3          6           0       -1.486629    1.348512    0.446759
      4          6           0       -0.433970    1.210384   -0.475097
      5          6           0       -0.192888    2.235487   -1.397816
      6          6           0       -0.941805    3.412564   -1.354961
      7          6           0       -0.417880   -1.189617   -0.469365
      8          6           0       -1.468582   -1.337363    0.453187
      9          6           0       -2.219298   -2.518310    0.486174
     10          1           0       -3.041027   -2.613564    1.199214
     11          6           0       -1.918035   -3.557138   -0.395900
     12          6           0       -0.895948   -3.402570   -1.338669
     13          6           0       -0.162927   -2.215764   -1.387196
     14          1           0       -3.076148    2.606890    1.186728
     15          1           0        0.601304    2.103043   -2.134497
     16          1           0       -0.733145    4.213953   -2.067033
     17          1           0       -2.498707   -4.481636   -0.361725
     18          1           0       -0.676625   -4.204520   -2.046893
     19          6           0        1.692326    0.025680   -0.051024
     20          6           0        2.391414   -1.176811    0.177515
     21          6           0        3.725331   -1.158657    0.584578
     22          6           0        3.709052    1.240343    0.579135
     23          6           0        4.403146    0.045981    0.783403
     24          1           0        4.236905   -2.109705    0.753795
     25          1           0        4.207568    2.199061    0.743959
     26          1           0        1.889530   -2.134165    0.051743
     27          1           0        5.448104    0.053734    1.099740
     28          1           0       -2.558872    4.474739   -0.383109
     29          7           0        0.340059    0.015583   -0.466952
     30          1           0        0.629453   -2.076072   -2.124470
     31         16           0       -1.833705    0.005836    1.564355
     32          6           0        2.374986    1.238513    0.171997
     33          1           0        1.860230    2.188433    0.041957
 ---------------------------------------------------------------------
                    Distance matrix (angstroms):
                    1          2          3          4          5
     1  C    0.000000
     2  C    1.395722   0.000000
     3  C    2.418739   1.399726   0.000000
     4  C    2.803863   2.433922   1.406054   0.000000
     5  C    2.421246   2.798138   2.421352   1.400131   0.000000
     6  C    1.399044   2.421384   2.793446   2.425212   1.395788
     7  C    4.993880   4.244414   2.902345   2.400062   3.555837
     8  C    4.996146   3.935782   2.685943   2.902266   4.221240
     9  C    6.147640   5.037805   3.935819   4.244361   5.500395
    10  H    6.468573   5.243418   4.322081   4.921650   6.194333
    11  C    7.115267   6.147618   4.996157   4.993795   6.126538
    12  C    7.102858   6.340164   5.109739   4.715774   5.682031
    13  C    6.126631   5.500469   4.221332   3.555823   4.451364
    14  H    2.167035   1.092123   2.158157   3.419502   3.889858
    15  H    3.416289   3.889260   3.404653   2.149940   1.091321
    16  H    2.164742   3.411696   3.885568   3.412505   2.157326
    17  H    8.057384   7.054999   5.972317   6.055996   7.177049
    18  H    8.036666   7.351991   6.140893   5.643634   6.490685
    19  C    5.098067   4.696935   3.478998   2.470728   3.201738
    20  C    6.461616   5.943220   4.635619   3.755982   4.561147
    21  C    7.458627   7.020150   5.785276   4.902556   5.550004
    22  C    6.209685   6.098770   5.198493   4.275153   4.485954
    23  C    7.370851   7.107728   6.041470   5.131993   5.538518
    24  H    8.482801   7.976689   6.694205   5.860908   6.567586
    25  H    6.426217   6.474296   5.765036   4.899740   4.894133
    26  H    6.890586   6.244656   4.866572   4.106363   5.052875
    27  H    8.338743   8.110506   7.084727   6.198124   6.543594
    28  H    1.092265   2.156807   3.407592   3.896111   3.412002
    29  N    4.227125   3.725510   2.438925   1.423635   2.465464
    30  H    6.434855   6.015011   4.776693   3.827805   4.449024
    31  S    4.067495   2.771705   1.781084   2.751283   4.054390
    32  C    4.956302   4.811620   3.872940   2.882665   3.170528
    33  H    4.089196   4.149258   3.474305   2.547014   2.508078
                    6          7          8          9         10
     6  C    0.000000
     7  C    4.715808   0.000000
     8  C    5.109667   1.406025   0.000000
     9  C    6.340113   2.433842   1.399749   0.000000
    10  H    6.873482   3.419456   2.158200   1.092125   0.000000
    11  C    7.102786   2.803751   2.418751   1.395700   2.166987
    12  C    6.815308   2.425160   2.793517   2.421409   3.415369
    13  C    5.682057   1.400140   2.421432   2.798162   3.889887
    14  H    3.415364   4.921636   4.321977   5.243343   5.220587
    15  H    2.168803   3.827925   4.776707   6.015032   6.828366
    16  H    1.092158   5.643625   6.140805   7.351930   7.912628
    17  H    8.107333   3.896000   3.407593   2.156769   2.494060
    18  H    7.653042   3.412504   3.885638   3.411682   4.319577
    19  C    4.484404   2.470815   3.479002   4.696943   5.561774
    20  C    5.875474   2.882837   3.873156   4.811814   5.711352
    21  C    6.814692   4.275272   5.198647   6.098931   6.948247
    22  C    5.485412   4.902614   5.785181   7.020075   7.797478
    23  C    6.668957   5.132097   6.041512   7.107791   7.915920
    24  H    7.858839   4.899970   5.765367   6.474653   7.308937
    25  H    5.691581   5.860893   6.693991   7.976506   8.712677
    26  H    6.384472   2.547129   3.474618   4.149550   5.084969
    27  H    7.624843   6.198208   7.084753   8.110544   8.898861
    28  H    2.165091   6.056089   5.972324   7.055048   7.278754
    29  N    3.737809   1.423722   2.438914   3.725503   4.595679
    30  H    5.760740   2.149903   3.404667   3.889270   4.980783
    31  S    4.574242   2.751306   1.781065   2.771727   2.907269
    32  C    4.249612   3.755963   4.635431   5.943052   6.725092
    33  H    3.361737   4.106392   4.866347   6.244462   6.958501
                   11         12         13         14         15
    11  C    0.000000
    12  C    1.399059   0.000000
    13  C    2.421230   1.395773   0.000000
    14  H    6.468476   6.873464   6.194347   0.000000
    15  H    6.434861   5.760806   4.449112   4.980768   0.000000
    16  H    8.036573   7.653002   6.490654   4.319638   2.498249
    17  H    1.092266   2.165096   3.411984   7.278623   7.490713
    18  H    2.164712   1.092157   2.157368   7.912605   6.436313
    19  C    5.098061   4.484428   3.201779   5.561746   3.137933
    20  C    4.956421   4.249655   3.170552   6.725261   4.394011
    21  C    6.209801   5.485458   4.485969   7.797567   5.271774
    22  C    7.458594   6.814737   5.550077   6.948062   4.214991
    23  C    7.370926   6.669040   5.538593   7.915855   5.215328
    24  H    6.426519   5.691756   4.894243   8.712890   6.269535
    25  H    8.482695   7.858848   6.567627   7.308549   4.615178
    26  H    4.089351   3.361694   2.507944   6.958718   4.938937
    27  H    8.338785   7.624885   6.543634   8.898823   6.176684
    28  H    8.057412   8.107429   7.177156   2.494158   4.321923
    29  N    4.227100   3.737830   2.465513   4.595650   2.684482
    30  H    3.416315   2.168854   1.091308   6.828297   4.179222
    31  S    4.067492   4.574294   4.054462   2.907189   4.899903
    32  C    6.461486   5.875438   4.561153   5.711129   3.035338
    33  H    6.890471   6.384509   5.052979   5.084627   2.515778
                   16         17         18         19         20
    16  H    0.000000
    17  H    9.035406   0.000000
    18  H    8.418687   2.497312   0.000000
    19  C    5.242979   6.162564   5.243092   0.000000
    20  C    6.622779   5.926713   4.850554   1.409588   0.000000
    21  C    7.468198   7.118731   5.964825   2.437161   1.394763
    22  C    5.964702   8.494853   7.468381   2.437148   2.782104
    23  C    7.202670   8.333439   7.202875   2.836411   2.430923
    24  H    8.523328   7.227649   6.031159   3.417965   2.146678
    25  H    6.030930   9.530392   8.523500   3.417898   3.875021
    26  H    7.187923   4.993816   3.908426   2.171263   1.088225
    27  H    8.095907   9.265920   8.096069   3.928220   3.421709
    28  H    2.497376   8.956603   9.035517   6.162556   7.533900
    29  N    4.619344   5.319271   4.619430   1.414823   2.458699
    30  H    6.436178   4.321966   2.498429   3.137872   3.035179
    31  S    5.666256   4.928429   5.666308   3.878497   4.601479
    32  C    4.850462   7.533780   6.622870   1.409513   2.415386
    33  H    3.908473   7.978290   7.188100   2.171253   3.409604
                   21         22         23         24         25
    21  C    0.000000
    22  C    2.399061   0.000000
    23  C    1.396466   1.396421   0.000000
    24  H    1.093085   3.395873   2.162289   0.000000
    25  H    3.395913   1.093081   2.162304   4.308877   0.000000
    26  H    2.146088   3.869898   3.406850   2.450234   4.962793
    27  H    2.168693   2.168726   1.091818   2.503428   2.503585
    28  H    8.494868   7.118574   8.333327   9.530479   7.227289
    29  N    3.734250   3.734227   4.251234   4.603529   4.603423
    30  H    4.214861   5.271814   5.215323   4.615111   6.269574
    31  S    5.763583   5.763404   6.285683   6.479570   6.479218
    32  C    2.782100   1.394811   2.430922   3.875022   2.146660
    33  H    3.869890   2.146061   3.406797   4.962790   2.450085
                   26         27         28         29         30
    26  H    0.000000
    27  H    4.306814   0.000000
    28  H    7.978408   9.265840   0.000000
    29  N    2.700245   5.343042   5.319295   0.000000
    30  H    2.515367   6.176650   7.490720   2.684425   0.000000
    31  S    4.553030   7.296774   4.928446   2.975156   4.899890
    32  C    3.409558   3.421763   5.926572   2.458606   4.393987
    33  H    4.322708   4.306818   4.993630   2.700220   4.939051
                   31         32         33
    31  S    0.000000
    32  C    4.601221   0.000000
    33  H    4.552646   1.088224   0.000000
 Symmetry turned off by external request.
 Stoichiometry    C18H13NS
 Framework group  C1[X(C18H13NS)]
 Deg. of freedom    93
 Full point group                 C1      NOp   1
 Rotational constants (GHZ):      0.3749666      0.3439519      0.2142863
 Leave Link  202 at Sat Apr  3 20:11:19 2021, MaxMem=  5242880000 cpu:         0.1
 (Enter /opt/nce/packages/global/g09/l301.exe)
 Standard basis: def2TZVP (5D, 7F)
 Ernie: Thresh=  0.10000D-02 Tol=  0.10000D-05 Strict=F.
   704 basis functions,  1142 primitive gaussians,   804 cartesian basis functions
    72 alpha electrons       72 beta electrons
       nuclear repulsion energy      1561.5731074347 Hartrees.
 IExCor=    0 DFT=F Ex=HF Corr=None ExCW=0 ScaHFX=  1.000000
 ScaDFX=  1.000000  1.000000  1.000000  1.000000 ScalE2=  1.000000  1.000000
 IRadAn=      5 IRanWt=     -1 IRanGd=            0 ICorTp=0 IEmpDi=  4
 NAtoms=   33 NActive=   33 NUniq=   33 SFac= 1.00D+00 NAtFMM=   60 NAOKFM=F Big=F
 Integral buffers will be    131072 words long.
 Raffenetti 1 integral format.
 Two-electron integral symmetry is turned off.
 ------------------------------------------------------------------------------
 Polarizable Continuum Model (PCM)
 =================================
 Model                : PCM (using non-symmetric T matrix).
 Atomic radii         : SMD-Coulomb.
 Polarization charges : Total charges.
 Charge compensation  : None.
 Solution method      : On-the-fly selection.
 Cavity type          : VdW (van der Waals Surface) (Alpha=1.000).
 Cavity algorithm     : GePol (No added spheres)
                        Default sphere list used, NSphG=   33.
                        Lebedev-Laikov grids with approx.  5.0 points / Ang**2.
                        Smoothing algorithm: York/Karplus (Gamma=1.0000).
                        Polarization charges: spherical gaussians, with
                                              point-specific exponents (IZeta= 3).
                        Self-potential: point-specific (ISelfS= 7).
                        Self-field    : sphere-specific E.n sum rule (ISelfD= 2).
 1st derivatives      : Analytical E(r).r(x)/FMM algorithm (CHGder, D1EAlg=3).
                        Cavity 1st derivative terms included.
 Solvent              : n,n-DiMethylAcetamide, Eps=  37.781000 Eps(inf)=   2.067844
 ------------------------------------------------------------------------------
 GePol: Number of generator spheres                  =      33
 GePol: Total number of spheres                      =      33
 GePol: Number of exposed spheres                    =      33 (100.00%)
 GePol: Number of points                             =    2567
 GePol: Average weight of points                     =       0.11
 GePol: Minimum weight of points                     =   0.49D-11
 GePol: Maximum weight of points                     =    0.19854
 GePol: Number of points with low weight             =     142
 GePol: Fraction of low-weight points (<1% of avg)   =       5.53%
 GePol: Cavity surface area                          =    292.797 Ang**2
 GePol: Cavity volume                                =    293.541 Ang**3
 ------------------------------------------------------------------------------
 Atomic radii for non-electrostatic terms: SMD-CDS.
 ------------------------------------------------------------------------------
 PCM non-electrostatic energy =        -0.0051021016 Hartrees.
 Nuclear repulsion after PCM non-electrostatic terms =     1561.5680053331 Hartrees.
 Leave Link  301 at Sat Apr  3 20:11:19 2021, MaxMem=  5242880000 cpu:         1.4
 (Enter /opt/nce/packages/global/g09/l302.exe)
 NPDir=0 NMtPBC=     1 NCelOv=     1 NCel=       1 NClECP=     1 NCelD=      1
         NCelK=      1 NCelE2=     1 NClLst=     1 CellRange=     0.0.
 One-electron integrals computed using PRISM.
   1 Symmetry operations used in ECPInt.
 ECPInt:  NShTT=   37675 NPrTT=  118348 LenC2=   34059 LenP2D=   76440.
 LDataN:  DoStor=T MaxTD1= 6 Len=  172
 NBasis=   704 RedAO= T EigKep=  6.14D-06  NBF=   704
 NBsUse=   704 1.00D-06 EigRej= -1.00D+00 NBFU=   704
 Leave Link  302 at Sat Apr  3 20:11:20 2021, MaxMem=  5242880000 cpu:        11.2
 (Enter /opt/nce/packages/global/g09/l303.exe)
 DipDrv:  MaxL=1.
 Leave Link  303 at Sat Apr  3 20:11:20 2021, MaxMem=  5242880000 cpu:         1.5
 (Enter /opt/nce/packages/global/g09/l401.exe)
 ExpMin= 9.52D-02 ExpMax= 6.07D+04 ExpMxC= 2.07D+03 IAcc=3 IRadAn=         5 AccDes= 0.00D+00
 Harris functional with IExCor=  205 and IRadAn=       5 diagonalized for initial guess.
 HarFok:  IExCor=  205 AccDes= 0.00D+00 IRadAn=         5 IDoV= 1 UseB2=F ITyADJ=14
 ICtDFT=  3500011 ScaDFX=  1.000000  1.000000  1.000000  1.000000
 FoFCou: FMM=F IPFlag=           0 FMFlag=      100000 FMFlg1=           0
         NFxFlg=           0 DoJE=T BraDBF=F KetDBF=T FulRan=T
         wScrn=  0.000000 ICntrl=     500 IOpCl=  0 I1Cent=   200000004 NGrid=           0
         NMat0=    1 NMatS0=      1 NMatT0=    0 NMatD0=    1 NMtDS0=    0 NMtDT0=    0
 Symmetry not used in FoFCou.
 Harris En= -1142.13439065347    
 JPrj=0 DoOrth=F DoCkMO=F.
 Leave Link  401 at Sat Apr  3 20:11:24 2021, MaxMem=  5242880000 cpu:        39.8
 (Enter /opt/nce/packages/global/g09/l502.exe)
 Closed shell SCF:
 Using DIIS extrapolation, IDIIS=  1040.
 Two-electron integral symmetry not used.
 IVT=     1972336 IEndB=     1972336 NGot=  5242880000 MDV=  5241571525
 LenX=  5241571525 LenY=  5240924305
 Requested convergence on RMS density matrix=1.00D-08 within 128 cycles.
 Requested convergence on MAX density matrix=1.00D-06.
 Requested convergence on             energy=1.00D-06.
 No special actions if energy rises.
 Fock matrices will be formed incrementally for  20 cycles.

 Cycle   1  Pass 1  IDiag  1:
 FoFJK:  IHMeth= 1 ICntrl=       0 DoSepK=F KAlg= 0 I1Cent=   0 FoldK=F
 IRaf= 810000000 NMat=   1 IRICut=       1 DoRegI=T DoRafI=F ISym2E= 0.
 FoFCou: FMM=F IPFlag=           0 FMFlag=      100000 FMFlg1=           0
         NFxFlg=           0 DoJE=F BraDBF=F KetDBF=F FulRan=T
         wScrn=  0.000000 ICntrl=       0 IOpCl=  0 I1Cent=           0 NGrid=           0
         NMat0=    1 NMatS0=      1 NMatT0=    0 NMatD0=    1 NMtDS0=    0 NMtDT0=    0
 Symmetry not used in FoFCou.
 Inv3:  Mode=1 IEnd=    19768467.
 Iteration    1 A*A^-1 deviation from unit magnitude is 8.33D-15 for   2556.
 Iteration    1 A*A^-1 deviation from orthogonality  is 2.42D-15 for   2563   2447.
 Iteration    1 A^-1*A deviation from unit magnitude is 8.22D-15 for   2556.
 Iteration    1 A^-1*A deviation from orthogonality  is 1.98D-06 for   2308   2284.
 Iteration    2 A*A^-1 deviation from unit magnitude is 3.11D-15 for    210.
 Iteration    2 A*A^-1 deviation from orthogonality  is 3.37D-15 for    981    566.
 Iteration    2 A^-1*A deviation from unit magnitude is 1.22D-15 for    618.
 Iteration    2 A^-1*A deviation from orthogonality  is 8.19D-16 for   2549   1877.
 E= -1140.55387038362    
 DIIS: error= 3.84D-02 at cycle   1 NSaved=   1.
 NSaved= 1 IEnMin= 1 EnMin= -1140.55387038362     IErMin= 1 ErrMin= 3.84D-02
 ErrMax= 3.84D-02  0.00D+00 EMaxC= 1.00D-01 BMatC= 1.70D+00 BMatP= 1.70D+00
 IDIUse=3 WtCom= 6.16D-01 WtEn= 3.84D-01
 Coeff-Com:  0.100D+01
 Coeff-En:   0.100D+01
 Coeff:      0.100D+01
 Gap=     0.552 Goal=   None    Shift=    0.000
 GapD=    0.552 DampG=2.000 DampE=0.500 DampFc=1.0000 IDamp=-1.
 RMSDP=2.03D-03 MaxDP=1.08D-01              OVMax= 2.02D-01

 Cycle   2  Pass 1  IDiag  1:
 RMSU=  1.88D-03    CP:  8.92D-01
 E= -1141.30047779400     Delta-E=       -0.746607410377 Rises=F Damp=F
 DIIS: error= 1.59D-02 at cycle   2 NSaved=   2.
 NSaved= 2 IEnMin= 2 EnMin= -1141.30047779400     IErMin= 2 ErrMin= 1.59D-02
 ErrMax= 1.59D-02  0.00D+00 EMaxC= 1.00D-01 BMatC= 1.56D-01 BMatP= 1.70D+00
 IDIUse=3 WtCom= 8.41D-01 WtEn= 1.59D-01
 Coeff-Com:  0.142D+00 0.858D+00
 Coeff-En:   0.000D+00 0.100D+01
 Coeff:      0.120D+00 0.880D+00
 Gap=     0.459 Goal=   None    Shift=    0.000
 RMSDP=9.08D-04 MaxDP=7.93D-02 DE=-7.47D-01 OVMax= 6.95D-02

 Cycle   3  Pass 1  IDiag  1:
 RMSU=  8.60D-04    CP:  9.02D-01  8.50D-01
 E= -1141.42325668164     Delta-E=       -0.122778887645 Rises=F Damp=F
 DIIS: error= 6.39D-03 at cycle   3 NSaved=   3.
 NSaved= 3 IEnMin= 3 EnMin= -1141.42325668164     IErMin= 3 ErrMin= 6.39D-03
 ErrMax= 6.39D-03  0.00D+00 EMaxC= 1.00D-01 BMatC= 2.55D-02 BMatP= 1.56D-01
 IDIUse=3 WtCom= 9.36D-01 WtEn= 6.39D-02
 Coeff-Com: -0.179D-01 0.260D+00 0.758D+00
 Coeff-En:   0.000D+00 0.000D+00 0.100D+01
 Coeff:     -0.167D-01 0.244D+00 0.773D+00
 Gap=     0.397 Goal=   None    Shift=    0.000
 RMSDP=2.79D-04 MaxDP=1.51D-02 DE=-1.23D-01 OVMax= 4.47D-02

 Cycle   4  Pass 1  IDiag  1:
 RMSU=  2.29D-04    CP:  8.96D-01  9.16D-01  9.00D-01
 E= -1141.44758156573     Delta-E=       -0.024324884088 Rises=F Damp=F
 DIIS: error= 1.41D-03 at cycle   4 NSaved=   4.
 NSaved= 4 IEnMin= 4 EnMin= -1141.44758156573     IErMin= 4 ErrMin= 1.41D-03
 ErrMax= 1.41D-03  0.00D+00 EMaxC= 1.00D-01 BMatC= 1.52D-03 BMatP= 2.55D-02
 IDIUse=3 WtCom= 9.86D-01 WtEn= 1.41D-02
 Coeff-Com: -0.986D-02 0.490D-01 0.256D+00 0.705D+00
 Coeff-En:   0.000D+00 0.000D+00 0.000D+00 0.100D+01
 Coeff:     -0.972D-02 0.483D-01 0.253D+00 0.709D+00
 Gap=     0.388 Goal=   None    Shift=    0.000
 RMSDP=9.64D-05 MaxDP=4.07D-03 DE=-2.43D-02 OVMax= 7.80D-03

 Cycle   5  Pass 1  IDiag  1:
 RMSU=  7.55D-05    CP:  8.96D-01  9.14D-01  9.68D-01  9.69D-01
 E= -1141.44916164780     Delta-E=       -0.001580082071 Rises=F Damp=F
 DIIS: error= 2.97D-04 at cycle   5 NSaved=   5.
 NSaved= 5 IEnMin= 5 EnMin= -1141.44916164780     IErMin= 5 ErrMin= 2.97D-04
 ErrMax= 2.97D-04  0.00D+00 EMaxC= 1.00D-01 BMatC= 6.52D-05 BMatP= 1.52D-03
 IDIUse=3 WtCom= 9.97D-01 WtEn= 2.97D-03
 Coeff-Com:  0.126D-02-0.232D-01-0.595D-01 0.113D-01 0.107D+01
 Coeff-En:   0.000D+00 0.000D+00 0.000D+00 0.000D+00 0.100D+01
 Coeff:      0.125D-02-0.232D-01-0.593D-01 0.113D-01 0.107D+01
 Gap=     0.388 Goal=   None    Shift=    0.000
 RMSDP=6.89D-05 MaxDP=3.36D-03 DE=-1.58D-03 OVMax= 5.80D-03

 Cycle   6  Pass 1  IDiag  1:
 RMSU=  3.07D-05    CP:  8.97D-01  9.11D-01  1.02D+00  1.10D+00  1.44D+00
 E= -1141.44934839922     Delta-E=       -0.000186751418 Rises=F Damp=F
 DIIS: error= 9.69D-05 at cycle   6 NSaved=   6.
 NSaved= 6 IEnMin= 6 EnMin= -1141.44934839922     IErMin= 6 ErrMin= 9.69D-05
 ErrMax= 9.69D-05  0.00D+00 EMaxC= 1.00D-01 BMatC= 9.12D-06 BMatP= 6.52D-05
 IDIUse=1 WtCom= 1.00D+00 WtEn= 0.00D+00
 Coeff-Com:  0.813D-03-0.656D-02-0.234D-01-0.675D-01 0.942D-01 0.100D+01
 Coeff:      0.813D-03-0.656D-02-0.234D-01-0.675D-01 0.942D-01 0.100D+01
 Gap=     0.389 Goal=   None    Shift=    0.000
 RMSDP=3.01D-05 MaxDP=1.49D-03 DE=-1.87D-04 OVMax= 2.29D-03

 Cycle   7  Pass 1  IDiag  1:
 RMSU=  7.36D-06    CP:  8.98D-01  9.09D-01  1.04D+00  1.14D+00  1.68D+00
                    CP:  1.41D+00
 E= -1141.44937496063     Delta-E=       -0.000026561408 Rises=F Damp=F
 DIIS: error= 4.58D-05 at cycle   7 NSaved=   7.
 NSaved= 7 IEnMin= 7 EnMin= -1141.44937496063     IErMin= 7 ErrMin= 4.58D-05
 ErrMax= 4.58D-05  0.00D+00 EMaxC= 1.00D-01 BMatC= 1.30D-06 BMatP= 9.12D-06
 IDIUse=1 WtCom= 1.00D+00 WtEn= 0.00D+00
 Coeff-Com: -0.477D-04 0.185D-02 0.508D-02-0.116D-01-0.104D+00 0.611D-01
 Coeff-Com:  0.105D+01
 Coeff:     -0.477D-04 0.185D-02 0.508D-02-0.116D-01-0.104D+00 0.611D-01
 Coeff:      0.105D+01
 Gap=     0.389 Goal=   None    Shift=    0.000
 RMSDP=1.42D-05 MaxDP=6.87D-04 DE=-2.66D-05 OVMax= 1.10D-03

 Cycle   8  Pass 1  IDiag  1:
 RMSU=  2.20D-06    CP:  8.98D-01  9.08D-01  1.04D+00  1.15D+00  1.78D+00
                    CP:  1.66D+00  1.54D+00
 E= -1141.44937964494     Delta-E=       -0.000004684310 Rises=F Damp=F
 DIIS: error= 2.64D-05 at cycle   8 NSaved=   8.
 NSaved= 8 IEnMin= 8 EnMin= -1141.44937964494     IErMin= 8 ErrMin= 2.64D-05
 ErrMax= 2.64D-05  0.00D+00 EMaxC= 1.00D-01 BMatC= 2.42D-07 BMatP= 1.30D-06
 IDIUse=1 WtCom= 1.00D+00 WtEn= 0.00D+00
 Coeff-Com: -0.142D-03 0.134D-02 0.491D-02 0.104D-01-0.181D-01-0.175D+00
 Coeff-Com:  0.495D-01 0.113D+01
 Coeff:     -0.142D-03 0.134D-02 0.491D-02 0.104D-01-0.181D-01-0.175D+00
 Coeff:      0.495D-01 0.113D+01
 Gap=     0.389 Goal=   None    Shift=    0.000
 RMSDP=6.36D-06 MaxDP=2.74D-04 DE=-4.68D-06 OVMax= 4.93D-04

 Cycle   9  Pass 1  IDiag  1:
 RMSU=  1.08D-06    CP:  8.98D-01  9.07D-01  1.05D+00  1.15D+00  1.82D+00
                    CP:  1.77D+00  1.87D+00  1.45D+00
 E= -1141.44938064622     Delta-E=       -0.000001001280 Rises=F Damp=F
 DIIS: error= 1.10D-05 at cycle   9 NSaved=   9.
 NSaved= 9 IEnMin= 9 EnMin= -1141.44938064622     IErMin= 9 ErrMin= 1.10D-05
 ErrMax= 1.10D-05  0.00D+00 EMaxC= 1.00D-01 BMatC= 3.77D-08 BMatP= 2.42D-07
 IDIUse=1 WtCom= 1.00D+00 WtEn= 0.00D+00
 Coeff-Com: -0.112D-04-0.105D-03-0.186D-03 0.234D-02 0.112D-01-0.143D-01
 Coeff-Com: -0.141D+00 0.783D-01 0.106D+01
 Coeff:     -0.112D-04-0.105D-03-0.186D-03 0.234D-02 0.112D-01-0.143D-01
 Coeff:     -0.141D+00 0.783D-01 0.106D+01
 Gap=     0.389 Goal=   None    Shift=    0.000
 RMSDP=1.43D-06 MaxDP=6.73D-05 DE=-1.00D-06 OVMax= 1.84D-04

 Cycle  10  Pass 1  IDiag  1:
 RMSU=  4.43D-07    CP:  8.99D-01  9.07D-01  1.05D+00  1.15D+00  1.83D+00
                    CP:  1.79D+00  1.96D+00  1.72D+00  1.40D+00
 E= -1141.44938083573     Delta-E=       -0.000000189517 Rises=F Damp=F
 DIIS: error= 6.92D-06 at cycle  10 NSaved=  10.
 NSaved=10 IEnMin=10 EnMin= -1141.44938083573     IErMin=10 ErrMin= 6.92D-06
 ErrMax= 6.92D-06  0.00D+00 EMaxC= 1.00D-01 BMatC= 1.11D-08 BMatP= 3.77D-08
 IDIUse=1 WtCom= 1.00D+00 WtEn= 0.00D+00
 Coeff-Com:  0.352D-04-0.327D-03-0.124D-02-0.254D-02 0.272D-02 0.458D-01
 Coeff-Com: -0.518D-02-0.275D+00-0.871D-01 0.132D+01
 Coeff:      0.352D-04-0.327D-03-0.124D-02-0.254D-02 0.272D-02 0.458D-01
 Coeff:     -0.518D-02-0.275D+00-0.871D-01 0.132D+01
 Gap=     0.389 Goal=   None    Shift=    0.000
 RMSDP=6.52D-07 MaxDP=2.71D-05 DE=-1.90D-07 OVMax= 1.20D-04

 Cycle  11  Pass 1  IDiag  1:
 RMSU=  2.12D-07    CP:  8.99D-01  9.07D-01  1.05D+00  1.15D+00  1.83D+00
                    CP:  1.79D+00  1.98D+00  1.84D+00  1.78D+00  1.60D+00
 E= -1141.44938090276     Delta-E=       -0.000000067024 Rises=F Damp=F
 DIIS: error= 2.49D-06 at cycle  11 NSaved=  11.
 NSaved=11 IEnMin=11 EnMin= -1141.44938090276     IErMin=11 ErrMin= 2.49D-06
 ErrMax= 2.49D-06  0.00D+00 EMaxC= 1.00D-01 BMatC= 1.78D-09 BMatP= 1.11D-08
 IDIUse=1 WtCom= 1.00D+00 WtEn= 0.00D+00
 Coeff-Com:  0.401D-05 0.183D-04 0.345D-04-0.408D-03-0.295D-02 0.357D-02
 Coeff-Com:  0.337D-01-0.833D-02-0.244D+00-0.774D-01 0.130D+01
 Coeff:      0.401D-05 0.183D-04 0.345D-04-0.408D-03-0.295D-02 0.357D-02
 Coeff:      0.337D-01-0.833D-02-0.244D+00-0.774D-01 0.130D+01
 Gap=     0.389 Goal=   None    Shift=    0.000
 RMSDP=2.86D-07 MaxDP=7.92D-06 DE=-6.70D-08 OVMax= 6.13D-05

 Cycle  12  Pass 1  IDiag  1:
 RMSU=  7.96D-08    CP:  8.99D-01  9.07D-01  1.05D+00  1.15D+00  1.83D+00
                    CP:  1.79D+00  1.97D+00  1.87D+00  1.89D+00  1.97D+00
                    CP:  1.70D+00
 E= -1141.44938091459     Delta-E=       -0.000000011835 Rises=F Damp=F
 DIIS: error= 6.69D-07 at cycle  12 NSaved=  12.
 NSaved=12 IEnMin=12 EnMin= -1141.44938091459     IErMin=12 ErrMin= 6.69D-07
 ErrMax= 6.69D-07  0.00D+00 EMaxC= 1.00D-01 BMatC= 1.74D-10 BMatP= 1.78D-09
 IDIUse=1 WtCom= 1.00D+00 WtEn= 0.00D+00
 Coeff-Com: -0.421D-05 0.436D-04 0.166D-03 0.356D-03-0.731D-03-0.548D-02
 Coeff-Com:  0.228D-02 0.337D-01-0.250D-02-0.185D+00 0.105D+00 0.105D+01
 Coeff:     -0.421D-05 0.436D-04 0.166D-03 0.356D-03-0.731D-03-0.548D-02
 Coeff:      0.228D-02 0.337D-01-0.250D-02-0.185D+00 0.105D+00 0.105D+01
 Gap=     0.389 Goal=   None    Shift=    0.000
 RMSDP=8.11D-08 MaxDP=2.54D-06 DE=-1.18D-08 OVMax= 1.42D-05

 Cycle  13  Pass 1  IDiag  1:
 RMSU=  2.77D-08    CP:  8.99D-01  9.07D-01  1.05D+00  1.15D+00  1.83D+00
                    CP:  1.79D+00  1.97D+00  1.87D+00  1.89D+00  2.02D+00
                    CP:  1.97D+00  1.40D+00
 E= -1141.44938091535     Delta-E=       -0.000000000754 Rises=F Damp=F
 DIIS: error= 2.63D-07 at cycle  13 NSaved=  13.
 NSaved=13 IEnMin=13 EnMin= -1141.44938091535     IErMin=13 ErrMin= 2.63D-07
 ErrMax= 2.63D-07  0.00D+00 EMaxC= 1.00D-01 BMatC= 1.94D-11 BMatP= 1.74D-10
 IDIUse=1 WtCom= 1.00D+00 WtEn= 0.00D+00
 Coeff-Com: -0.383D-06-0.191D-05-0.519D-05 0.419D-04 0.254D-03-0.135D-03
 Coeff-Com: -0.352D-02 0.274D-03 0.259D-01 0.692D-02-0.133D+00 0.220D-02
 Coeff-Com:  0.110D+01
 Coeff:     -0.383D-06-0.191D-05-0.519D-05 0.419D-04 0.254D-03-0.135D-03
 Coeff:     -0.352D-02 0.274D-03 0.259D-01 0.692D-02-0.133D+00 0.220D-02
 Coeff:      0.110D+01
 Gap=     0.389 Goal=   None    Shift=    0.000
 RMSDP=3.50D-08 MaxDP=1.61D-06 DE=-7.54D-10 OVMax= 3.20D-06

 Cycle  14  Pass 1  IDiag  1:
 RMSU=  1.11D-08    CP:  8.99D-01  9.07D-01  1.05D+00  1.15D+00  1.83D+00
                    CP:  1.79D+00  1.97D+00  1.87D+00  1.89D+00  2.02D+00
                    CP:  2.02D+00  1.58D+00  1.47D+00
 E= -1141.44938091540     Delta-E=       -0.000000000049 Rises=F Damp=F
 DIIS: error= 1.40D-07 at cycle  14 NSaved=  14.
 NSaved=14 IEnMin=14 EnMin= -1141.44938091540     IErMin=14 ErrMin= 1.40D-07
 ErrMax= 1.40D-07  0.00D+00 EMaxC= 1.00D-01 BMatC= 3.30D-12 BMatP= 1.94D-11
 IDIUse=1 WtCom= 1.00D+00 WtEn= 0.00D+00
 Coeff-Com:  0.576D-06-0.650D-05-0.250D-04-0.484D-04 0.124D-03 0.819D-03
 Coeff-Com: -0.637D-03-0.491D-02 0.185D-02 0.283D-01-0.227D-01-0.157D+00
 Coeff-Com:  0.794D-01 0.107D+01
 Coeff:      0.576D-06-0.650D-05-0.250D-04-0.484D-04 0.124D-03 0.819D-03
 Coeff:     -0.637D-03-0.491D-02 0.185D-02 0.283D-01-0.227D-01-0.157D+00
 Coeff:      0.794D-01 0.107D+01
 Gap=     0.389 Goal=   None    Shift=    0.000
 RMSDP=1.67D-08 MaxDP=7.98D-07 DE=-4.91D-11 OVMax= 1.70D-06

 Cycle  15  Pass 1  IDiag  1:
 RMSU=  4.02D-09    CP:  8.99D-01  9.07D-01  1.05D+00  1.15D+00  1.83D+00
                    CP:  1.79D+00  1.97D+00  1.87D+00  1.89D+00  2.01D+00
                    CP:  2.02D+00  1.62D+00  1.72D+00  1.50D+00
 E= -1141.44938091542     Delta-E=       -0.000000000021 Rises=F Damp=F
 DIIS: error= 6.69D-08 at cycle  15 NSaved=  15.
 NSaved=15 IEnMin=15 EnMin= -1141.44938091542     IErMin=15 ErrMin= 6.69D-08
 ErrMax= 6.69D-08  0.00D+00 EMaxC= 1.00D-01 BMatC= 7.20D-13 BMatP= 3.30D-12
 IDIUse=1 WtCom= 1.00D+00 WtEn= 0.00D+00
 Coeff-Com: -0.881D-07 0.206D-05 0.782D-05 0.410D-05-0.810D-04-0.175D-03
 Coeff-Com:  0.832D-03 0.128D-02-0.574D-02-0.769D-02 0.319D-01 0.288D-01
 Coeff-Com: -0.222D+00-0.208D+00 0.138D+01
 Coeff:     -0.881D-07 0.206D-05 0.782D-05 0.410D-05-0.810D-04-0.175D-03
 Coeff:      0.832D-03 0.128D-02-0.574D-02-0.769D-02 0.319D-01 0.288D-01
 Coeff:     -0.222D+00-0.208D+00 0.138D+01
 Gap=     0.389 Goal=   None    Shift=    0.000
 RMSDP=7.08D-09 MaxDP=2.10D-07 DE=-2.09D-11 OVMax= 1.04D-06

 Error on total polarization charges =  0.05640
 SCF Done:  E(RHF) =  -1141.44938092     A.U. after   15 cycles
            NFock= 15  Conv=0.71D-08     -V/T= 2.0011
 KE= 1.140155593335D+03 PE=-5.803031473160D+03 EE= 1.959858493577D+03
 SMD-CDS (non-electrostatic) energy       (kcal/mol) =      -3.20
 (included in total energy above)
 Leave Link  502 at Sat Apr  3 20:21:42 2021, MaxMem=  5242880000 cpu:      7408.8
 (Enter /opt/nce/packages/global/g09/l601.exe)
 Copying SCF densities to generalized density rwf, IOpCl= 0 IROHF=0.

 **********************************************************************

            Population analysis using the SCF density.

 **********************************************************************

 Alpha  occ. eigenvalues --  -91.96955 -15.59083 -11.29175 -11.28537 -11.28536
 Alpha  occ. eigenvalues --  -11.27489 -11.27488 -11.24473 -11.24473 -11.24086
 Alpha  occ. eigenvalues --  -11.24085 -11.23979 -11.23979 -11.23875 -11.23874
 Alpha  occ. eigenvalues --  -11.23654 -11.23650 -11.22632 -11.22630 -11.22239
 Alpha  occ. eigenvalues --   -8.97341  -6.65490  -6.65419  -6.65341  -1.29190
 Alpha  occ. eigenvalues --   -1.16247  -1.16063  -1.13165  -1.07627  -1.03261
 Alpha  occ. eigenvalues --   -1.02251  -1.02019  -1.00858  -0.98044  -0.92532
 Alpha  occ. eigenvalues --   -0.85304  -0.85291  -0.82341  -0.81499  -0.80855
 Alpha  occ. eigenvalues --   -0.77035  -0.71944  -0.71786  -0.67617  -0.65842
 Alpha  occ. eigenvalues --   -0.65797  -0.64253  -0.63280  -0.61819  -0.61106
 Alpha  occ. eigenvalues --   -0.60584  -0.59046  -0.58043  -0.57879  -0.55679
 Alpha  occ. eigenvalues --   -0.55023  -0.52680  -0.51655  -0.51257  -0.51077
 Alpha  occ. eigenvalues --   -0.50544  -0.48955  -0.48114  -0.46815  -0.44539
 Alpha  occ. eigenvalues --   -0.41825  -0.34928  -0.34900  -0.34085  -0.33591
 Alpha  occ. eigenvalues --   -0.30862  -0.28559
 Alpha virt. eigenvalues --    0.10354   0.10854   0.10906   0.11189   0.13538
 Alpha virt. eigenvalues --    0.14027   0.15739   0.16186   0.17228   0.18111
 Alpha virt. eigenvalues --    0.18295   0.18623   0.19197   0.20202   0.20315
 Alpha virt. eigenvalues --    0.21337   0.21723   0.22221   0.23200   0.23595
 Alpha virt. eigenvalues --    0.23742   0.24410   0.26072   0.28505   0.28630
 Alpha virt. eigenvalues --    0.28849   0.29555   0.30354   0.31161   0.31642
 Alpha virt. eigenvalues --    0.32241   0.32886   0.32919   0.33535   0.33605
 Alpha virt. eigenvalues --    0.34461   0.34899   0.35395   0.35782   0.36110
 Alpha virt. eigenvalues --    0.36583   0.36691   0.37898   0.38267   0.38875
 Alpha virt. eigenvalues --    0.39797   0.39815   0.40782   0.41088   0.41971
 Alpha virt. eigenvalues --    0.42831   0.43646   0.44170   0.44476   0.44487
 Alpha virt. eigenvalues --    0.45102   0.46346   0.46491   0.46788   0.47875
 Alpha virt. eigenvalues --    0.48275   0.49083   0.49206   0.49906   0.50264
 Alpha virt. eigenvalues --    0.51178   0.51259   0.51935   0.52699   0.52985
 Alpha virt. eigenvalues --    0.53860   0.54164   0.54851   0.55260   0.55535
 Alpha virt. eigenvalues --    0.55709   0.55992   0.56371   0.57038   0.57069
 Alpha virt. eigenvalues --    0.57944   0.58393   0.58518   0.59354   0.59643
 Alpha virt. eigenvalues --    0.60369   0.60538   0.61417   0.61488   0.61956
 Alpha virt. eigenvalues --    0.62145   0.62962   0.64113   0.64311   0.64628
 Alpha virt. eigenvalues --    0.64713   0.65776   0.66474   0.66696   0.67578
 Alpha virt. eigenvalues --    0.68014   0.69168   0.70241   0.71346   0.72015
 Alpha virt. eigenvalues --    0.72837   0.73302   0.73482   0.74173   0.75510
 Alpha virt. eigenvalues --    0.76468   0.77573   0.77843   0.78824   0.79255
 Alpha virt. eigenvalues --    0.80199   0.82055   0.83056   0.83827   0.83828
 Alpha virt. eigenvalues --    0.85293   0.86055   0.86328   0.86771   0.88082
 Alpha virt. eigenvalues --    0.88226   0.88986   0.89662   0.90094   0.90571
 Alpha virt. eigenvalues --    0.91685   0.92116   0.93015   0.93141   0.93167
 Alpha virt. eigenvalues --    0.93761   0.94455   0.95531   0.96239   0.96260
 Alpha virt. eigenvalues --    0.97864   0.98476   0.99346   1.00316   1.00420
 Alpha virt. eigenvalues --    1.02324   1.03294   1.04316   1.04361   1.04662
 Alpha virt. eigenvalues --    1.04949   1.06912   1.07272   1.07330   1.08248
 Alpha virt. eigenvalues --    1.08258   1.08628   1.09287   1.10389   1.10829
 Alpha virt. eigenvalues --    1.11871   1.12301   1.13933   1.15524   1.15742
 Alpha virt. eigenvalues --    1.16266   1.17521   1.17760   1.20461   1.21589
 Alpha virt. eigenvalues --    1.22553   1.23321   1.23323   1.25460   1.26096
 Alpha virt. eigenvalues --    1.27140   1.27945   1.29285   1.30775   1.30989
 Alpha virt. eigenvalues --    1.33106   1.33391   1.33779   1.35554   1.35896
 Alpha virt. eigenvalues --    1.37125   1.37587   1.39617   1.40598   1.41413
 Alpha virt. eigenvalues --    1.42162   1.42550   1.44359   1.44723   1.44954
 Alpha virt. eigenvalues --    1.45284   1.46659   1.48066   1.48330   1.48642
 Alpha virt. eigenvalues --    1.48701   1.50905   1.51440   1.51724   1.52327
 Alpha virt. eigenvalues --    1.53288   1.53356   1.54360   1.56785   1.56839
 Alpha virt. eigenvalues --    1.57035   1.59279   1.60130   1.62612   1.63245
 Alpha virt. eigenvalues --    1.64013   1.65173   1.67351   1.67516   1.68942
 Alpha virt. eigenvalues --    1.69836   1.71417   1.71608   1.72309   1.73315
 Alpha virt. eigenvalues --    1.74232   1.75026   1.75058   1.75716   1.76208
 Alpha virt. eigenvalues --    1.76921   1.78830   1.79382   1.80529   1.81476
 Alpha virt. eigenvalues --    1.81878   1.82142   1.83123   1.84344   1.85283
 Alpha virt. eigenvalues --    1.85557   1.86882   1.87627   1.87642   1.89273
 Alpha virt. eigenvalues --    1.89615   1.90626   1.91699   1.91770   1.92532
 Alpha virt. eigenvalues --    1.93164   1.93690   1.94522   1.95805   1.96007
 Alpha virt. eigenvalues --    1.96563   1.98685   1.99738   1.99751   2.00720
 Alpha virt. eigenvalues --    2.00861   2.01712   2.01861   2.01880   2.02929
 Alpha virt. eigenvalues --    2.04334   2.04873   2.05575   2.06621   2.07349
 Alpha virt. eigenvalues --    2.08579   2.10439   2.10624   2.12411   2.13085
 Alpha virt. eigenvalues --    2.15188   2.15412   2.16929   2.17746   2.18087
 Alpha virt. eigenvalues --    2.18121   2.20799   2.20867   2.21684   2.23320
 Alpha virt. eigenvalues --    2.23926   2.24988   2.25460   2.27098   2.29216
 Alpha virt. eigenvalues --    2.29818   2.29972   2.31013   2.33265   2.33709
 Alpha virt. eigenvalues --    2.35150   2.35973   2.36577   2.37386   2.39479
 Alpha virt. eigenvalues --    2.39874   2.41281   2.41412   2.42391   2.43859
 Alpha virt. eigenvalues --    2.44847   2.46837   2.47904   2.48330   2.48922
 Alpha virt. eigenvalues --    2.50218   2.51615   2.52391   2.52484   2.53930
 Alpha virt. eigenvalues --    2.53991   2.56007   2.56283   2.56746   2.57370
 Alpha virt. eigenvalues --    2.57687   2.60681   2.61280   2.65443   2.65905
 Alpha virt. eigenvalues --    2.69994   2.71217   2.73386   2.73795   2.74240
 Alpha virt. eigenvalues --    2.74753   2.75357   2.80085   2.80181   2.81867
 Alpha virt. eigenvalues --    2.82310   2.83311   2.83379   2.84335   2.85487
 Alpha virt. eigenvalues --    2.88235   2.89190   2.90382   2.90633   2.90731
 Alpha virt. eigenvalues --    2.91373   2.92002   2.92971   2.94074   2.94368
 Alpha virt. eigenvalues --    2.94954   2.96209   2.96339   2.96495   2.98162
 Alpha virt. eigenvalues --    2.98792   2.99351   2.99560   2.99800   3.00143
 Alpha virt. eigenvalues --    3.01164   3.01212   3.01733   3.03744   3.03891
 Alpha virt. eigenvalues --    3.04469   3.04586   3.05496   3.05685   3.06795
 Alpha virt. eigenvalues --    3.06995   3.07134   3.08039   3.08971   3.09029
 Alpha virt. eigenvalues --    3.10248   3.10575   3.11966   3.12582   3.12956
 Alpha virt. eigenvalues --    3.14753   3.15224   3.15333   3.16120   3.16188
 Alpha virt. eigenvalues --    3.17224   3.17916   3.18282   3.18699   3.19408
 Alpha virt. eigenvalues --    3.20569   3.21556   3.21677   3.23048   3.23499
 Alpha virt. eigenvalues --    3.23849   3.24719   3.26303   3.26955   3.27385
 Alpha virt. eigenvalues --    3.27527   3.28551   3.30689   3.31075   3.31976
 Alpha virt. eigenvalues --    3.34726   3.36297   3.37215   3.38300   3.38493
 Alpha virt. eigenvalues --    3.40278   3.40314   3.41865   3.42600   3.44320
 Alpha virt. eigenvalues --    3.44590   3.45066   3.45678   3.46383   3.46900
 Alpha virt. eigenvalues --    3.46929   3.48184   3.48661   3.49313   3.49808
 Alpha virt. eigenvalues --    3.50287   3.50651   3.50714   3.52057   3.52089
 Alpha virt. eigenvalues --    3.53399   3.53577   3.54749   3.55242   3.55732
 Alpha virt. eigenvalues --    3.58627   3.59236   3.59585   3.59629   3.61518
 Alpha virt. eigenvalues --    3.62643   3.63249   3.64293   3.64333   3.65940
 Alpha virt. eigenvalues --    3.66287   3.66995   3.67408   3.68138   3.68295
 Alpha virt. eigenvalues --    3.68739   3.68795   3.69554   3.71551   3.72014
 Alpha virt. eigenvalues --    3.72064   3.72769   3.73220   3.74202   3.75169
 Alpha virt. eigenvalues --    3.75769   3.76263   3.76538   3.77580   3.79029
 Alpha virt. eigenvalues --    3.79944   3.80674   3.81126   3.81485   3.82166
 Alpha virt. eigenvalues --    3.82648   3.84395   3.84675   3.85372   3.86858
 Alpha virt. eigenvalues --    3.87067   3.87272   3.88395   3.89068   3.89985
 Alpha virt. eigenvalues --    3.90019   3.90343   3.90655   3.91546   3.91847
 Alpha virt. eigenvalues --    3.94469   3.94958   3.96117   3.96158   4.00178
 Alpha virt. eigenvalues --    4.00645   4.03141   4.04412   4.05157   4.05337
 Alpha virt. eigenvalues --    4.06907   4.07131   4.08660   4.09220   4.11884
 Alpha virt. eigenvalues --    4.13454   4.13683   4.15149   4.17210   4.23225
 Alpha virt. eigenvalues --    4.26240   4.27108   4.27237   4.28328   4.29650
 Alpha virt. eigenvalues --    4.30042   4.30968   4.32604   4.35673   4.36227
 Alpha virt. eigenvalues --    4.39079   4.39786   4.41347   4.42415   4.43836
 Alpha virt. eigenvalues --    4.43956   4.45448   4.46641   4.47398   4.47992
 Alpha virt. eigenvalues --    4.49027   4.50808   4.51278   4.54103   4.54182
 Alpha virt. eigenvalues --    4.54611   4.55214   4.55475   4.56144   4.56596
 Alpha virt. eigenvalues --    4.57789   4.58330   4.58878   4.59402   4.60532
 Alpha virt. eigenvalues --    4.61799   4.63778   4.64429   4.66186   4.66947
 Alpha virt. eigenvalues --    4.67606   4.68879   4.71479   4.72741   4.73374
 Alpha virt. eigenvalues --    4.76256   4.77430   4.79232   4.80352   4.82793
 Alpha virt. eigenvalues --    4.87309   4.88517   4.94047   4.95882   4.96488
 Alpha virt. eigenvalues --    4.97716   4.98076   5.03485   5.06529   5.09391
 Alpha virt. eigenvalues --    5.11053   5.12043   5.12562   5.12924   5.15025
 Alpha virt. eigenvalues --    5.17570   5.20558   5.22554   5.24488   5.28408
 Alpha virt. eigenvalues --    5.30167   5.30452   5.33126   5.34175   5.37862
 Alpha virt. eigenvalues --    5.38036   5.48146   5.49833   5.50964   5.52339
 Alpha virt. eigenvalues --    5.55886   5.58451   5.60513   5.63079   5.64292
 Alpha virt. eigenvalues --    5.67374   5.70241   5.71575   5.73645   5.78516
 Alpha virt. eigenvalues --    5.80568   5.85138   5.87933   5.90324   5.92463
 Alpha virt. eigenvalues --    6.00178   6.04506   6.13014   6.20931   6.23802
 Alpha virt. eigenvalues --    6.30010   6.47677   6.48834   6.52631   9.69372
 Alpha virt. eigenvalues --   10.13536  10.29794  20.99919  23.17290  23.24513
 Alpha virt. eigenvalues --   23.34788  23.67728  23.68796  23.69094  23.69677
 Alpha virt. eigenvalues --   23.73721  23.74633  23.81500  23.87157  23.93256
 Alpha virt. eigenvalues --   23.93560  23.94596  23.98055  24.29044  24.35370
 Alpha virt. eigenvalues --   24.40215  34.55362
          Condensed to atoms (all electrons):
               1          2          3          4          5          6
     1  C    4.971500   0.404917   0.087430  -0.129838   0.066689   0.434579
     2  C    0.404917   5.158904   0.325818  -0.011467  -0.128424   0.027098
     3  C    0.087430   0.325818   5.171641   0.429792   0.065535  -0.088079
     4  C   -0.129838  -0.011467   0.429792   5.087637   0.381908  -0.011501
     5  C    0.066689  -0.128424   0.065535   0.381908   5.224606   0.418428
     6  C    0.434579   0.027098  -0.088079  -0.011501   0.418428   4.917160
     7  C    0.000172   0.000732  -0.018844  -0.096226   0.013953  -0.001242
     8  C   -0.000684   0.003985  -0.056555  -0.018844  -0.002394   0.000493
     9  C   -0.000312   0.002920   0.003984   0.000734  -0.001930   0.000165
    10  H   -0.000011   0.000095   0.000212   0.000164  -0.000027   0.000006
    11  C    0.000028  -0.000312  -0.000684   0.000170   0.000290  -0.000013
    12  C   -0.000013   0.000165   0.000493  -0.001242  -0.000367   0.000014
    13  C    0.000290  -0.001930  -0.002393   0.013946   0.006775  -0.000367
    14  H   -0.045562   0.443102  -0.056771   0.014319  -0.004326   0.007812
    15  H    0.006654  -0.002416   0.008917  -0.037709   0.438536  -0.037392
    16  H   -0.043377   0.007228  -0.002650   0.008766  -0.042157   0.442107
    17  H    0.000000  -0.000001   0.000010   0.000003   0.000001  -0.000000
    18  H   -0.000000   0.000001   0.000000  -0.000003  -0.000004   0.000000
    19  C   -0.002189   0.004681  -0.023848  -0.073850  -0.011787   0.003004
    20  C    0.000053  -0.000355  -0.000900   0.010321  -0.000158  -0.000121
    21  C    0.000004  -0.000005   0.000089   0.001169  -0.000126  -0.000030
    22  C    0.000106  -0.000060   0.000449  -0.002044   0.003920  -0.000271
    23  C   -0.000002   0.000004  -0.000141  -0.000849  -0.000032   0.000036
    24  H   -0.000000   0.000000   0.000001   0.000005  -0.000001   0.000000
    25  H   -0.000001   0.000000   0.000010   0.000193   0.000021  -0.000007
    26  H   -0.000001  -0.000002  -0.000132  -0.000444   0.000076   0.000004
    27  H   -0.000000   0.000000  -0.000001  -0.000007   0.000003   0.000000
    28  H    0.442072  -0.042513   0.006570  -0.001947   0.006542  -0.041362
    29  N   -0.002602   0.018227  -0.081598   0.243143  -0.051751   0.006861
    30  H    0.000003  -0.000019   0.000030   0.001210   0.000069   0.000017
    31  S    0.010273  -0.072768   0.402683  -0.093733   0.020842  -0.004237
    32  C    0.000204   0.000293   0.001230  -0.018545  -0.010855  -0.000333
    33  H   -0.000536   0.000734  -0.002161   0.002711  -0.013637   0.003500
               7          8          9         10         11         12
     1  C    0.000172  -0.000684  -0.000312  -0.000011   0.000028  -0.000013
     2  C    0.000732   0.003985   0.002920   0.000095  -0.000312   0.000165
     3  C   -0.018844  -0.056555   0.003984   0.000212  -0.000684   0.000493
     4  C   -0.096226  -0.018844   0.000734   0.000164   0.000170  -0.001242
     5  C    0.013953  -0.002394  -0.001930  -0.000027   0.000290  -0.000367
     6  C   -0.001242   0.000493   0.000165   0.000006  -0.000013   0.000014
     7  C    5.087520   0.429755  -0.011401   0.014324  -0.129864  -0.011451
     8  C    0.429755   5.171725   0.325663  -0.056785   0.087474  -0.088119
     9  C   -0.011401   0.325663   5.158985   0.443093   0.404979   0.027120
    10  H    0.014324  -0.056785   0.443093   0.465821  -0.045539   0.007811
    11  C   -0.129864   0.087474   0.404979  -0.045539   4.971489   0.434542
    12  C   -0.011451  -0.088119   0.027120   0.007811   0.434542   4.917232
    13  C    0.381835   0.065595  -0.128459  -0.004326   0.066698   0.418383
    14  H    0.000164   0.000212   0.000095   0.000029  -0.000011   0.000006
    15  H    0.001211   0.000030  -0.000019   0.000000   0.000003   0.000017
    16  H   -0.000003   0.000000   0.000001   0.000000  -0.000000   0.000000
    17  H   -0.001948   0.006570  -0.042499  -0.003794   0.442065  -0.041365
    18  H    0.008766  -0.002650   0.007229  -0.000089  -0.043375   0.442115
    19  C   -0.073826  -0.023840   0.004682   0.000103  -0.002190   0.003007
    20  C   -0.018539   0.001229   0.000294  -0.000010   0.000202  -0.000329
    21  C   -0.002047   0.000448  -0.000060  -0.000001   0.000106  -0.000271
    22  C    0.001169   0.000089  -0.000005  -0.000000   0.000004  -0.000029
    23  C   -0.000848  -0.000141   0.000004  -0.000000  -0.000002   0.000036
    24  H    0.000193   0.000010   0.000000   0.000000  -0.000001  -0.000007
    25  H    0.000005   0.000001   0.000000   0.000000  -0.000000   0.000000
    26  H    0.002726  -0.002161   0.000734   0.000006  -0.000538   0.003503
    27  H   -0.000007  -0.000001   0.000000   0.000000  -0.000000   0.000000
    28  H    0.000003   0.000010  -0.000001  -0.000000   0.000000  -0.000000
    29  N    0.243245  -0.081586   0.018240  -0.000132  -0.002606   0.006864
    30  H   -0.037714   0.008915  -0.002418   0.000018   0.006656  -0.037390
    31  S   -0.093729   0.402743  -0.072772   0.002977   0.010273  -0.004237
    32  C    0.010330  -0.000898  -0.000355  -0.000003   0.000053  -0.000121
    33  H   -0.000444  -0.000132  -0.000002   0.000000  -0.000001   0.000004
              13         14         15         16         17         18
     1  C    0.000290  -0.045562   0.006654  -0.043377   0.000000  -0.000000
     2  C   -0.001930   0.443102  -0.002416   0.007228  -0.000001   0.000001
     3  C   -0.002393  -0.056771   0.008917  -0.002650   0.000010   0.000000
     4  C    0.013946   0.014319  -0.037709   0.008766   0.000003  -0.000003
     5  C    0.006775  -0.004326   0.438536  -0.042157   0.000001  -0.000004
     6  C   -0.000367   0.007812  -0.037392   0.442107  -0.000000   0.000000
     7  C    0.381835   0.000164   0.001211  -0.000003  -0.001948   0.008766
     8  C    0.065595   0.000212   0.000030   0.000000   0.006570  -0.002650
     9  C   -0.128459   0.000095  -0.000019   0.000001  -0.042499   0.007229
    10  H   -0.004326   0.000029   0.000000   0.000000  -0.003794  -0.000089
    11  C    0.066698  -0.000011   0.000003  -0.000000   0.442065  -0.043375
    12  C    0.418383   0.000006   0.000017   0.000000  -0.041365   0.442115
    13  C    5.224625  -0.000027   0.000069  -0.000004   0.006542  -0.042160
    14  H   -0.000027   0.465843   0.000018  -0.000089  -0.000000   0.000000
    15  H    0.000069   0.000018   0.452215  -0.003879  -0.000000  -0.000000
    16  H   -0.000004  -0.000089  -0.003879   0.464847  -0.000000   0.000000
    17  H    0.006542  -0.000000  -0.000000  -0.000000   0.465074  -0.003496
    18  H   -0.042160   0.000000  -0.000000   0.000000  -0.003496   0.464843
    19  C   -0.011781   0.000103  -0.000291   0.000073   0.000003   0.000073
    20  C   -0.010878  -0.000003  -0.000249   0.000001  -0.000002   0.000022
    21  C    0.003914  -0.000000   0.000007   0.000000  -0.000000  -0.000007
    22  C   -0.000127  -0.000001   0.000480  -0.000007  -0.000000   0.000000
    23  C   -0.000032  -0.000000  -0.000042  -0.000000   0.000000  -0.000000
    24  H    0.000021   0.000000  -0.000000  -0.000000   0.000000   0.000000
    25  H   -0.000001   0.000000   0.000018   0.000000  -0.000000  -0.000000
    26  H   -0.013645   0.000000   0.000006  -0.000000  -0.000004  -0.000009
    27  H    0.000003   0.000000   0.000000   0.000000   0.000000   0.000000
    28  H    0.000001  -0.003794  -0.000079  -0.003495   0.000000  -0.000000
    29  N   -0.051774  -0.000132   0.002218  -0.000129   0.000020  -0.000129
    30  H    0.438552   0.000000   0.000084  -0.000000  -0.000079  -0.003879
    31  S    0.020840   0.002975  -0.000128   0.000001  -0.000220   0.000001
    32  C   -0.000156  -0.000010  -0.003807   0.000022   0.000000   0.000001
    33  H    0.000077   0.000006  -0.002451  -0.000009   0.000000  -0.000000
              19         20         21         22         23         24
     1  C   -0.002189   0.000053   0.000004   0.000106  -0.000002  -0.000000
     2  C    0.004681  -0.000355  -0.000005  -0.000060   0.000004   0.000000
     3  C   -0.023848  -0.000900   0.000089   0.000449  -0.000141   0.000001
     4  C   -0.073850   0.010321   0.001169  -0.002044  -0.000849   0.000005
     5  C   -0.011787  -0.000158  -0.000126   0.003920  -0.000032  -0.000001
     6  C    0.003004  -0.000121  -0.000030  -0.000271   0.000036   0.000000
     7  C   -0.073826  -0.018539  -0.002047   0.001169  -0.000848   0.000193
     8  C   -0.023840   0.001229   0.000448   0.000089  -0.000141   0.000010
     9  C    0.004682   0.000294  -0.000060  -0.000005   0.000004   0.000000
    10  H    0.000103  -0.000010  -0.000001  -0.000000  -0.000000   0.000000
    11  C   -0.002190   0.000202   0.000106   0.000004  -0.000002  -0.000001
    12  C    0.003007  -0.000329  -0.000271  -0.000029   0.000036  -0.000007
    13  C   -0.011781  -0.010878   0.003914  -0.000127  -0.000032   0.000021
    14  H    0.000103  -0.000003  -0.000000  -0.000001  -0.000000   0.000000
    15  H   -0.000291  -0.000249   0.000007   0.000480  -0.000042  -0.000000
    16  H    0.000073   0.000001   0.000000  -0.000007  -0.000000  -0.000000
    17  H    0.000003  -0.000002  -0.000000  -0.000000   0.000000   0.000000
    18  H    0.000073   0.000022  -0.000007   0.000000  -0.000000   0.000000
    19  C    4.676116   0.472190  -0.045108  -0.045103  -0.069998   0.006967
    20  C    0.472190   5.183659   0.473549  -0.055004   0.001295  -0.039594
    21  C   -0.045108   0.473549   4.886324  -0.026755   0.489959   0.436450
    22  C   -0.045103  -0.055004  -0.026755   4.886345   0.490021   0.005766
    23  C   -0.069998   0.001295   0.489959   0.490021   4.982159  -0.040887
    24  H    0.006967  -0.039594   0.436450   0.005766  -0.040887   0.471068
    25  H    0.006970  -0.001801   0.005763   0.436446  -0.040880  -0.000122
    26  H   -0.030988   0.448231  -0.043582  -0.002400   0.006507  -0.003930
    27  H   -0.001669   0.005747  -0.039976  -0.039978   0.440475  -0.003185
    28  H    0.000003   0.000000  -0.000000  -0.000000   0.000000  -0.000000
    29  N    0.457811  -0.090954   0.003954   0.003953  -0.000833  -0.000077
    30  H   -0.000294  -0.003807   0.000479   0.000007  -0.000042   0.000018
    31  S   -0.002595   0.002859  -0.000431  -0.000431   0.000245  -0.000005
    32  C    0.472198   0.014871  -0.055022   0.473482   0.001302  -0.001802
    33  H   -0.030988   0.006894  -0.002399  -0.043563   0.006505   0.000025
              25         26         27         28         29         30
     1  C   -0.000001  -0.000001  -0.000000   0.442072  -0.002602   0.000003
     2  C    0.000000  -0.000002   0.000000  -0.042513   0.018227  -0.000019
     3  C    0.000010  -0.000132  -0.000001   0.006570  -0.081598   0.000030
     4  C    0.000193  -0.000444  -0.000007  -0.001947   0.243143   0.001210
     5  C    0.000021   0.000076   0.000003   0.006542  -0.051751   0.000069
     6  C   -0.000007   0.000004   0.000000  -0.041362   0.006861   0.000017
     7  C    0.000005   0.002726  -0.000007   0.000003   0.243245  -0.037714
     8  C    0.000001  -0.002161  -0.000001   0.000010  -0.081586   0.008915
     9  C    0.000000   0.000734   0.000000  -0.000001   0.018240  -0.002418
    10  H    0.000000   0.000006   0.000000  -0.000000  -0.000132   0.000018
    11  C   -0.000000  -0.000538  -0.000000   0.000000  -0.002606   0.006656
    12  C    0.000000   0.003503   0.000000  -0.000000   0.006864  -0.037390
    13  C   -0.000001  -0.013645   0.000003   0.000001  -0.051774   0.438552
    14  H    0.000000   0.000000   0.000000  -0.003794  -0.000132   0.000000
    15  H    0.000018   0.000006   0.000000  -0.000079   0.002218   0.000084
    16  H    0.000000  -0.000000   0.000000  -0.003495  -0.000129  -0.000000
    17  H   -0.000000  -0.000004   0.000000   0.000000   0.000020  -0.000079
    18  H   -0.000000  -0.000009   0.000000  -0.000000  -0.000129  -0.003879
    19  C    0.006970  -0.030988  -0.001669   0.000003   0.457811  -0.000294
[...]
 Alpha virt. eigenvalues --   24.02265  24.03951  24.08711  24.41216  24.46267
 Alpha virt. eigenvalues --   24.49901  34.55225
          Condensed to atoms (all electrons):
               1          2          3          4          5          6
     1  C    4.978157   0.379342   0.117112  -0.157396   0.090592   0.413555
     2  C    0.379342   5.203112   0.285732   0.004344  -0.154308   0.048112
     3  C    0.117112   0.285732   5.208221   0.411123   0.093956  -0.112145
     4  C   -0.157396   0.004344   0.411123   5.128586   0.348521   0.005186
     5  C    0.090592  -0.154308   0.093956   0.348521   5.233265   0.398027
     6  C    0.413555   0.048112  -0.112145   0.005186   0.398027   4.924370
     7  C    0.000008   0.000177  -0.028619  -0.050083   0.017037  -0.000934
     8  C   -0.000919   0.004394  -0.065429  -0.028580  -0.004353   0.000764
     9  C   -0.000506   0.004800   0.004397   0.000168  -0.002908   0.000282
    10  H   -0.000016   0.000128   0.000229   0.000196  -0.000031   0.000007
    11  C    0.000051  -0.000507  -0.000918   0.000008   0.000436  -0.000027
    12  C   -0.000027   0.000282   0.000763  -0.000933  -0.000423   0.000017
    13  C    0.000436  -0.002910  -0.004356   0.017035   0.009416  -0.000423
    14  H   -0.049818   0.451513  -0.061297   0.016835  -0.004955   0.008936
    15  H    0.008303  -0.003347   0.010809  -0.040928   0.446460  -0.041384
    16  H   -0.046610   0.008356  -0.003301   0.010658  -0.045741   0.449419
    17  H    0.000000  -0.000002   0.000008   0.000007   0.000001  -0.000000
    18  H   -0.000000   0.000001   0.000003  -0.000003  -0.000007   0.000000
    19  C   -0.002577   0.004996  -0.024242  -0.060972  -0.013251   0.004180
    20  C    0.000080  -0.000578  -0.001544   0.005631   0.000904  -0.000098
    21  C    0.000006  -0.000003   0.000316   0.001612  -0.000318  -0.000040
    22  C    0.000093   0.000036   0.000718  -0.001487   0.002551  -0.000359
    23  C   -0.000003   0.000008  -0.000249  -0.001226   0.000054   0.000046
    24  H   -0.000000   0.000000   0.000002   0.000010  -0.000001   0.000000
    25  H    0.000000  -0.000002   0.000032   0.000250   0.000003  -0.000012
    26  H   -0.000001  -0.000006  -0.000181  -0.000564   0.000129   0.000005
    27  H   -0.000000   0.000000  -0.000001  -0.000008   0.000003   0.000000
    28  H    0.449071  -0.045626   0.007766  -0.002552   0.007350  -0.043764
    29  N   -0.003267   0.022580  -0.076077   0.202235  -0.050390   0.008630
    30  H    0.000008  -0.000038   0.000017   0.000924   0.000226   0.000021
    31  S    0.011201  -0.072375   0.409565  -0.106414   0.022619  -0.005014
    32  C    0.000061   0.000617  -0.002590  -0.012685  -0.011239  -0.000206
    33  H   -0.000310   0.000342  -0.001783   0.001722  -0.010426   0.003123
               7          8          9         10         11         12
     1  C    0.000008  -0.000919  -0.000506  -0.000016   0.000051  -0.000027
     2  C    0.000177   0.004394   0.004800   0.000128  -0.000507   0.000282
     3  C   -0.028619  -0.065429   0.004397   0.000229  -0.000918   0.000763
     4  C   -0.050083  -0.028580   0.000168   0.000196   0.000008  -0.000933
     5  C    0.017037  -0.004353  -0.002908  -0.000031   0.000436  -0.000423
     6  C   -0.000934   0.000764   0.000282   0.000007  -0.000027   0.000017
     7  C    5.128080   0.411191   0.004313   0.016836  -0.157388   0.005193
     8  C    0.411191   5.208322   0.285883  -0.061294   0.117113  -0.112154
     9  C    0.004313   0.285883   5.202928   0.451517   0.379360   0.048102
    10  H    0.016836  -0.061294   0.451517   0.470761  -0.049823   0.008938
    11  C   -0.157388   0.117113   0.379360  -0.049823   4.978156   0.413543
    12  C    0.005193  -0.112154   0.048102   0.008938   0.413543   4.924401
    13  C    0.348492   0.093934  -0.154291  -0.004956   0.090635   0.397922
    14  H    0.000196   0.000230   0.000128   0.000033  -0.000016   0.000007
    15  H    0.000921   0.000017  -0.000038   0.000000   0.000008   0.000021
    16  H   -0.000003   0.000003   0.000001   0.000000  -0.000000   0.000000
    17  H   -0.002553   0.007767  -0.045628  -0.004376   0.449073  -0.043765
    18  H    0.010658  -0.003301   0.008356  -0.000088  -0.046611   0.449420
    19  C   -0.060932  -0.024273   0.005001   0.000151  -0.002585   0.004199
    20  C   -0.012670  -0.002603   0.000623  -0.000001   0.000058  -0.000201
    21  C   -0.001467   0.000716   0.000035  -0.000002   0.000093  -0.000360
    22  C    0.001618   0.000316  -0.000004  -0.000000   0.000006  -0.000041
    23  C   -0.001228  -0.000250   0.000008  -0.000000  -0.000003   0.000046
    24  H    0.000250   0.000032  -0.000002   0.000000   0.000000  -0.000012
    25  H    0.000010   0.000002   0.000000   0.000000  -0.000000   0.000000
    26  H    0.001751  -0.001790   0.000348   0.000003  -0.000315   0.003136
    27  H   -0.000008  -0.000001   0.000000   0.000000  -0.000000   0.000000
    28  H    0.000007   0.000008  -0.000002  -0.000000   0.000000  -0.000000
    29  N    0.202259  -0.076125   0.022562  -0.000182  -0.003265   0.008631
    30  H   -0.040946   0.010808  -0.003345   0.000020   0.008301  -0.041368
    31  S   -0.106380   0.409540  -0.072357   0.002845   0.011197  -0.005013
    32  C    0.005619  -0.001549  -0.000577  -0.000005   0.000079  -0.000096
    33  H   -0.000564  -0.000181  -0.000006   0.000000  -0.000001   0.000005
              13         14         15         16         17         18
     1  C    0.000436  -0.049818   0.008303  -0.046610   0.000000  -0.000000
     2  C   -0.002910   0.451513  -0.003347   0.008356  -0.000002   0.000001
     3  C   -0.004356  -0.061297   0.010809  -0.003301   0.000008   0.000003
     4  C    0.017035   0.016835  -0.040928   0.010658   0.000007  -0.000003
     5  C    0.009416  -0.004955   0.446460  -0.045741   0.000001  -0.000007
     6  C   -0.000423   0.008936  -0.041384   0.449419  -0.000000   0.000000
     7  C    0.348492   0.000196   0.000921  -0.000003  -0.002553   0.010658
     8  C    0.093934   0.000230   0.000017   0.000003   0.007767  -0.003301
     9  C   -0.154291   0.000128  -0.000038   0.000001  -0.045628   0.008356
    10  H   -0.004956   0.000033   0.000000   0.000000  -0.004376  -0.000088
    11  C    0.090635  -0.000016   0.000008  -0.000000   0.449073  -0.046611
    12  C    0.397922   0.000007   0.000021   0.000000  -0.043765   0.449420
    13  C    5.233546  -0.000031   0.000225  -0.000007   0.007353  -0.045741
    14  H   -0.000031   0.470761   0.000020  -0.000088  -0.000000   0.000000
    15  H    0.000225   0.000020   0.461762  -0.004608  -0.000000  -0.000001
    16  H   -0.000007  -0.000088  -0.004608   0.470334  -0.000000   0.000000
    17  H    0.007353  -0.000000  -0.000000  -0.000000   0.469366  -0.003964
    18  H   -0.045741   0.000000  -0.000001   0.000000  -0.003964   0.470335
    19  C   -0.013257   0.000150  -0.000055   0.000060   0.000001   0.000060
    20  C   -0.011262  -0.000005  -0.000215  -0.000000  -0.000004   0.000021
    21  C    0.002560  -0.000000  -0.000004   0.000000  -0.000001  -0.000004
    22  C   -0.000317  -0.000002   0.000322  -0.000004  -0.000000   0.000000
    23  C    0.000052  -0.000000  -0.000020  -0.000000   0.000000  -0.000000
    24  H    0.000003   0.000000   0.000000  -0.000000   0.000000   0.000000
    25  H   -0.000001   0.000000   0.000015   0.000000  -0.000000  -0.000000
    26  H   -0.010466   0.000000   0.000008  -0.000000  -0.000004  -0.000018
    27  H    0.000003   0.000000   0.000000   0.000000   0.000000   0.000000
    28  H    0.000001  -0.004376  -0.000073  -0.003964   0.000000  -0.000000
    29  N   -0.050380  -0.000182   0.001996  -0.000168   0.000022  -0.000168
    30  H    0.446462   0.000000   0.000136  -0.000001  -0.000073  -0.004607
    31  S    0.022611   0.002848  -0.000140   0.000001  -0.000240   0.000001
    32  C    0.000904  -0.000001  -0.002426   0.000021   0.000001  -0.000000
    33  H    0.000129   0.000003  -0.001424  -0.000018   0.000000  -0.000000
              19         20         21         22         23         24
     1  C   -0.002577   0.000080   0.000006   0.000093  -0.000003  -0.000000
     2  C    0.004996  -0.000578  -0.000003   0.000036   0.000008   0.000000
     3  C   -0.024242  -0.001544   0.000316   0.000718  -0.000249   0.000002
     4  C   -0.060972   0.005631   0.001612  -0.001487  -0.001226   0.000010
     5  C   -0.013251   0.000904  -0.000318   0.002551   0.000054  -0.000001
     6  C    0.004180  -0.000098  -0.000040  -0.000359   0.000046   0.000000
     7  C   -0.060932  -0.012670  -0.001467   0.001618  -0.001228   0.000250
     8  C   -0.024273  -0.002603   0.000716   0.000316  -0.000250   0.000032
     9  C    0.005001   0.000623   0.000035  -0.000004   0.000008  -0.000002
    10  H    0.000151  -0.000001  -0.000002  -0.000000  -0.000000   0.000000
    11  C   -0.002585   0.000058   0.000093   0.000006  -0.000003   0.000000
    12  C    0.004199  -0.000201  -0.000360  -0.000041   0.000046  -0.000012
    13  C   -0.013257  -0.011262   0.002560  -0.000317   0.000052   0.000003
    14  H    0.000150  -0.000005  -0.000000  -0.000002  -0.000000   0.000000
    15  H   -0.000055  -0.000215  -0.000004   0.000322  -0.000020   0.000000
    16  H    0.000060  -0.000000   0.000000  -0.000004  -0.000000  -0.000000
    17  H    0.000001  -0.000004  -0.000001  -0.000000   0.000000   0.000000
    18  H    0.000060   0.000021  -0.000004   0.000000  -0.000000   0.000000
    19  C    4.651646   0.469425  -0.036564  -0.036531  -0.078063   0.007585
    20  C    0.469425   5.179889   0.464934  -0.060251   0.007926  -0.041401
    21  C   -0.036564   0.464934   4.893267  -0.022966   0.482813   0.442096
    22  C   -0.036531  -0.060251  -0.022966   4.893443   0.482796   0.006433
    23  C   -0.078063   0.007926   0.482813   0.482796   4.975949  -0.042938
    24  H    0.007585  -0.041401   0.442096   0.006433  -0.042938   0.475554
    25  H    0.007585  -0.002141   0.006430   0.442086  -0.042934  -0.000121
    26  H   -0.031887   0.454025  -0.048610  -0.002936   0.007496  -0.004327
    27  H   -0.001844   0.006031  -0.041101  -0.041101   0.445296  -0.003519
    28  H    0.000001   0.000001  -0.000000  -0.000001   0.000000  -0.000000
    29  N    0.458020  -0.095122   0.004733   0.004741  -0.000860  -0.000097
    30  H   -0.000061  -0.002433   0.000322  -0.000004  -0.000020   0.000015
    31  S   -0.005221   0.005168  -0.000918  -0.000920   0.000462  -0.000011
    32  C    0.469478   0.014094  -0.060270   0.464828   0.007926  -0.002142
    33  H   -0.031885   0.008372  -0.002935  -0.048614   0.007493   0.000026
              25         26         27         28         29         30
     1  C    0.000000  -0.000001  -0.000000   0.449071  -0.003267   0.000008
     2  C   -0.000002  -0.000006   0.000000  -0.045626   0.022580  -0.000038
     3  C    0.000032  -0.000181  -0.000001   0.007766  -0.076077   0.000017
     4  C    0.000250  -0.000564  -0.000008  -0.002552   0.202235   0.000924
     5  C    0.000003   0.000129   0.000003   0.007350  -0.050390   0.000226
     6  C   -0.000012   0.000005   0.000000  -0.043764   0.008630   0.000021
     7  C    0.000010   0.001751  -0.000008   0.000007   0.202259  -0.040946
     8  C    0.000002  -0.001790  -0.000001   0.000008  -0.076125   0.010808
     9  C    0.000000   0.000348   0.000000  -0.000002   0.022562  -0.003345
    10  H    0.000000   0.000003   0.000000  -0.000000  -0.000182   0.000020
    11  C   -0.000000  -0.000315  -0.000000   0.000000  -0.003265   0.008301
    12  C    0.000000   0.003136   0.000000  -0.000000   0.008631  -0.041368
    13  C   -0.000001  -0.010466   0.000003   0.000001  -0.050380   0.446462
    14  H    0.000000   0.000000   0.000000  -0.004376  -0.000182   0.000000
    15  H    0.000015   0.000008   0.000000  -0.000073   0.001996   0.000136
    16  H    0.000000  -0.000000   0.000000  -0.003964  -0.000168  -0.000001
    17  H   -0.000000  -0.000004   0.000000   0.000000   0.000022  -0.000073
    18  H   -0.000000  -0.000018   0.000000  -0.000000  -0.000168  -0.004607
    19  C    0.007585  -0.031887  -0.001844   0.000001   0.458020  -0.000061
    20  C   -0.002141   0.454025   0.006031   0.000001  -0.095122  -0.002433
    21  C    0.006430  -0.048610  -0.041101  -0.000000   0.004733   0.000322
    22  C    0.442086  -0.002936  -0.041101  -0.000001   0.004741  -0.000004
    23  C   -0.042934   0.007496   0.445296   0.000000  -0.000860  -0.000020
    24  H   -0.000121  -0.004327  -0.003519  -0.000000  -0.000097   0.000015
    25  H    0.475553   0.000026  -0.003519   0.000000  -0.000097   0.000000
    26  H    0.000026   0.469648  -0.000091   0.000000  -0.006595  -0.001430
    27  H   -0.003519  -0.000091   0.473538   0.000000   0.000023   0.000000
    28  H    0.000000   0.000000   0.000000   0.469364   0.000022  -0.000000
    29  N   -0.000097  -0.006595   0.000023   0.000022   6.560702   0.002002
    30  H    0.000000  -0.001430   0.000000  -0.000000   0.002002   0.461729
    31  S   -0.000011   0.000494   0.000001  -0.000240   0.007578  -0.000140
    32  C   -0.041390   0.008378   0.006031  -0.000004  -0.095179  -0.000214
    33  H   -0.004327  -0.000033  -0.000091  -0.000004  -0.006604   0.000008
              31         32         33
     1  C    0.011201   0.000061  -0.000310
     2  C   -0.072375   0.000617   0.000342
     3  C    0.409565  -0.002590  -0.001783
     4  C   -0.106414  -0.012685   0.001722
     5  C    0.022619  -0.011239  -0.010426
     6  C   -0.005014  -0.000206   0.003123
     7  C   -0.106380   0.005619  -0.000564
     8  C    0.409540  -0.001549  -0.000181
     9  C   -0.072357  -0.000577  -0.000006
    10  H    0.002845  -0.000005   0.000000
    11  C    0.011197   0.000079  -0.000001
    12  C   -0.005013  -0.000096   0.000005
    13  C    0.022611   0.000904   0.000129
    14  H    0.002848  -0.000001   0.000003
    15  H   -0.000140  -0.002426  -0.001424
    16  H    0.000001   0.000021  -0.000018
    17  H   -0.000240   0.000001   0.000000
    18  H    0.000001  -0.000000  -0.000000
    19  C   -0.005221   0.469478  -0.031885
    20  C    0.005168   0.014094   0.008372
    21  C   -0.000918  -0.060270  -0.002935
    22  C   -0.000920   0.464828  -0.048614
    23  C    0.000462   0.007926   0.007493
    24  H   -0.000011  -0.002142   0.000026
    25  H   -0.000011  -0.041390  -0.004327
    26  H    0.000494   0.008378  -0.000033
    27  H    0.000001   0.006031  -0.000091
    28  H   -0.000240  -0.000004  -0.000004
    29  N    0.007578  -0.095179  -0.006604
    30  H   -0.000140  -0.000214   0.000008
    31  S   15.477766   0.005181   0.000496
    32  C    0.005181   5.179811   0.454038
    33  H    0.000496   0.454038   0.469623
 Mulliken charges:
               1
     1  C   -0.186626
     2  C   -0.139171
     3  C   -0.168038
     4  C    0.308781
     5  C   -0.373198
     6  C   -0.060276
     7  C    0.309162
     8  C   -0.168239
     9  C   -0.139148
    10  H    0.169110
    11  C   -0.186660
    12  C   -0.060236
    13  C   -0.373320
    14  H    0.169109
    15  H    0.163640
    16  H    0.165659
    17  H    0.167012
    18  H    0.165656
    19  C    0.341663
    20  C   -0.386653
    21  C   -0.084372
    22  C   -0.084451
    23  C   -0.250574
    24  H    0.162564
    25  H    0.162562
    26  H    0.163810
    27  H    0.160361
    28  H    0.167014
    29  N   -0.041981
    30  H    0.163681
    31  S   -0.014178
    32  C   -0.386489
    33  H    0.163827
 Sum of Mulliken charges =  -0.00000
 Mulliken charges with hydrogens summed into heavy atoms:
               1
     1  C   -0.019612
     2  C    0.029938
     3  C   -0.168038
     4  C    0.308781
     5  C   -0.209558
     6  C    0.105383
     7  C    0.309162
     8  C   -0.168239
     9  C    0.029962
    11  C   -0.019648
    12  C    0.105420
    13  C   -0.209639
    19  C    0.341663
    20  C   -0.222844
    21  C    0.078192
    22  C    0.078111
    23  C   -0.090213
    29  N   -0.041981
    31  S   -0.014178
    32  C   -0.222663
 Electronic spatial extent (au):  <R**2>=           5157.4976
 Charge=              0.0000 electrons
 Dipole moment (field-independent basis, Debye):
    X=             -0.9983    Y=              0.0004    Z=              1.8518  Tot=              2.1037
 Quadrupole moment (field-independent basis, Debye-Ang):
   XX=           -118.8920   YY=            -99.7429   ZZ=           -124.2554
   XY=              0.0061   XZ=              2.1532   YZ=              0.0047
 Traceless Quadrupole moment (field-independent basis, Debye-Ang):
   XX=             -4.5953   YY=             14.5539   ZZ=             -9.9586
   XY=              0.0061   XZ=              2.1532   YZ=              0.0047
 Octapole moment (field-independent basis, Debye-Ang**2):
  XXX=             23.0893  YYY=              0.0321  ZZZ=             19.1237  XYY=            -35.8035
  XXY=             -0.0167  XXZ=            -29.8291  XZZ=             -9.3231  YZZ=              0.0036
  YYZ=             22.9974  XYZ=              0.0377
 Hexadecapole moment (field-independent basis, Debye-Ang**3):
 XXXX=          -3179.0370 YYYY=          -2752.5703 ZZZZ=           -818.4117 XXXY=              0.1904
 XXXZ=            -41.2282 YYYX=             -0.0466 YYYZ=              0.0099 ZZZX=             33.4028
 ZZZY=             -0.0159 XXYY=           -901.2499 XXZZ=           -737.5862 YYZZ=           -589.1368
 XXYZ=              0.0825 YYXZ=              7.0011 ZZXY=             -0.0081
 N-N= 1.579782955602D+03 E-N=-5.840666639383D+03  KE= 1.141366292688D+03
 Leave Link  601 at Sun Apr  4 00:52:12 2021, MaxMem=  5242880000 cpu:         2.7
 (Enter /opt/nce/packages/global/g09/l9999.exe)
 1\1\GINC-CN008\SP\RTD-FC\Gen\C18H13N1S1\PNG4RJV\04-Apr-2021\0\\#p hf c
 hkbasis geom=allcheck Guess=Read int=ultrafine scrf=(SMD,solvent=n,n-D
 iMethylAcetamide) td=(NStates=30)\\Title\\0,1\C,0,-1.9442802288,3.4985
 503586,-0.4039108092\C,0,-2.1293589329,2.4884740877,0.5192516439\C,0,-
 1.3572993641,1.3416593894,0.4457590246\C,0,-0.4028493101,1.2014173311,
 -0.5491607501\C,0,-0.2573237985,2.1961698327,-1.4985433784\C,0,-1.0155
 723096,3.3478607214,-1.418827336\C,0,-0.3868951655,-1.1804968953,-0.54
 33121456\C,0,-1.3392665537,-1.3287107871,0.4524603163\C,0,-2.095709662
 8,-2.4854956658,0.5317705751\H,0,-2.8400664298,-2.5894727879,1.2987552
 297\C,0,-1.8972442089,-3.4974376532,-0.3865608356\C,0,-0.9708935926,-3
 .3391586298,-1.4024626278\C,0,-0.2282623813,-2.1777396569,-1.487970570
 6\H,0,-2.8752612296,2.5860862812,1.2855730085\H,0,0.4628859584,2.07027
 97736,-2.2846953023\H,0,-0.8867873255,4.1222423287,-2.1514194903\H,0,-
 2.4807298913,-4.3965529075,-0.322294328\H,0,-0.8319399575,-4.115231430
 9,-2.1313924319\C,0,1.6947361759,0.0256177496,-0.0730317737\C,0,2.3749
 980018,-1.1629145359,0.1867430637\C,0,3.6674558154,-1.1447575779,0.674
 7333532\C,0,3.6509069856,1.2260208706,0.6706257864\C,0,4.3232296832,0.
 045695304,0.9213917265\H,0,4.160298733,-2.0807926646,0.8643863684\H,0,
 4.1306613632,2.1694813431,0.8570104845\H,0,1.9062885301,-2.1091871642,
 0.0156934625\H,0,5.327669204,0.0533644655,1.300391291\H,0,-2.539832441
 7,4.3900379202,-0.3441364434\N,0,0.3843974469,0.0155590526,-0.59862488
 47\H,0,0.4899905802,-2.045977566,-2.2749449153\S,0,-1.594448474,0.0076
 694315,1.5863804695\C,0,2.3583065974,1.2244288063,0.1826644889\H,0,1.8
 763731829,2.1634698756,0.0084717306\\Version=ES64L-G09RevE.01\State=1-
 A\HF=-1141.4578873\RMSD=3.641e-09\PG=C01 [X(C18H13N1S1)]\\@


 THIS CURIOUS WORLD WHICH WE INHABIT IS MORE WONDERFUL THAN IT IS CONVENIENT;
 MORE BEAUTIFUL THAN IT IS USEFUL;
 IT IS MORE TO BE ADMIRED THAN IT IS TO BE USED.

                                                                 -- THOREAU
 Job cpu time:       0 days 19 hours 47 minutes 28.6 seconds.
 File lengths (MBytes):  RWF=   2427 Int=      0 D2E=      0 Chk=    444 Scr=      1
 Normal termination of Gaussian 09 at Sun Apr  4 00:52:13 2021.
