 Entering Gaussian System, Link 0=g09
 Input=/home/png4rjv/fotokatalizis/benchmark/OPCs/PTZ_1b_PBE-D3_def2TZVP.gjf
 Output=/home/png4rjv/fotokatalizis/benchmark/OPCs/PTZ_1b_PBE-D3_def2TZVP.log
 Initial command:
 /opt/nce/packages/global/g09/l1.exe "/home/png4rjv/fotokatalizis/benchmark/OPCs/PTZ_1b_PBE-D3_def2TZVP/Gau-63300.inp" -scrdir="/home/png4rjv/fotokatalizis/benchmark/OPCs/PTZ_1b_PBE-D3_def2TZVP/"
 Default is to use a total of  12 processors:
                               12 via shared-memory
                                1 via Linda
 Entering Link 1 = /opt/nce/packages/global/g09/l1.exe PID=     63301.
  
 Copyright (c) 1988,1990,1992,1993,1995,1998,2003,2009,2015,
            Gaussian, Inc.  All Rights Reserved.
  
 This is part of the Gaussian(R) 09 program.  It is based on
 the Gaussian(R) 03 system (copyright 2003, Gaussian, Inc.),
 the Gaussian(R) 98 system (copyright 1998, Gaussian, Inc.),
 the Gaussian(R) 94 system (copyright 1995, Gaussian, Inc.),
 the Gaussian 92(TM) system (copyright 1992, Gaussian, Inc.),
 the Gaussian 90(TM) system (copyright 1990, Gaussian, Inc.),
 the Gaussian 88(TM) system (copyright 1988, Gaussian, Inc.),
 the Gaussian 86(TM) system (copyright 1986, Carnegie Mellon
 University), and the Gaussian 82(TM) system (copyright 1983,
 Carnegie Mellon University). Gaussian is a federally registered
 trademark of Gaussian, Inc.
  
 This software contains proprietary and confidential information,
 including trade secrets, belonging to Gaussian, Inc.
  
 This software is provided under written license and may be
 used, copied, transmitted, or stored only in accord with that
 written license.
  
 The following legend is applicable only to US Government
 contracts under FAR:
  
                    RESTRICTED RIGHTS LEGEND
  
 Use, reproduction and disclosure by the US Government is
 subject to restrictions as set forth in subparagraphs (a)
 and (c) of the Commercial Computer Software - Restricted
 Rights clause in FAR 52.227-19.
  
 Gaussian, Inc.
 340 Quinnipiac St., Bldg. 40, Wallingford CT 06492
  
  
 ---------------------------------------------------------------
 Warning -- This program may not be used in any manner that
 competes with the business of Gaussian, Inc. or will provide
 assistance to any competitor of Gaussian, Inc.  The licensee
 of this program is prohibited from giving any competitor of
 Gaussian, Inc. access to this program.  By using this program,
 the user acknowledges that Gaussian, Inc. is engaged in the
 business of creating and licensing software in the field of
 computational chemistry and represents and warrants to the
 licensee that it is not a competitor of Gaussian, Inc. and that
 it will not use this program in any manner prohibited above.
 ---------------------------------------------------------------
  

 Cite this work as:
 Gaussian 09, Revision E.01,
 M. J. Frisch, G. W. Trucks, H. B. Schlegel, G. E. Scuseria, 
 M. A. Robb, J. R. Cheeseman, G. Scalmani, V. Barone, B. Mennucci, 
 G. A. Petersson, H. Nakatsuji, M. Caricato, X. Li, H. P. Hratchian, 
 A. F. Izmaylov, J. Bloino, G. Zheng, J. L. Sonnenberg, M. Hada, 
 M. Ehara, K. Toyota, R. Fukuda, J. Hasegawa, M. Ishida, T. Nakajima, 
 Y. Honda, O. Kitao, H. Nakai, T. Vreven, J. A. Montgomery, Jr., 
 J. E. Peralta, F. Ogliaro, M. Bearpark, J. J. Heyd, E. Brothers, 
 K. N. Kudin, V. N. Staroverov, T. Keith, R. Kobayashi, J. Normand, 
 K. Raghavachari, A. Rendell, J. C. Burant, S. S. Iyengar, J. Tomasi, 
 M. Cossi, N. Rega, J. M. Millam, M. Klene, J. E. Knox, J. B. Cross, 
 V. Bakken, C. Adamo, J. Jaramillo, R. Gomperts, R. E. Stratmann, 
 O. Yazyev, A. J. Austin, R. Cammi, C. Pomelli, J. W. Ochterski, 
 R. L. Martin, K. Morokuma, V. G. Zakrzewski, G. A. Voth, 
 P. Salvador, J. J. Dannenberg, S. Dapprich, A. D. Daniels, 
 O. Farkas, J. B. Foresman, J. V. Ortiz, J. Cioslowski, 
 and D. J. Fox, Gaussian, Inc., Wallingford CT, 2013.
 
 ******************************************
 Gaussian 09:  ES64L-G09RevE.01 30-Nov-2015
                27-Mar-2021 
 ******************************************
 %chk=cp.chk
 Default route:  MaxDisk=500GB
 ----------------------------------------------------------------------
 #p PBEPBE/def2TZVP opt freq=noraman nosymm int=ultrafine scrf=(SMD,sol
 vent=n,n-DiMethylAcetamide) EmpiricalDispersion=GD3BJ
 ----------------------------------------------------------------------
 1/14=-1,18=20,19=15,26=4,38=1/1,3;
 2/9=110,12=2,15=1,17=6,18=5,40=1/2;
 3/5=44,7=101,11=2,16=1,25=1,30=1,70=32201,71=1,72=147,74=1009,75=-5,124=41/1,2,3;
 4//1;
 5/5=2,38=5,53=147/2;
 6/7=2,8=2,9=2,10=2,28=1/1;
 7/30=1/1,2,3,16;
 1/14=-1,18=20,19=15,26=4/3(2);
 2/9=110,15=1/2;
 99//99;
 2/9=110,15=1/2;
 3/5=44,7=101,11=2,16=1,25=1,30=1,70=32205,71=1,72=147,74=1009,75=-5,124=41/1,2,3;
 4/5=5,16=3,69=1/1;
 5/5=2,38=5,53=147/2;
 7/30=1/1,2,3,16;
 1/14=-1,18=20,19=15,26=4/3(-5);
 2/9=110,15=1/2;
 6/7=2,8=2,9=2,10=2,19=2,28=1/1;
 99/9=1/99;
 Leave Link    1 at Sat Mar 27 19:32:50 2021, MaxMem=           0 cpu:         2.1
 (Enter /opt/nce/packages/global/g09/l101.exe)
 -----
 Title
 -----
 Symbolic Z-matrix:
 Charge =  0 Multiplicity = 1
 C                    -1.96587   3.55795  -0.4129 
 C                    -2.25317   2.51937   0.47414 
 C                    -1.48663   1.34851   0.44676 
 C                    -0.43397   1.21038  -0.4751 
 C                    -0.19289   2.23549  -1.39782 
 C                    -0.94181   3.41256  -1.35496 
 C                    -0.41788  -1.18962  -0.46937 
 C                    -1.46858  -1.33736   0.45319 
 C                    -2.2193   -2.51831   0.48617 
 H                    -3.04103  -2.61356   1.19921 
 C                    -1.91804  -3.55714  -0.3959 
 C                    -0.89595  -3.40257  -1.33867 
 C                    -0.16293  -2.21576  -1.3872 
 H                    -3.07615   2.60689   1.18673 
 H                     0.6013    2.10304  -2.1345 
 H                    -0.73315   4.21395  -2.06703 
 H                    -2.49871  -4.48164  -0.36173 
 H                    -0.67663  -4.20452  -2.04689 
 C                     1.69233   0.02568  -0.05102 
 C                     2.39141  -1.17681   0.17752 
 C                     3.72533  -1.15866   0.58458 
 C                     3.70905   1.24034   0.57914 
 C                     4.40315   0.04598   0.7834 
 H                     4.23691  -2.1097    0.7538 
 H                     4.20757   2.19906   0.74396 
 H                     1.88953  -2.13416   0.05174 
 H                     5.4481    0.05373   1.09974 
 H                    -2.55887   4.47474  -0.38311 
 N                     0.34006   0.01558  -0.46695 
 H                     0.62945  -2.07607  -2.12447 
 S                    -1.83371   0.00584   1.56436 
 C                     2.37499   1.23851   0.172 
 H                     1.86023   2.18843   0.04196 
 
 NAtoms=     33 NQM=       33 NQMF=       0 NMMI=      0 NMMIF=      0
                NMic=       0 NMicF=      0.
                    Isotopes and Nuclear Properties:
 (Nuclear quadrupole moments (NQMom) in fm**2, nuclear magnetic moments (NMagM)
  in nuclear magnetons)

  Atom         1           2           3           4           5           6           7           8           9          10
 IAtWgt=          12          12          12          12          12          12          12          12          12           1
 AtmWgt=  12.0000000  12.0000000  12.0000000  12.0000000  12.0000000  12.0000000  12.0000000  12.0000000  12.0000000   1.0078250
 NucSpn=           0           0           0           0           0           0           0           0           0           1
 AtZEff=   0.0000000   0.0000000   0.0000000   0.0000000   0.0000000   0.0000000   0.0000000   0.0000000   0.0000000   0.0000000
 NQMom=    0.0000000   0.0000000   0.0000000   0.0000000   0.0000000   0.0000000   0.0000000   0.0000000   0.0000000   0.0000000
 NMagM=    0.0000000   0.0000000   0.0000000   0.0000000   0.0000000   0.0000000   0.0000000   0.0000000   0.0000000   2.7928460
 AtZNuc=   6.0000000   6.0000000   6.0000000   6.0000000   6.0000000   6.0000000   6.0000000   6.0000000   6.0000000   1.0000000

  Atom        11          12          13          14          15          16          17          18          19          20
 IAtWgt=          12          12          12           1           1           1           1           1          12          12
 AtmWgt=  12.0000000  12.0000000  12.0000000   1.0078250   1.0078250   1.0078250   1.0078250   1.0078250  12.0000000  12.0000000
 NucSpn=           0           0           0           1           1           1           1           1           0           0
 AtZEff=   0.0000000   0.0000000   0.0000000   0.0000000   0.0000000   0.0000000   0.0000000   0.0000000   0.0000000   0.0000000
 NQMom=    0.0000000   0.0000000   0.0000000   0.0000000   0.0000000   0.0000000   0.0000000   0.0000000   0.0000000   0.0000000
 NMagM=    0.0000000   0.0000000   0.0000000   2.7928460   2.7928460   2.7928460   2.7928460   2.7928460   0.0000000   0.0000000
 AtZNuc=   6.0000000   6.0000000   6.0000000   1.0000000   1.0000000   1.0000000   1.0000000   1.0000000   6.0000000   6.0000000

  Atom        21          22          23          24          25          26          27          28          29          30
 IAtWgt=          12          12          12           1           1           1           1           1          14           1
 AtmWgt=  12.0000000  12.0000000  12.0000000   1.0078250   1.0078250   1.0078250   1.0078250   1.0078250  14.0030740   1.0078250
 NucSpn=           0           0           0           1           1           1           1           1           2           1
 AtZEff=   0.0000000   0.0000000   0.0000000   0.0000000   0.0000000   0.0000000   0.0000000   0.0000000   0.0000000   0.0000000
 NQMom=    0.0000000   0.0000000   0.0000000   0.0000000   0.0000000   0.0000000   0.0000000   0.0000000   2.0440000   0.0000000
 NMagM=    0.0000000   0.0000000   0.0000000   2.7928460   2.7928460   2.7928460   2.7928460   2.7928460   0.4037610   2.7928460
 AtZNuc=   6.0000000   6.0000000   6.0000000   1.0000000   1.0000000   1.0000000   1.0000000   1.0000000   7.0000000   1.0000000

  Atom        31          32          33
 IAtWgt=          32          12           1
 AtmWgt=  31.9720718  12.0000000   1.0078250
 NucSpn=           0           0           1
 AtZEff=   0.0000000   0.0000000   0.0000000
 NQMom=    0.0000000   0.0000000   0.0000000
 NMagM=    0.0000000   0.0000000   2.7928460
 AtZNuc=  16.0000000   6.0000000   1.0000000
 Leave Link  101 at Sat Mar 27 19:32:50 2021, MaxMem=  5242880000 cpu:         4.3
 (Enter /opt/nce/packages/global/g09/l103.exe)

 GradGradGradGradGradGradGradGradGradGradGradGradGradGradGradGradGradGrad
 Berny optimization.
 Initialization pass.
                           ----------------------------
                           !    Initial Parameters    !
                           ! (Angstroms and Degrees)  !
 --------------------------                            --------------------------
 ! Name  Definition              Value          Derivative Info.                !
 --------------------------------------------------------------------------------
 ! R1    R(1,2)                  1.3957         estimate D2E/DX2                !
 ! R2    R(1,6)                  1.399          estimate D2E/DX2                !
 ! R3    R(1,28)                 1.0923         estimate D2E/DX2                !
 ! R4    R(2,3)                  1.3997         estimate D2E/DX2                !
 ! R5    R(2,14)                 1.0921         estimate D2E/DX2                !
 ! R6    R(3,4)                  1.4061         estimate D2E/DX2                !
 ! R7    R(3,31)                 1.7811         estimate D2E/DX2                !
 ! R8    R(4,5)                  1.4001         estimate D2E/DX2                !
 ! R9    R(4,29)                 1.4236         estimate D2E/DX2                !
 ! R10   R(5,6)                  1.3958         estimate D2E/DX2                !
 ! R11   R(5,15)                 1.0913         estimate D2E/DX2                !
 ! R12   R(6,16)                 1.0922         estimate D2E/DX2                !
 ! R13   R(7,8)                  1.406          estimate D2E/DX2                !
 ! R14   R(7,13)                 1.4001         estimate D2E/DX2                !
 ! R15   R(7,29)                 1.4237         estimate D2E/DX2                !
 ! R16   R(8,9)                  1.3997         estimate D2E/DX2                !
 ! R17   R(8,31)                 1.7811         estimate D2E/DX2                !
 ! R18   R(9,10)                 1.0921         estimate D2E/DX2                !
 ! R19   R(9,11)                 1.3957         estimate D2E/DX2                !
 ! R20   R(11,12)                1.3991         estimate D2E/DX2                !
 ! R21   R(11,17)                1.0923         estimate D2E/DX2                !
 ! R22   R(12,13)                1.3958         estimate D2E/DX2                !
 ! R23   R(12,18)                1.0922         estimate D2E/DX2                !
 ! R24   R(13,30)                1.0913         estimate D2E/DX2                !
 ! R25   R(19,20)                1.4096         estimate D2E/DX2                !
 ! R26   R(19,29)                1.4148         estimate D2E/DX2                !
 ! R27   R(19,32)                1.4095         estimate D2E/DX2                !
 ! R28   R(20,21)                1.3948         estimate D2E/DX2                !
 ! R29   R(20,26)                1.0882         estimate D2E/DX2                !
 ! R30   R(21,23)                1.3965         estimate D2E/DX2                !
 ! R31   R(21,24)                1.0931         estimate D2E/DX2                !
 ! R32   R(22,23)                1.3964         estimate D2E/DX2                !
 ! R33   R(22,25)                1.0931         estimate D2E/DX2                !
 ! R34   R(22,32)                1.3948         estimate D2E/DX2                !
 ! R35   R(23,27)                1.0918         estimate D2E/DX2                !
 ! R36   R(32,33)                1.0882         estimate D2E/DX2                !
 ! A1    A(2,1,6)              120.0857         estimate D2E/DX2                !
 ! A2    A(2,1,28)             119.7018         estimate D2E/DX2                !
 ! A3    A(6,1,28)             120.1977         estimate D2E/DX2                !
 ! A4    A(1,2,3)              119.8206         estimate D2E/DX2                !
 ! A5    A(1,2,14)             120.6744         estimate D2E/DX2                !
 ! A6    A(3,2,14)             119.5036         estimate D2E/DX2                !
 ! A7    A(2,3,4)              120.3311         estimate D2E/DX2                !
 ! A8    A(2,3,31)             120.7702         estimate D2E/DX2                !
 ! A9    A(4,3,31)             118.8966         estimate D2E/DX2                !
 ! A10   A(3,4,5)              119.2789         estimate D2E/DX2                !
 ! A11   A(3,4,29)             119.0612         estimate D2E/DX2                !
 ! A12   A(5,4,29)             121.6424         estimate D2E/DX2                !
 ! A13   A(4,5,6)              120.3184         estimate D2E/DX2                !
 ! A14   A(4,5,15)             118.7713         estimate D2E/DX2                !
 ! A15   A(6,5,15)             120.8999         estimate D2E/DX2                !
 ! A16   A(1,6,5)              120.0697         estimate D2E/DX2                !
 ! A17   A(1,6,16)             120.1732         estimate D2E/DX2                !
 ! A18   A(5,6,16)             119.753          estimate D2E/DX2                !
 ! A19   A(8,7,13)             119.2868         estimate D2E/DX2                !
 ! A20   A(8,7,29)             119.0563         estimate D2E/DX2                !
 ! A21   A(13,7,29)            121.6395         estimate D2E/DX2                !
 ! A22   A(7,8,9)              120.3249         estimate D2E/DX2                !
 ! A23   A(7,8,31)             118.9012         estimate D2E/DX2                !
 ! A24   A(9,8,31)             120.7717         estimate D2E/DX2                !
 ! A25   A(8,9,10)             119.5055         estimate D2E/DX2                !
 ! A26   A(8,9,11)             119.8216         estimate D2E/DX2                !
 ! A27   A(10,9,11)            120.6715         estimate D2E/DX2                !
 ! A28   A(9,11,12)            120.0883         estimate D2E/DX2                !
 ! A29   A(9,11,17)            119.7            estimate D2E/DX2                !
 ! A30   A(12,11,17)           120.1968         estimate D2E/DX2                !
 ! A31   A(11,12,13)           120.0684         estimate D2E/DX2                !
 ! A32   A(11,12,18)           120.1693         estimate D2E/DX2                !
 ! A33   A(13,12,18)           119.7582         estimate D2E/DX2                !
 ! A34   A(7,13,12)            120.3144         estimate D2E/DX2                !
 ! A35   A(7,13,30)            118.7682         estimate D2E/DX2                !
 ! A36   A(12,13,30)           120.907          estimate D2E/DX2                !
 ! A37   A(20,19,29)           121.0375         estimate D2E/DX2                !
 ! A38   A(20,19,32)           117.9168         estimate D2E/DX2                !
 ! A39   A(29,19,32)           121.0352         estimate D2E/DX2                !
 ! A40   A(19,20,21)           120.6992         estimate D2E/DX2                !
 ! A41   A(19,20,26)           120.1999         estimate D2E/DX2                !
 ! A42   A(21,20,26)           119.0949         estimate D2E/DX2                !
 ! A43   A(20,21,23)           121.1302         estimate D2E/DX2                !
 ! A44   A(20,21,24)           118.7801         estimate D2E/DX2                !
 ! A45   A(23,21,24)           120.0886         estimate D2E/DX2                !
 ! A46   A(23,22,25)           120.0941         estimate D2E/DX2                !
 ! A47   A(23,22,32)           121.13           estimate D2E/DX2                !
 ! A48   A(25,22,32)           118.7748         estimate D2E/DX2                !
 ! A49   A(21,23,22)           118.4067         estimate D2E/DX2                !
 ! A50   A(21,23,27)           120.7921         estimate D2E/DX2                !
 ! A51   A(22,23,27)           120.799          estimate D2E/DX2                !
 ! A52   A(4,29,7)             114.8971         estimate D2E/DX2                !
 ! A53   A(4,29,19)            121.021          estimate D2E/DX2                !
 ! A54   A(7,29,19)            121.0219         estimate D2E/DX2                !
 ! A55   A(3,31,8)              97.8802         estimate D2E/DX2                !
 ! A56   A(19,32,22)           120.7001         estimate D2E/DX2                !
 ! A57   A(19,32,33)           120.2054         estimate D2E/DX2                !
 ! A58   A(22,32,33)           119.0884         estimate D2E/DX2                !
 ! D1    D(6,1,2,3)              2.0071         estimate D2E/DX2                !
 ! D2    D(6,1,2,14)          -177.5489         estimate D2E/DX2                !
 ! D3    D(28,1,2,3)          -179.389          estimate D2E/DX2                !
 ! D4    D(28,1,2,14)            1.0549         estimate D2E/DX2                !
 ! D5    D(2,1,6,5)             -0.8782         estimate D2E/DX2                !
 ! D6    D(2,1,6,16)           178.3857         estimate D2E/DX2                !
 ! D7    D(28,1,6,5)          -179.4751         estimate D2E/DX2                !
 ! D8    D(28,1,6,16)           -0.2111         estimate D2E/DX2                !
 ! D9    D(1,2,3,4)             -0.3788         estimate D2E/DX2                !
 ! D10   D(1,2,3,31)          -179.8438         estimate D2E/DX2                !
 ! D11   D(14,2,3,4)           179.1825         estimate D2E/DX2                !
 ! D12   D(14,2,3,31)           -0.2825         estimate D2E/DX2                !
 ! D13   D(2,3,4,5)             -2.3602         estimate D2E/DX2                !
 ! D14   D(2,3,4,29)           179.1366         estimate D2E/DX2                !
 ! D15   D(31,3,4,5)           177.1148         estimate D2E/DX2                !
 ! D16   D(31,3,4,29)           -1.3884         estimate D2E/DX2                !
 ! D17   D(2,3,31,8)           143.6135         estimate D2E/DX2                !
 ! D18   D(4,3,31,8)           -35.8591         estimate D2E/DX2                !
 ! D19   D(3,4,5,6)              3.497          estimate D2E/DX2                !
 ! D20   D(3,4,5,15)          -177.6641         estimate D2E/DX2                !
 ! D21   D(29,4,5,6)          -178.0398         estimate D2E/DX2                !
 ! D22   D(29,4,5,15)            0.7991         estimate D2E/DX2                !
 ! D23   D(3,4,29,7)            49.1325         estimate D2E/DX2                !
 ! D24   D(3,4,29,19)         -111.2738         estimate D2E/DX2                !
 ! D25   D(5,4,29,7)          -129.334          estimate D2E/DX2                !
 ! D26   D(5,4,29,19)           70.2597         estimate D2E/DX2                !
 ! D27   D(4,5,6,1)             -1.8997         estimate D2E/DX2                !
 ! D28   D(4,5,6,16)           178.8333         estimate D2E/DX2                !
 ! D29   D(15,5,6,1)           179.2865         estimate D2E/DX2                !
 ! D30   D(15,5,6,16)            0.0194         estimate D2E/DX2                !
 ! D31   D(13,7,8,9)             2.3599         estimate D2E/DX2                !
 ! D32   D(13,7,8,31)         -177.1164         estimate D2E/DX2                !
 ! D33   D(29,7,8,9)          -179.1361         estimate D2E/DX2                !
 ! D34   D(29,7,8,31)            1.3876         estimate D2E/DX2                !
 ! D35   D(8,7,13,12)           -3.4968         estimate D2E/DX2                !
 ! D36   D(8,7,13,30)          177.6635         estimate D2E/DX2                !
 ! D37   D(29,7,13,12)         178.0393         estimate D2E/DX2                !
 ! D38   D(29,7,13,30)          -0.8005         estimate D2E/DX2                !
 ! D39   D(8,7,29,4)           -49.1317         estimate D2E/DX2                !
 ! D40   D(8,7,29,19)          111.2745         estimate D2E/DX2                !
 ! D41   D(13,7,29,4)          129.3357         estimate D2E/DX2                !
 ! D42   D(13,7,29,19)         -70.2581         estimate D2E/DX2                !
 ! D43   D(7,8,9,10)          -179.1868         estimate D2E/DX2                !
 ! D44   D(7,8,9,11)             0.3775         estimate D2E/DX2                !
 ! D45   D(31,8,9,10)            0.2797         estimate D2E/DX2                !
 ! D46   D(31,8,9,11)          179.8439         estimate D2E/DX2                !
 ! D47   D(7,8,31,3)            35.8597         estimate D2E/DX2                !
 ! D48   D(9,8,31,3)          -143.6142         estimate D2E/DX2                !
 ! D49   D(8,9,11,12)           -2.004          estimate D2E/DX2                !
 ! D50   D(8,9,11,17)          179.3929         estimate D2E/DX2                !
 ! D51   D(10,9,11,12)         177.5551         estimate D2E/DX2                !
 ! D52   D(10,9,11,17)          -1.0481         estimate D2E/DX2                !
 ! D53   D(9,11,12,13)           0.8749         estimate D2E/DX2                !
 ! D54   D(9,11,12,18)        -178.383          estimate D2E/DX2                !
 ! D55   D(17,11,12,13)        179.4711         estimate D2E/DX2                !
 ! D56   D(17,11,12,18)          0.2132         estimate D2E/DX2                !
 ! D57   D(11,12,13,7)           1.901          estimate D2E/DX2                !
 ! D58   D(11,12,13,30)       -179.2844         estimate D2E/DX2                !
 ! D59   D(18,12,13,7)        -178.838          estimate D2E/DX2                !
 ! D60   D(18,12,13,30)         -0.0234         estimate D2E/DX2                !
 ! D61   D(29,19,20,21)        179.8571         estimate D2E/DX2                !
 ! D62   D(29,19,20,26)         -1.0437         estimate D2E/DX2                !
 ! D63   D(32,19,20,21)         -1.3109         estimate D2E/DX2                !
 ! D64   D(32,19,20,26)        177.7883         estimate D2E/DX2                !
 ! D65   D(20,19,29,4)         169.0096         estimate D2E/DX2                !
 ! D66   D(20,19,29,7)           9.8            estimate D2E/DX2                !
 ! D67   D(32,19,29,4)          -9.7859         estimate D2E/DX2                !
 ! D68   D(32,19,29,7)        -168.9955         estimate D2E/DX2                !
 ! D69   D(20,19,32,22)          1.3097         estimate D2E/DX2                !
 ! D70   D(20,19,32,33)       -177.7849         estimate D2E/DX2                !
 ! D71   D(29,19,32,22)       -179.8583         estimate D2E/DX2                !
 ! D72   D(29,19,32,33)          1.0471         estimate D2E/DX2                !
 ! D73   D(19,20,21,23)          0.3197         estimate D2E/DX2                !
 ! D74   D(19,20,21,24)        179.9379         estimate D2E/DX2                !
 ! D75   D(26,20,21,23)       -178.7893         estimate D2E/DX2                !
 ! D76   D(26,20,21,24)          0.8289         estimate D2E/DX2                !
 ! D77   D(20,21,23,22)          0.6969         estimate D2E/DX2                !
 ! D78   D(20,21,23,27)       -179.8487         estimate D2E/DX2                !
 ! D79   D(24,21,23,22)       -178.9163         estimate D2E/DX2                !
 ! D80   D(24,21,23,27)          0.5381         estimate D2E/DX2                !
 ! D81   D(25,22,23,21)        178.918          estimate D2E/DX2                !
 ! D82   D(25,22,23,27)         -0.5363         estimate D2E/DX2                !
 ! D83   D(32,22,23,21)         -0.6981         estimate D2E/DX2                !
 ! D84   D(32,22,23,27)        179.8475         estimate D2E/DX2                !
 ! D85   D(23,22,32,19)         -0.3173         estimate D2E/DX2                !
 ! D86   D(23,22,32,33)        178.7872         estimate D2E/DX2                !
 ! D87   D(25,22,32,19)       -179.9384         estimate D2E/DX2                !
 ! D88   D(25,22,32,33)         -0.8338         estimate D2E/DX2                !
 --------------------------------------------------------------------------------
 Trust Radius=3.00D-01 FncErr=1.00D-07 GrdErr=1.00D-06
 Number of steps in this run=    192 maximum allowed number of steps=    198.
 GradGradGradGradGradGradGradGradGradGradGradGradGradGradGradGradGradGrad

 Leave Link  103 at Sat Mar 27 19:32:50 2021, MaxMem=  5242880000 cpu:         0.2
 (Enter /opt/nce/packages/global/g09/l202.exe)
                          Input orientation:                          
 ---------------------------------------------------------------------
 Center     Atomic      Atomic             Coordinates (Angstroms)
 Number     Number       Type             X           Y           Z
 ---------------------------------------------------------------------
      1          6           0       -1.965872    3.557948   -0.412902
      2          6           0       -2.253168    2.519367    0.474144
      3          6           0       -1.486629    1.348512    0.446759
      4          6           0       -0.433970    1.210384   -0.475097
      5          6           0       -0.192888    2.235487   -1.397816
      6          6           0       -0.941805    3.412564   -1.354961
      7          6           0       -0.417880   -1.189617   -0.469365
      8          6           0       -1.468582   -1.337363    0.453187
      9          6           0       -2.219298   -2.518310    0.486174
     10          1           0       -3.041027   -2.613564    1.199214
     11          6           0       -1.918035   -3.557138   -0.395900
     12          6           0       -0.895948   -3.402570   -1.338669
     13          6           0       -0.162927   -2.215764   -1.387196
     14          1           0       -3.076148    2.606890    1.186728
     15          1           0        0.601304    2.103043   -2.134497
     16          1           0       -0.733145    4.213953   -2.067033
     17          1           0       -2.498707   -4.481636   -0.361725
     18          1           0       -0.676625   -4.204520   -2.046893
     19          6           0        1.692326    0.025680   -0.051024
     20          6           0        2.391414   -1.176811    0.177515
     21          6           0        3.725331   -1.158657    0.584578
     22          6           0        3.709052    1.240343    0.579135
     23          6           0        4.403146    0.045981    0.783403
     24          1           0        4.236905   -2.109705    0.753795
     25          1           0        4.207568    2.199061    0.743959
     26          1           0        1.889530   -2.134165    0.051743
     27          1           0        5.448104    0.053734    1.099740
     28          1           0       -2.558872    4.474739   -0.383109
     29          7           0        0.340059    0.015583   -0.466952
     30          1           0        0.629453   -2.076072   -2.124470
     31         16           0       -1.833705    0.005836    1.564355
     32          6           0        2.374986    1.238513    0.171997
     33          1           0        1.860230    2.188433    0.041957
 ---------------------------------------------------------------------
                    Distance matrix (angstroms):
                    1          2          3          4          5
     1  C    0.000000
     2  C    1.395722   0.000000
     3  C    2.418739   1.399726   0.000000
     4  C    2.803863   2.433922   1.406054   0.000000
     5  C    2.421246   2.798138   2.421352   1.400131   0.000000
     6  C    1.399044   2.421384   2.793446   2.425212   1.395788
     7  C    4.993880   4.244414   2.902345   2.400062   3.555837
     8  C    4.996146   3.935782   2.685943   2.902266   4.221240
     9  C    6.147640   5.037805   3.935819   4.244361   5.500395
    10  H    6.468573   5.243418   4.322081   4.921650   6.194333
    11  C    7.115267   6.147618   4.996157   4.993795   6.126538
    12  C    7.102858   6.340164   5.109739   4.715774   5.682031
    13  C    6.126631   5.500469   4.221332   3.555823   4.451364
    14  H    2.167035   1.092123   2.158157   3.419502   3.889858
    15  H    3.416289   3.889260   3.404653   2.149940   1.091321
    16  H    2.164742   3.411696   3.885568   3.412505   2.157326
    17  H    8.057384   7.054999   5.972317   6.055996   7.177049
    18  H    8.036666   7.351991   6.140893   5.643634   6.490685
    19  C    5.098067   4.696935   3.478998   2.470728   3.201738
    20  C    6.461616   5.943220   4.635619   3.755982   4.561147
    21  C    7.458627   7.020150   5.785276   4.902556   5.550004
    22  C    6.209685   6.098770   5.198493   4.275153   4.485954
    23  C    7.370851   7.107728   6.041470   5.131993   5.538518
    24  H    8.482801   7.976689   6.694205   5.860908   6.567586
    25  H    6.426217   6.474296   5.765036   4.899740   4.894133
    26  H    6.890586   6.244656   4.866572   4.106363   5.052875
    27  H    8.338743   8.110506   7.084727   6.198124   6.543594
    28  H    1.092265   2.156807   3.407592   3.896111   3.412002
    29  N    4.227125   3.725510   2.438925   1.423635   2.465464
    30  H    6.434855   6.015011   4.776693   3.827805   4.449024
    31  S    4.067495   2.771705   1.781084   2.751283   4.054390
    32  C    4.956302   4.811620   3.872940   2.882665   3.170528
    33  H    4.089196   4.149258   3.474305   2.547014   2.508078
                    6          7          8          9         10
     6  C    0.000000
     7  C    4.715808   0.000000
     8  C    5.109667   1.406025   0.000000
     9  C    6.340113   2.433842   1.399749   0.000000
    10  H    6.873482   3.419456   2.158200   1.092125   0.000000
    11  C    7.102786   2.803751   2.418751   1.395700   2.166987
    12  C    6.815308   2.425160   2.793517   2.421409   3.415369
    13  C    5.682057   1.400140   2.421432   2.798162   3.889887
    14  H    3.415364   4.921636   4.321977   5.243343   5.220587
    15  H    2.168803   3.827925   4.776707   6.015032   6.828366
    16  H    1.092158   5.643625   6.140805   7.351930   7.912628
    17  H    8.107333   3.896000   3.407593   2.156769   2.494060
    18  H    7.653042   3.412504   3.885638   3.411682   4.319577
    19  C    4.484404   2.470815   3.479002   4.696943   5.561774
    20  C    5.875474   2.882837   3.873156   4.811814   5.711352
    21  C    6.814692   4.275272   5.198647   6.098931   6.948247
    22  C    5.485412   4.902614   5.785181   7.020075   7.797478
    23  C    6.668957   5.132097   6.041512   7.107791   7.915920
    24  H    7.858839   4.899970   5.765367   6.474653   7.308937
    25  H    5.691581   5.860893   6.693991   7.976506   8.712677
    26  H    6.384472   2.547129   3.474618   4.149550   5.084969
    27  H    7.624843   6.198208   7.084753   8.110544   8.898861
    28  H    2.165091   6.056089   5.972324   7.055048   7.278754
    29  N    3.737809   1.423722   2.438914   3.725503   4.595679
    30  H    5.760740   2.149903   3.404667   3.889270   4.980783
    31  S    4.574242   2.751306   1.781065   2.771727   2.907269
    32  C    4.249612   3.755963   4.635431   5.943052   6.725092
    33  H    3.361737   4.106392   4.866347   6.244462   6.958501
                   11         12         13         14         15
    11  C    0.000000
    12  C    1.399059   0.000000
    13  C    2.421230   1.395773   0.000000
    14  H    6.468476   6.873464   6.194347   0.000000
    15  H    6.434861   5.760806   4.449112   4.980768   0.000000
    16  H    8.036573   7.653002   6.490654   4.319638   2.498249
    17  H    1.092266   2.165096   3.411984   7.278623   7.490713
    18  H    2.164712   1.092157   2.157368   7.912605   6.436313
    19  C    5.098061   4.484428   3.201779   5.561746   3.137933
    20  C    4.956421   4.249655   3.170552   6.725261   4.394011
    21  C    6.209801   5.485458   4.485969   7.797567   5.271774
    22  C    7.458594   6.814737   5.550077   6.948062   4.214991
    23  C    7.370926   6.669040   5.538593   7.915855   5.215328
    24  H    6.426519   5.691756   4.894243   8.712890   6.269535
    25  H    8.482695   7.858848   6.567627   7.308549   4.615178
    26  H    4.089351   3.361694   2.507944   6.958718   4.938937
    27  H    8.338785   7.624885   6.543634   8.898823   6.176684
    28  H    8.057412   8.107429   7.177156   2.494158   4.321923
    29  N    4.227100   3.737830   2.465513   4.595650   2.684482
    30  H    3.416315   2.168854   1.091308   6.828297   4.179222
    31  S    4.067492   4.574294   4.054462   2.907189   4.899903
    32  C    6.461486   5.875438   4.561153   5.711129   3.035338
    33  H    6.890471   6.384509   5.052979   5.084627   2.515778
                   16         17         18         19         20
    16  H    0.000000
    17  H    9.035406   0.000000
    18  H    8.418687   2.497312   0.000000
    19  C    5.242979   6.162564   5.243092   0.000000
    20  C    6.622779   5.926713   4.850554   1.409588   0.000000
    21  C    7.468198   7.118731   5.964825   2.437161   1.394763
    22  C    5.964702   8.494853   7.468381   2.437148   2.782104
    23  C    7.202670   8.333439   7.202875   2.836411   2.430923
    24  H    8.523328   7.227649   6.031159   3.417965   2.146678
    25  H    6.030930   9.530392   8.523500   3.417898   3.875021
    26  H    7.187923   4.993816   3.908426   2.171263   1.088225
    27  H    8.095907   9.265920   8.096069   3.928220   3.421709
    28  H    2.497376   8.956603   9.035517   6.162556   7.533900
    29  N    4.619344   5.319271   4.619430   1.414823   2.458699
    30  H    6.436178   4.321966   2.498429   3.137872   3.035179
    31  S    5.666256   4.928429   5.666308   3.878497   4.601479
    32  C    4.850462   7.533780   6.622870   1.409513   2.415386
    33  H    3.908473   7.978290   7.188100   2.171253   3.409604
                   21         22         23         24         25
    21  C    0.000000
    22  C    2.399061   0.000000
    23  C    1.396466   1.396421   0.000000
    24  H    1.093085   3.395873   2.162289   0.000000
    25  H    3.395913   1.093081   2.162304   4.308877   0.000000
    26  H    2.146088   3.869898   3.406850   2.450234   4.962793
    27  H    2.168693   2.168726   1.091818   2.503428   2.503585
    28  H    8.494868   7.118574   8.333327   9.530479   7.227289
    29  N    3.734250   3.734227   4.251234   4.603529   4.603423
    30  H    4.214861   5.271814   5.215323   4.615111   6.269574
    31  S    5.763583   5.763404   6.285683   6.479570   6.479218
    32  C    2.782100   1.394811   2.430922   3.875022   2.146660
    33  H    3.869890   2.146061   3.406797   4.962790   2.450085
                   26         27         28         29         30
    26  H    0.000000
    27  H    4.306814   0.000000
    28  H    7.978408   9.265840   0.000000
    29  N    2.700245   5.343042   5.319295   0.000000
    30  H    2.515367   6.176650   7.490720   2.684425   0.000000
    31  S    4.553030   7.296774   4.928446   2.975156   4.899890
    32  C    3.409558   3.421763   5.926572   2.458606   4.393987
    33  H    4.322708   4.306818   4.993630   2.700220   4.939051
                   31         32         33
    31  S    0.000000
    32  C    4.601221   0.000000
    33  H    4.552646   1.088224   0.000000
 Symmetry turned off by external request.
 Stoichiometry    C18H13NS
 Framework group  C1[X(C18H13NS)]
 Deg. of freedom    93
 Full point group                 C1      NOp   1
 Rotational constants (GHZ):      0.3749666      0.3439519      0.2142863
 Leave Link  202 at Sat Mar 27 19:32:50 2021, MaxMem=  5242880000 cpu:         0.1
 (Enter /opt/nce/packages/global/g09/l301.exe)
 Standard basis: def2TZVP (5D, 7F)
 Ernie: Thresh=  0.10000D-02 Tol=  0.10000D-05 Strict=F.
   704 basis functions,  1142 primitive gaussians,   804 cartesian basis functions
    72 alpha electrons       72 beta electrons
       nuclear repulsion energy      1561.5731074347 Hartrees.
 IExCor= 1009 DFT=T Ex=PBE Corr=PBE ExCW=0 ScaHFX=  0.000000
 ScaDFX=  1.000000  1.000000  1.000000  1.000000 ScalE2=  1.000000  1.000000
 IRadAn=      5 IRanWt=     -1 IRanGd=            0 ICorTp=0 IEmpDi=141
 NAtoms=   33 NActive=   33 NUniq=   33 SFac= 1.00D+00 NAtFMM=   60 NAOKFM=F Big=F
 Integral buffers will be    131072 words long.
 Raffenetti 2 integral format.
 Two-electron integral symmetry is turned off.
 R6Disp:  Grimme-D3(BJ) Dispersion energy=       -0.0509795636 Hartrees.
 Nuclear repulsion after empirical dispersion term =     1561.5221278711 Hartrees.
 ------------------------------------------------------------------------------
 Polarizable Continuum Model (PCM)
 =================================
 Model                : PCM (using non-symmetric T matrix).
 Atomic radii         : SMD-Coulomb.
 Polarization charges : Total charges.
 Charge compensation  : None.
 Solution method      : On-the-fly selection.
 Cavity type          : VdW (van der Waals Surface) (Alpha=1.000).
 Cavity algorithm     : GePol (No added spheres)
                        Default sphere list used, NSphG=   33.
                        Lebedev-Laikov grids with approx.  5.0 points / Ang**2.
                        Smoothing algorithm: York/Karplus (Gamma=1.0000).
                        Polarization charges: spherical gaussians, with
                                              point-specific exponents (IZeta= 3).
                        Self-potential: point-specific (ISelfS= 7).
                        Self-field    : sphere-specific E.n sum rule (ISelfD= 2).
 1st derivatives      : Analytical E(r).r(x)/FMM algorithm (CHGder, D1EAlg=3).
                        Cavity 1st derivative terms included.
 Solvent              : n,n-DiMethylAcetamide, Eps=  37.781000 Eps(inf)=   2.067844
 ------------------------------------------------------------------------------
 GePol: Number of generator spheres                  =      33
 GePol: Total number of spheres                      =      33
 GePol: Number of exposed spheres                    =      33 (100.00%)
 GePol: Number of points                             =    2567
 GePol: Average weight of points                     =       0.11
 GePol: Minimum weight of points                     =   0.49D-11
 GePol: Maximum weight of points                     =    0.19854
 GePol: Number of points with low weight             =     142
 GePol: Fraction of low-weight points (<1% of avg)   =       5.53%
 GePol: Cavity surface area                          =    292.797 Ang**2
 GePol: Cavity volume                                =    293.541 Ang**3
 ------------------------------------------------------------------------------
 Atomic radii for non-electrostatic terms: SMD-CDS.
 ------------------------------------------------------------------------------
 PCM non-electrostatic energy =        -0.0051021016 Hartrees.
 Nuclear repulsion after PCM non-electrostatic terms =     1561.5170257696 Hartrees.
 Leave Link  301 at Sat Mar 27 19:32:51 2021, MaxMem=  5242880000 cpu:         2.1
 (Enter /opt/nce/packages/global/g09/l302.exe)
 NPDir=0 NMtPBC=     1 NCelOv=     1 NCel=       1 NClECP=     1 NCelD=      1
         NCelK=      1 NCelE2=     1 NClLst=     1 CellRange=     0.0.
 One-electron integrals computed using PRISM.
   1 Symmetry operations used in ECPInt.
 ECPInt:  NShTT=   37675 NPrTT=  118348 LenC2=   34059 LenP2D=   76440.
 LDataN:  DoStor=T MaxTD1= 6 Len=  172
 NBasis=   704 RedAO= T EigKep=  6.14D-06  NBF=   704
 NBsUse=   704 1.00D-06 EigRej= -1.00D+00 NBFU=   704
 Precomputing XC quadrature grid using
 IXCGrd= 4 IRadAn=           5 IRanWt=          -1 IRanGd=           0 AccXCQ= 0.00D+00.
 Generated NRdTot=       0 NPtTot=           0 NUsed=           0 NTot=          32
 NSgBfM=   792   792   792   792   792 MxSgAt=    33 MxSgA2=    33.
 Leave Link  302 at Sat Mar 27 19:32:52 2021, MaxMem=  5242880000 cpu:        13.1
 (Enter /opt/nce/packages/global/g09/l303.exe)
 DipDrv:  MaxL=1.
 Leave Link  303 at Sat Mar 27 19:32:52 2021, MaxMem=  5242880000 cpu:         1.5
 (Enter /opt/nce/packages/global/g09/l401.exe)
 ExpMin= 9.52D-02 ExpMax= 6.07D+04 ExpMxC= 2.07D+03 IAcc=3 IRadAn=         5 AccDes= 0.00D+00
 Harris functional with IExCor= 1009 and IRadAn=       5 diagonalized for initial guess.
 HarFok:  IExCor= 1009 AccDes= 0.00D+00 IRadAn=         5 IDoV= 1 UseB2=F ITyADJ=14
 ICtDFT=  3500011 ScaDFX=  1.000000  1.000000  1.000000  1.000000
 FoFCou: FMM=F IPFlag=           0 FMFlag=      100000 FMFlg1=           0
         NFxFlg=           0 DoJE=T BraDBF=F KetDBF=T FulRan=T
         wScrn=  0.000000 ICntrl=     500 IOpCl=  0 I1Cent=   200000004 NGrid=           0
         NMat0=    1 NMatS0=      1 NMatT0=    0 NMatD0=    1 NMtDS0=    0 NMtDT0=    0
 Symmetry not used in FoFCou.
 Harris En= -1146.16594691452    
 JPrj=0 DoOrth=F DoCkMO=F.
 Leave Link  401 at Sat Mar 27 19:32:58 2021, MaxMem=  5242880000 cpu:        67.2
 (Enter /opt/nce/packages/global/g09/l502.exe)
 Closed shell SCF:
 Using DIIS extrapolation, IDIIS=  1040.
 Two-electron integral symmetry not used.
 IVT=     1972336 IEndB=     1972336 NGot=  5242880000 MDV=  5241571525
 LenX=  5241571525 LenY=  5240924305
 Requested convergence on RMS density matrix=1.00D-08 within 128 cycles.
 Requested convergence on MAX density matrix=1.00D-06.
 Requested convergence on             energy=1.00D-06.
 No special actions if energy rises.
 Fock matrices will be formed incrementally for  20 cycles.

 Cycle   1  Pass 1  IDiag  1:
 FoFJK:  IHMeth= 1 ICntrl=     500 DoSepK=F KAlg= 0 I1Cent=   0 FoldK=F
 IRaf= 810000000 NMat=   1 IRICut=       1 DoRegI=T DoRafI=F ISym2E= 0.
 FoFCou: FMM=F IPFlag=           0 FMFlag=      100000 FMFlg1=           0
         NFxFlg=           0 DoJE=T BraDBF=F KetDBF=F FulRan=T
         wScrn=  0.000000 ICntrl=     500 IOpCl=  0 I1Cent=           0 NGrid=           0
         NMat0=    1 NMatS0=      1 NMatT0=    0 NMatD0=    1 NMtDS0=    0 NMtDT0=    0
 Symmetry not used in FoFCou.
 Inv3:  Mode=1 IEnd=    19768467.
 Iteration    1 A*A^-1 deviation from unit magnitude is 8.33D-15 for   2556.
 Iteration    1 A*A^-1 deviation from orthogonality  is 2.44D-15 for   1503    436.
 Iteration    1 A^-1*A deviation from unit magnitude is 7.99D-15 for   2556.
 Iteration    1 A^-1*A deviation from orthogonality  is 1.89D-06 for   2308   2284.
 Iteration    2 A*A^-1 deviation from unit magnitude is 3.11D-15 for    223.
 Iteration    2 A*A^-1 deviation from orthogonality  is 3.15D-15 for   2558    661.
 Iteration    2 A^-1*A deviation from unit magnitude is 9.99D-16 for    158.
 Iteration    2 A^-1*A deviation from orthogonality  is 8.79D-16 for   2549   1877.
 E= -1145.49127787456    
 DIIS: error= 1.77D-02 at cycle   1 NSaved=   1.
 NSaved= 1 IEnMin= 1 EnMin= -1145.49127787456     IErMin= 1 ErrMin= 1.77D-02
 ErrMax= 1.77D-02  0.00D+00 EMaxC= 1.00D-01 BMatC= 4.11D-01 BMatP= 4.11D-01
 IDIUse=3 WtCom= 8.23D-01 WtEn= 1.77D-01
 Coeff-Com:  0.100D+01
 Coeff-En:   0.100D+01
 Coeff:      0.100D+01
 Gap=     0.273 Goal=   None    Shift=    0.000
 GapD=    0.273 DampG=1.000 DampE=0.500 DampFc=0.5000 IDamp=-1.
 Damping current iteration by 5.00D-01
 RMSDP=3.23D-03 MaxDP=2.10D-01              OVMax= 3.30D-01

 Cycle   2  Pass 1  IDiag  1:
 RMSU=  1.61D-03    CP:  9.85D-01
 E= -1145.56940890692     Delta-E=       -0.078131032360 Rises=F Damp=T
 DIIS: error= 9.48D-03 at cycle   2 NSaved=   2.
 NSaved= 2 IEnMin= 2 EnMin= -1145.56940890692     IErMin= 2 ErrMin= 9.48D-03
 ErrMax= 9.48D-03  0.00D+00 EMaxC= 1.00D-01 BMatC= 7.29D-02 BMatP= 4.11D-01
 IDIUse=3 WtCom= 9.05D-01 WtEn= 9.48D-02
 Coeff-Com:  0.239D+00 0.761D+00
 Coeff-En:   0.412D+00 0.588D+00
 Coeff:      0.255D+00 0.745D+00
 Gap=     0.165 Goal=   None    Shift=    0.000
 RMSDP=1.72D-03 MaxDP=1.04D-01 DE=-7.81D-02 OVMax= 3.10D-01

 Cycle   3  Pass 1  IDiag  1:
 RMSU=  1.56D-03    CP:  9.96D-01  5.64D-01
 E= -1145.82586650247     Delta-E=       -0.256457595548 Rises=F Damp=F
 DIIS: error= 1.14D-02 at cycle   3 NSaved=   3.
 NSaved= 3 IEnMin= 3 EnMin= -1145.82586650247     IErMin= 2 ErrMin= 9.48D-03
 ErrMax= 1.14D-02  0.00D+00 EMaxC= 1.00D-01 BMatC= 7.57D-02 BMatP= 7.29D-02
 IDIUse=3 WtCom= 8.86D-01 WtEn= 1.14D-01
 Coeff-Com:  0.836D-01 0.501D+00 0.416D+00
 Coeff-En:   0.000D+00 0.000D+00 0.100D+01
 Coeff:      0.740D-01 0.444D+00 0.482D+00
 Gap=     0.130 Goal=   None    Shift=    0.000
 RMSDP=1.07D-03 MaxDP=5.22D-02 DE=-2.56D-01 OVMax= 1.67D-01

 Cycle   4  Pass 1  IDiag  1:
 RMSU=  5.93D-04    CP:  9.79D-01  5.14D-01  4.42D-01
 E= -1145.87608357888     Delta-E=       -0.050217076415 Rises=F Damp=F
 DIIS: error= 7.68D-03 at cycle   4 NSaved=   4.
 NSaved= 4 IEnMin= 4 EnMin= -1145.87608357888     IErMin= 4 ErrMin= 7.68D-03
 ErrMax= 7.68D-03  0.00D+00 EMaxC= 1.00D-01 BMatC= 3.13D-02 BMatP= 7.29D-02
 IDIUse=3 WtCom= 9.23D-01 WtEn= 7.68D-02
 Coeff-Com:  0.108D-01 0.157D+00 0.381D+00 0.451D+00
 Coeff-En:   0.000D+00 0.000D+00 0.344D+00 0.656D+00
 Coeff:      0.994D-02 0.145D+00 0.378D+00 0.467D+00
 Gap=     0.123 Goal=   None    Shift=    0.000
 RMSDP=3.16D-04 MaxDP=1.67D-02 DE=-5.02D-02 OVMax= 7.57D-02

 Cycle   5  Pass 1  IDiag  1:
 RMSU=  2.49D-04    CP:  9.76D-01  5.37D-01  4.71D-01  6.88D-01
 E= -1145.90985500719     Delta-E=       -0.033771428314 Rises=F Damp=F
 DIIS: error= 1.14D-03 at cycle   5 NSaved=   5.
 NSaved= 5 IEnMin= 5 EnMin= -1145.90985500719     IErMin= 5 ErrMin= 1.14D-03
 ErrMax= 1.14D-03  0.00D+00 EMaxC= 1.00D-01 BMatC= 1.11D-03 BMatP= 3.13D-02
 IDIUse=3 WtCom= 9.89D-01 WtEn= 1.14D-02
 Coeff-Com:  0.698D-04 0.428D-01 0.181D+00 0.267D+00 0.509D+00
 Coeff-En:   0.000D+00 0.000D+00 0.000D+00 0.000D+00 0.100D+01
 Coeff:      0.690D-04 0.423D-01 0.179D+00 0.264D+00 0.514D+00
 Gap=     0.117 Goal=   None    Shift=    0.000
 RMSDP=1.68D-04 MaxDP=9.44D-03 DE=-3.38D-02 OVMax= 1.50D-02

 Cycle   6  Pass 1  IDiag  1:
 RMSU=  4.14D-05    CP:  9.80D-01  5.41D-01  5.46D-01  6.69D-01  5.69D-01
 E= -1145.91091931657     Delta-E=       -0.001064309379 Rises=F Damp=F
 DIIS: error= 4.50D-04 at cycle   6 NSaved=   6.
 NSaved= 6 IEnMin= 6 EnMin= -1145.91091931657     IErMin= 6 ErrMin= 4.50D-04
 ErrMax= 4.50D-04  0.00D+00 EMaxC= 1.00D-01 BMatC= 1.28D-04 BMatP= 1.11D-03
 IDIUse=3 WtCom= 9.96D-01 WtEn= 4.50D-03
 Coeff-Com: -0.928D-03 0.768D-02 0.607D-01 0.983D-01 0.296D+00 0.538D+00
 Coeff-En:   0.000D+00 0.000D+00 0.000D+00 0.000D+00 0.700D-01 0.930D+00
 Coeff:     -0.924D-03 0.765D-02 0.605D-01 0.978D-01 0.295D+00 0.540D+00
 Gap=     0.117 Goal=   None    Shift=    0.000
 RMSDP=2.02D-05 MaxDP=9.73D-04 DE=-1.06D-03 OVMax= 4.96D-03

 Cycle   7  Pass 1  IDiag  1:
 RMSU=  1.44D-05    CP:  9.80D-01  5.42D-01  5.45D-01  6.73D-01  5.97D-01
                    CP:  7.19D-01
 E= -1145.91102945432     Delta-E=       -0.000110137747 Rises=F Damp=F
 DIIS: error= 1.85D-04 at cycle   7 NSaved=   7.
 NSaved= 7 IEnMin= 7 EnMin= -1145.91102945432     IErMin= 7 ErrMin= 1.85D-04
 ErrMax= 1.85D-04  0.00D+00 EMaxC= 1.00D-01 BMatC= 2.13D-05 BMatP= 1.28D-04
 IDIUse=3 WtCom= 9.98D-01 WtEn= 1.85D-03
 Coeff-Com: -0.521D-03 0.137D-02 0.219D-01 0.374D-01 0.139D+00 0.346D+00
 Coeff-Com:  0.455D+00
 Coeff-En:   0.000D+00 0.000D+00 0.000D+00 0.000D+00 0.000D+00 0.135D+00
 Coeff-En:   0.865D+00
 Coeff:     -0.520D-03 0.136D-02 0.218D-01 0.373D-01 0.139D+00 0.345D+00
 Coeff:      0.456D+00
 Gap=     0.117 Goal=   None    Shift=    0.000
 RMSDP=8.67D-06 MaxDP=4.52D-04 DE=-1.10D-04 OVMax= 1.80D-03

 Cycle   8  Pass 1  IDiag  1:
 RMSU=  5.22D-06    CP:  9.79D-01  5.41D-01  5.43D-01  6.76D-01  6.06D-01
                    CP:  7.59D-01  6.98D-01
 E= -1145.91104929451     Delta-E=       -0.000019840189 Rises=F Damp=F
 DIIS: error= 4.76D-05 at cycle   8 NSaved=   8.
 NSaved= 8 IEnMin= 8 EnMin= -1145.91104929451     IErMin= 8 ErrMin= 4.76D-05
 ErrMax= 4.76D-05  0.00D+00 EMaxC= 1.00D-01 BMatC= 2.24D-06 BMatP= 2.13D-05
 IDIUse=1 WtCom= 1.00D+00 WtEn= 0.00D+00
 Coeff-Com: -0.126D-03-0.335D-03 0.401D-02 0.757D-02 0.403D-01 0.134D+00
 Coeff-Com:  0.285D+00 0.530D+00
 Coeff:     -0.126D-03-0.335D-03 0.401D-02 0.757D-02 0.403D-01 0.134D+00
 Coeff:      0.285D+00 0.530D+00
 Gap=     0.117 Goal=   None    Shift=    0.000
 RMSDP=3.10D-06 MaxDP=1.38D-04 DE=-1.98D-05 OVMax= 5.16D-04

 Cycle   9  Pass 1  IDiag  1:
 RMSU=  1.98D-06    CP:  9.79D-01  5.41D-01  5.42D-01  6.76D-01  6.10D-01
                    CP:  7.41D-01  7.43D-01  6.59D-01
 E= -1145.91105133345     Delta-E=       -0.000002038944 Rises=F Damp=F
 DIIS: error= 2.31D-05 at cycle   9 NSaved=   9.
 NSaved= 9 IEnMin= 9 EnMin= -1145.91105133345     IErMin= 9 ErrMin= 2.31D-05
 ErrMax= 2.31D-05  0.00D+00 EMaxC= 1.00D-01 BMatC= 3.16D-07 BMatP= 2.24D-06
 IDIUse=1 WtCom= 1.00D+00 WtEn= 0.00D+00
 Coeff-Com: -0.479D-05-0.289D-03 0.522D-03 0.115D-02 0.129D-01 0.522D-01
 Coeff-Com:  0.136D+00 0.343D+00 0.454D+00
 Coeff:     -0.479D-05-0.289D-03 0.522D-03 0.115D-02 0.129D-01 0.522D-01
 Coeff:      0.136D+00 0.343D+00 0.454D+00
 Gap=     0.117 Goal=   None    Shift=    0.000
 RMSDP=1.51D-06 MaxDP=8.62D-05 DE=-2.04D-06 OVMax= 1.90D-04

 Cycle  10  Pass 1  IDiag  1:
 RMSU=  4.46D-07    CP:  9.79D-01  5.41D-01  5.43D-01  6.76D-01  6.07D-01
                    CP:  7.53D-01  7.45D-01  7.14D-01  6.04D-01
 E= -1145.91105164303     Delta-E=       -0.000000309580 Rises=F Damp=F
 DIIS: error= 4.74D-06 at cycle  10 NSaved=  10.
 NSaved=10 IEnMin=10 EnMin= -1145.91105164303     IErMin=10 ErrMin= 4.74D-06
 ErrMax= 4.74D-06  0.00D+00 EMaxC= 1.00D-01 BMatC= 1.46D-08 BMatP= 3.16D-07
 IDIUse=1 WtCom= 1.00D+00 WtEn= 0.00D+00
 Coeff-Com:  0.373D-05-0.126D-03 0.772D-04 0.186D-03 0.513D-02 0.216D-01
 Coeff-Com:  0.599D-01 0.164D+00 0.262D+00 0.487D+00
 Coeff:      0.373D-05-0.126D-03 0.772D-04 0.186D-03 0.513D-02 0.216D-01
 Coeff:      0.599D-01 0.164D+00 0.262D+00 0.487D+00
 Gap=     0.117 Goal=   None    Shift=    0.000
 RMSDP=2.13D-07 MaxDP=1.22D-05 DE=-3.10D-07 OVMax= 5.70D-05

 Cycle  11  Pass 1  IDiag  1:
 RMSU=  1.59D-07    CP:  9.79D-01  5.41D-01  5.43D-01  6.76D-01  6.07D-01
                    CP:  7.52D-01  7.47D-01  7.21D-01  6.22D-01  7.61D-01
 E= -1145.91105165702     Delta-E=       -0.000000013988 Rises=F Damp=F
 DIIS: error= 2.19D-06 at cycle  11 NSaved=  11.
 NSaved=11 IEnMin=11 EnMin= -1145.91105165702     IErMin=11 ErrMin= 2.19D-06
 ErrMax= 2.19D-06  0.00D+00 EMaxC= 1.00D-01 BMatC= 1.85D-09 BMatP= 1.46D-08
 IDIUse=1 WtCom= 1.00D+00 WtEn= 0.00D+00
 Coeff-Com:  0.209D-05-0.270D-04-0.677D-05-0.279D-04 0.150D-02 0.613D-02
 Coeff-Com:  0.182D-01 0.539D-01 0.101D+00 0.303D+00 0.516D+00
 Coeff:      0.209D-05-0.270D-04-0.677D-05-0.279D-04 0.150D-02 0.613D-02
 Coeff:      0.182D-01 0.539D-01 0.101D+00 0.303D+00 0.516D+00
 Gap=     0.117 Goal=   None    Shift=    0.000
 RMSDP=9.03D-08 MaxDP=4.66D-06 DE=-1.40D-08 OVMax= 1.59D-05

 Cycle  12  Pass 1  IDiag  1:
 RMSU=  4.42D-08    CP:  9.79D-01  5.41D-01  5.43D-01  6.76D-01  6.07D-01
                    CP:  7.52D-01  7.47D-01  7.19D-01  6.28D-01  7.88D-01
                    CP:  7.12D-01
 E= -1145.91105165891     Delta-E=       -0.000000001887 Rises=F Damp=F
 DIIS: error= 7.47D-07 at cycle  12 NSaved=  12.
 NSaved=12 IEnMin=12 EnMin= -1145.91105165891     IErMin=12 ErrMin= 7.47D-07
 ErrMax= 7.47D-07  0.00D+00 EMaxC= 1.00D-01 BMatC= 1.70D-10 BMatP= 1.85D-09
 IDIUse=1 WtCom= 1.00D+00 WtEn= 0.00D+00
 Coeff-Com:  0.818D-06-0.835D-05-0.680D-05-0.257D-04 0.614D-03 0.244D-02
 Coeff-Com:  0.753D-02 0.232D-01 0.462D-01 0.160D+00 0.328D+00 0.432D+00
 Coeff:      0.818D-06-0.835D-05-0.680D-05-0.257D-04 0.614D-03 0.244D-02
 Coeff:      0.753D-02 0.232D-01 0.462D-01 0.160D+00 0.328D+00 0.432D+00
 Gap=     0.117 Goal=   None    Shift=    0.000
 RMSDP=2.49D-08 MaxDP=8.99D-07 DE=-1.89D-09 OVMax= 4.29D-06

 Cycle  13  Pass 1  IDiag  1:
 RMSU=  1.65D-08    CP:  9.79D-01  5.41D-01  5.43D-01  6.76D-01  6.07D-01
                    CP:  7.52D-01  7.47D-01  7.19D-01  6.32D-01  7.84D-01
                    CP:  7.09D-01  7.13D-01
 E= -1145.91105165908     Delta-E=       -0.000000000167 Rises=F Damp=F
 DIIS: error= 1.30D-07 at cycle  13 NSaved=  13.
 NSaved=13 IEnMin=13 EnMin= -1145.91105165908     IErMin=13 ErrMin= 1.30D-07
 ErrMax= 1.30D-07  0.00D+00 EMaxC= 1.00D-01 BMatC= 7.21D-12 BMatP= 1.70D-10
 IDIUse=1 WtCom= 1.00D+00 WtEn= 0.00D+00
 Coeff-Com:  0.612D-07-0.124D-05-0.355D-05-0.942D-05 0.956D-04 0.405D-03
 Coeff-Com:  0.135D-02 0.429D-02 0.894D-02 0.371D-01 0.909D-01 0.210D+00
 Coeff-Com:  0.647D+00
 Coeff:      0.612D-07-0.124D-05-0.355D-05-0.942D-05 0.956D-04 0.405D-03
 Coeff:      0.135D-02 0.429D-02 0.894D-02 0.371D-01 0.909D-01 0.210D+00
 Coeff:      0.647D+00
 Gap=     0.117 Goal=   None    Shift=    0.000
 RMSDP=7.84D-09 MaxDP=3.66D-07 DE=-1.67D-10 OVMax= 9.99D-07

 Error on total polarization charges =  0.05790
 SCF Done:  E(RPBE-PBE) =  -1145.91105166     A.U. after   13 cycles
            NFock= 13  Conv=0.78D-08     -V/T= 2.0038
 KE= 1.141615543277D+03 PE=-5.807427892545D+03 EE= 1.958384271840D+03
 SMD-CDS (non-electrostatic) energy       (kcal/mol) =      -3.20
 (included in total energy above)
 Leave Link  502 at Sat Mar 27 19:38:02 2021, MaxMem=  5242880000 cpu:      3629.3
 (Enter /opt/nce/packages/global/g09/l601.exe)
 Copying SCF densities to generalized density rwf, IOpCl= 0 IROHF=0.

 **********************************************************************

            Population analysis using the SCF density.

 **********************************************************************

 Alpha  occ. eigenvalues --  -88.06454 -14.02683  -9.93499  -9.93497  -9.93388
 Alpha  occ. eigenvalues --   -9.92789  -9.92788  -9.89639  -9.89639  -9.89402
 Alpha  occ. eigenvalues --   -9.89402  -9.89160  -9.89160  -9.89093  -9.89092
 Alpha  occ. eigenvalues --   -9.88407  -9.88407  -9.88091  -9.88090  -9.87572
 Alpha  occ. eigenvalues --   -7.68978  -5.71175  -5.70786  -5.70148  -0.89773
 Alpha  occ. eigenvalues --   -0.79347  -0.79057  -0.76647  -0.73554  -0.69506
 Alpha  occ. eigenvalues --   -0.68595  -0.68423  -0.66999  -0.65575  -0.62228
 Alpha  occ. eigenvalues --   -0.57393  -0.57261  -0.54556  -0.53857  -0.53758
 Alpha  occ. eigenvalues --   -0.50720  -0.48774  -0.48444  -0.44467  -0.43234
 Alpha  occ. eigenvalues --   -0.43025  -0.41850  -0.41322  -0.39755  -0.39154
 Alpha  occ. eigenvalues --   -0.39063  -0.38003  -0.37945  -0.36828  -0.36472
 Alpha  occ. eigenvalues --   -0.34947  -0.33694  -0.33692  -0.33006  -0.31680
 Alpha  occ. eigenvalues --   -0.31102  -0.30794  -0.30384  -0.29238  -0.28091
 Alpha  occ. eigenvalues --   -0.27137  -0.24069  -0.23983  -0.23295  -0.22921
 Alpha  occ. eigenvalues --   -0.20061  -0.17565
 Alpha virt. eigenvalues --   -0.05825  -0.05430  -0.05212  -0.05131  -0.03494
 Alpha virt. eigenvalues --   -0.02485  -0.01307   0.02272   0.03963   0.05182
 Alpha virt. eigenvalues --    0.05268   0.06111   0.06625   0.06991   0.07812
 Alpha virt. eigenvalues --    0.07847   0.08149   0.09013   0.09385   0.09801
 Alpha virt. eigenvalues --    0.10120   0.10460   0.10601   0.11536   0.11673
 Alpha virt. eigenvalues --    0.12683   0.13931   0.14766   0.14921   0.15758
 Alpha virt. eigenvalues --    0.16387   0.17122   0.17215   0.18223   0.18768
 Alpha virt. eigenvalues --    0.18799   0.19258   0.19688   0.19960   0.20946
 Alpha virt. eigenvalues --    0.21128   0.21343   0.21349   0.21696   0.22478
 Alpha virt. eigenvalues --    0.23030   0.23358   0.23481   0.24204   0.24247
 Alpha virt. eigenvalues --    0.25105   0.25493   0.26035   0.26131   0.26494
 Alpha virt. eigenvalues --    0.27548   0.27898   0.28359   0.28445   0.29089
 Alpha virt. eigenvalues --    0.29416   0.29533   0.30118   0.30345   0.31351
 Alpha virt. eigenvalues --    0.31883   0.32291   0.32484   0.34028   0.34432
 Alpha virt. eigenvalues --    0.34541   0.34697   0.35431   0.35463   0.36113
 Alpha virt. eigenvalues --    0.36790   0.37066   0.37883   0.38056   0.39076
 Alpha virt. eigenvalues --    0.39160   0.39770   0.40230   0.40311   0.40708
 Alpha virt. eigenvalues --    0.41488   0.41562   0.41711   0.42365   0.43030
 Alpha virt. eigenvalues --    0.43563   0.44092   0.44100   0.44782   0.44980
 Alpha virt. eigenvalues --    0.45423   0.45859   0.45896   0.46177   0.47360
 Alpha virt. eigenvalues --    0.47597   0.48016   0.48674   0.49021   0.49870
 Alpha virt. eigenvalues --    0.50636   0.51356   0.51443   0.53368   0.53431
 Alpha virt. eigenvalues --    0.53841   0.56122   0.56239   0.57165   0.58263
 Alpha virt. eigenvalues --    0.58437   0.60184   0.60273   0.61122   0.61555
 Alpha virt. eigenvalues --    0.62021   0.62603   0.62767   0.63677   0.64559
 Alpha virt. eigenvalues --    0.64947   0.65074   0.65245   0.65773   0.66375
 Alpha virt. eigenvalues --    0.67346   0.67382   0.68035   0.69142   0.70281
 Alpha virt. eigenvalues --    0.70433   0.71194   0.71350   0.72184   0.72237
 Alpha virt. eigenvalues --    0.73890   0.74294   0.74725   0.75937   0.77260
 Alpha virt. eigenvalues --    0.77691   0.78217   0.78540   0.79775   0.80216
 Alpha virt. eigenvalues --    0.80859   0.81754   0.82935   0.83210   0.83234
 Alpha virt. eigenvalues --    0.83904   0.84387   0.84798   0.85575   0.86754
 Alpha virt. eigenvalues --    0.87098   0.87909   0.88155   0.90107   0.90500
 Alpha virt. eigenvalues --    0.90952   0.92403   0.93393   0.94442   0.95872
 Alpha virt. eigenvalues --    0.96754   0.98037   0.98343   0.99006   1.00164
 Alpha virt. eigenvalues --    1.01399   1.01505   1.02299   1.02981   1.03608
 Alpha virt. eigenvalues --    1.05611   1.05635   1.06365   1.07297   1.08052
 Alpha virt. eigenvalues --    1.08791   1.08851   1.11091   1.12241   1.12870
 Alpha virt. eigenvalues --    1.12977   1.13551   1.15387   1.16012   1.17000
 Alpha virt. eigenvalues --    1.17140   1.18422   1.19169   1.19390   1.20010
 Alpha virt. eigenvalues --    1.20739   1.20989   1.22437   1.22949   1.23076
 Alpha virt. eigenvalues --    1.23712   1.24132   1.24426   1.26814   1.26860
 Alpha virt. eigenvalues --    1.27246   1.28124   1.29744   1.30779   1.32472
 Alpha virt. eigenvalues --    1.33320   1.33380   1.34828   1.35734   1.37141
 Alpha virt. eigenvalues --    1.37169   1.37705   1.39526   1.39565   1.39769
 Alpha virt. eigenvalues --    1.40749   1.41983   1.42975   1.43408   1.43803
 Alpha virt. eigenvalues --    1.44145   1.44546   1.46165   1.46273   1.46950
 Alpha virt. eigenvalues --    1.49190   1.49488   1.50471   1.50837   1.51926
 Alpha virt. eigenvalues --    1.52503   1.52851   1.53873   1.54971   1.54983
 Alpha virt. eigenvalues --    1.55665   1.55946   1.56559   1.56881   1.58247
 Alpha virt. eigenvalues --    1.58301   1.59291   1.59758   1.60889   1.61030
 Alpha virt. eigenvalues --    1.62136   1.62306   1.62399   1.63832   1.64207
 Alpha virt. eigenvalues --    1.65059   1.65390   1.65934   1.66572   1.66650
 Alpha virt. eigenvalues --    1.68896   1.69877   1.70121   1.71020   1.72181
 Alpha virt. eigenvalues --    1.72585   1.74602   1.75244   1.76372   1.77436
 Alpha virt. eigenvalues --    1.79432   1.79523   1.80703   1.81633   1.82160
 Alpha virt. eigenvalues --    1.82999   1.83824   1.85661   1.86082   1.87763
 Alpha virt. eigenvalues --    1.87859   1.88777   1.88903   1.91643   1.93105
 Alpha virt. eigenvalues --    1.94206   1.94859   1.95618   1.97287   1.98021
 Alpha virt. eigenvalues --    1.98713   1.99063   2.00445   2.00699   2.02605
 Alpha virt. eigenvalues --    2.02739   2.03884   2.04149   2.04531   2.05866
 Alpha virt. eigenvalues --    2.06410   2.08094   2.08691   2.09511   2.10196
 Alpha virt. eigenvalues --    2.10706   2.12298   2.13648   2.14354   2.14593
 Alpha virt. eigenvalues --    2.15763   2.17338   2.17454   2.18245   2.18651
 Alpha virt. eigenvalues --    2.19075   2.20793   2.22215   2.26784   2.28502
 Alpha virt. eigenvalues --    2.31778   2.32748   2.35089   2.35841   2.36156
 Alpha virt. eigenvalues --    2.36905   2.37788   2.41960   2.42374   2.43060
 Alpha virt. eigenvalues --    2.43632   2.44543   2.45058   2.46137   2.46504
 Alpha virt. eigenvalues --    2.49234   2.50505   2.50659   2.51563   2.51863
 Alpha virt. eigenvalues --    2.52635   2.53170   2.53346   2.54798   2.55130
 Alpha virt. eigenvalues --    2.55425   2.56175   2.56758   2.56986   2.58980
 Alpha virt. eigenvalues --    2.59390   2.60068   2.60199   2.60768   2.61026
 Alpha virt. eigenvalues --    2.61828   2.62294   2.62524   2.64375   2.64414
 Alpha virt. eigenvalues --    2.64525   2.65549   2.66155   2.66509   2.67703
 Alpha virt. eigenvalues --    2.67967   2.68358   2.68901   2.69633   2.70035
 Alpha virt. eigenvalues --    2.71315   2.71926   2.72540   2.72793   2.73855
 Alpha virt. eigenvalues --    2.74773   2.75650   2.76590   2.76594   2.77109
 Alpha virt. eigenvalues --    2.77680   2.78618   2.78892   2.78898   2.80046
 Alpha virt. eigenvalues --    2.81323   2.82165   2.82240   2.83171   2.84033
 Alpha virt. eigenvalues --    2.84111   2.85297   2.85586   2.85920   2.86529
 Alpha virt. eigenvalues --    2.87989   2.88533   2.88983   2.90095   2.90563
 Alpha virt. eigenvalues --    2.93453   2.94823   2.95551   2.97216   2.98205
 Alpha virt. eigenvalues --    2.99735   3.00585   3.02276   3.02425   3.03861
 Alpha virt. eigenvalues --    3.04009   3.05410   3.05491   3.06112   3.06191
 Alpha virt. eigenvalues --    3.06681   3.08027   3.08189   3.08598   3.09146
 Alpha virt. eigenvalues --    3.09715   3.10196   3.10289   3.11298   3.11608
 Alpha virt. eigenvalues --    3.12629   3.12708   3.14025   3.14581   3.14585
 Alpha virt. eigenvalues --    3.17205   3.18086   3.18520   3.18890   3.20407
 Alpha virt. eigenvalues --    3.21347   3.21514   3.22794   3.23251   3.24485
 Alpha virt. eigenvalues --    3.24730   3.24789   3.25276   3.25976   3.26320
 Alpha virt. eigenvalues --    3.26579   3.26861   3.27896   3.28842   3.29767
 Alpha virt. eigenvalues --    3.29863   3.30588   3.30598   3.31630   3.32294
 Alpha virt. eigenvalues --    3.32362   3.33392   3.34160   3.34560   3.36972
 Alpha virt. eigenvalues --    3.37639   3.37727   3.38885   3.39463   3.39561
 Alpha virt. eigenvalues --    3.40934   3.41666   3.42163   3.43030   3.43989
 Alpha virt. eigenvalues --    3.44258   3.44381   3.45898   3.46576   3.47485
 Alpha virt. eigenvalues --    3.47759   3.47998   3.48452   3.49404   3.50609
 Alpha virt. eigenvalues --    3.52771   3.53276   3.53533   3.54201   3.58653
 Alpha virt. eigenvalues --    3.58735   3.60903   3.62372   3.62526   3.62936
 Alpha virt. eigenvalues --    3.64186   3.64910   3.66275   3.67009   3.68786
 Alpha virt. eigenvalues --    3.69847   3.70798   3.72039   3.74022   3.78355
 Alpha virt. eigenvalues --    3.81840   3.82128   3.83228   3.83806   3.84981
 Alpha virt. eigenvalues --    3.85475   3.87301   3.88281   3.91440   3.92789
 Alpha virt. eigenvalues --    3.94377   3.94750   3.95915   3.97842   3.98097
 Alpha virt. eigenvalues --    3.98220   3.99615   4.00733   4.01976   4.02765
 Alpha virt. eigenvalues --    4.03572   4.04977   4.05319   4.08665   4.09316
 Alpha virt. eigenvalues --    4.09767   4.10433   4.10796   4.11180   4.11717
 Alpha virt. eigenvalues --    4.12321   4.13726   4.13851   4.14526   4.15064
 Alpha virt. eigenvalues --    4.16254   4.17231   4.18050   4.19869   4.19902
 Alpha virt. eigenvalues --    4.20799   4.21057   4.23698   4.25268   4.26102
 Alpha virt. eigenvalues --    4.28821   4.30340   4.31392   4.32436   4.35158
 Alpha virt. eigenvalues --    4.39144   4.40987   4.48598   4.50191   4.50732
 Alpha virt. eigenvalues --    4.53059   4.53451   4.56789   4.59719   4.62550
 Alpha virt. eigenvalues --    4.64049   4.65034   4.65375   4.65463   4.67395
 Alpha virt. eigenvalues --    4.70675   4.72598   4.75360   4.76716   4.80065
 Alpha virt. eigenvalues --    4.81788   4.82732   4.84052   4.85306   4.89047
 Alpha virt. eigenvalues --    4.89154   4.98810   4.99587   5.01392   5.01978
 Alpha virt. eigenvalues --    5.06128   5.09119   5.11001   5.13113   5.13846
 Alpha virt. eigenvalues --    5.17153   5.19882   5.21503   5.22642   5.29786
 Alpha virt. eigenvalues --    5.31759   5.36141   5.37642   5.43329   5.45649
 Alpha virt. eigenvalues --    5.48093   5.53314   5.62004   5.69459   5.72614
 Alpha virt. eigenvalues --    5.75316   5.92919   5.95402   5.99297   8.81265
 Alpha virt. eigenvalues --    9.24753   9.40846  20.06816  21.81887  21.89019
 Alpha virt. eigenvalues --   21.98963  22.30949  22.31975  22.32156  22.33115
 Alpha virt. eigenvalues --   22.36709  22.37643  22.44110  22.50309  22.55951
 Alpha virt. eigenvalues --   22.56144  22.57645  22.60512  22.91272  22.97433
 Alpha virt. eigenvalues --   23.01914  32.86353
          Condensed to atoms (all electrons):
               1          2          3          4          5          6
     1  C    5.131397   0.276203   0.170428  -0.201627   0.129922   0.318797
     2  C    0.276203   5.407805   0.095749   0.134759  -0.207461   0.102955
     3  C    0.170428   0.095749   5.344581   0.227995   0.144425  -0.159661
     4  C   -0.201627   0.134759   0.227995   5.502071   0.142700   0.087251
     5  C    0.129922  -0.207461   0.144425   0.142700   5.417198   0.279880
     6  C    0.318797   0.102955  -0.159661   0.087251   0.279880   5.114479
     7  C    0.000249  -0.000609  -0.013689  -0.087264   0.015679  -0.001420
     8  C   -0.001083   0.004051  -0.035073  -0.013705  -0.003509   0.000332
     9  C   -0.000409   0.005616   0.004048  -0.000603  -0.002681   0.000209
    10  H   -0.000013   0.000211   0.000287   0.000010  -0.000040   0.000008
    11  C    0.000029  -0.000409  -0.001081   0.000245   0.000342  -0.000011
    12  C   -0.000011   0.000209   0.000331  -0.001417  -0.000342   0.000016
    13  C    0.000342  -0.002681  -0.003503   0.015653   0.008830  -0.000342
    14  H   -0.067703   0.461298  -0.098088   0.023789  -0.008048   0.018291
    15  H    0.014439  -0.004041   0.014827  -0.077144   0.450386  -0.051658
    16  H   -0.065757   0.016247  -0.005156   0.020109  -0.063670   0.441715
    17  H    0.000000  -0.000003   0.000006   0.000004   0.000001  -0.000000
    18  H   -0.000000   0.000001  -0.000005  -0.000020  -0.000005   0.000000
    19  C   -0.001530   0.003000  -0.020644  -0.085728  -0.002954   0.002127
    20  C    0.000068  -0.000417  -0.000845   0.016357   0.000195  -0.000152
    21  C    0.000000   0.000014   0.000066   0.000689  -0.000334  -0.000016
    22  C    0.000071  -0.000001  -0.000390  -0.002311   0.004992  -0.000124
    23  C   -0.000001  -0.000001  -0.000106  -0.000576  -0.000130   0.000018
    24  H   -0.000000   0.000000   0.000004   0.000025  -0.000002   0.000000
    25  H   -0.000002  -0.000001   0.000002   0.000107   0.000037   0.000005
    26  H    0.000001  -0.000019  -0.000173  -0.000622   0.000117   0.000002
    27  H   -0.000000  -0.000000  -0.000001  -0.000009   0.000003   0.000000
    28  H    0.445462  -0.067364   0.018668  -0.005716   0.017380  -0.065079
    29  N   -0.001391   0.020222  -0.088072   0.262580  -0.049167   0.006728
    30  H    0.000002  -0.000007   0.000102   0.001738   0.000129   0.000034
    31  S    0.013338  -0.067829   0.405803  -0.113398   0.024845  -0.003868
    32  C    0.000253  -0.000106   0.006901  -0.027769   0.003919  -0.001616
    33  H   -0.000424   0.000422   0.002459   0.005437  -0.010540   0.003249
               7          8          9         10         11         12
     1  C    0.000249  -0.001083  -0.000409  -0.000013   0.000029  -0.000011
     2  C   -0.000609   0.004051   0.005616   0.000211  -0.000409   0.000209
     3  C   -0.013689  -0.035073   0.004048   0.000287  -0.001081   0.000331
     4  C   -0.087264  -0.013705  -0.000603   0.000010   0.000245  -0.001417
     5  C    0.015679  -0.003509  -0.002681  -0.000040   0.000342  -0.000342
     6  C   -0.001420   0.000332   0.000209   0.000008  -0.000011   0.000016
     7  C    5.501836   0.227956   0.134803   0.023792  -0.201604   0.087278
     8  C    0.227956   5.344634   0.095685  -0.098094   0.170399  -0.159661
     9  C    0.134803   0.095685   5.407772   0.461272   0.276331   0.102935
    10  H    0.023792  -0.098094   0.461272   0.532358  -0.067666   0.018287
    11  C   -0.201604   0.170399   0.276331  -0.067666   5.131310   0.318811
    12  C    0.087278  -0.159661   0.102935   0.018287   0.318811   5.114539
    13  C    0.142737   0.144411  -0.207470  -0.008046   0.129902   0.279843
    14  H    0.000010   0.000287   0.000211   0.000053  -0.000013   0.000008
    15  H    0.001740   0.000101  -0.000007   0.000001   0.000002   0.000034
    16  H   -0.000020  -0.000005   0.000001   0.000000  -0.000000   0.000000
    17  H   -0.005718   0.018666  -0.067338  -0.010015   0.445443  -0.065080
    18  H    0.020107  -0.005155   0.016247  -0.000215  -0.065753   0.441729
    19  C   -0.085678  -0.020605   0.003002   0.000069  -0.001529   0.002125
    20  C   -0.027767   0.006892  -0.000105  -0.000001   0.000251  -0.001613
    21  C   -0.002306  -0.000392  -0.000001  -0.000001   0.000071  -0.000123
    22  C    0.000690   0.000066   0.000014  -0.000000   0.000000  -0.000016
    23  C   -0.000577  -0.000106  -0.000001  -0.000000  -0.000001   0.000018
    24  H    0.000107   0.000002  -0.000001   0.000000  -0.000002   0.000005
    25  H    0.000025   0.000004   0.000000  -0.000000  -0.000000   0.000000
    26  H    0.005443   0.002457   0.000422   0.000006  -0.000424   0.003252
    27  H   -0.000009  -0.000001  -0.000000   0.000000  -0.000000   0.000000
    28  H    0.000004   0.000006  -0.000003  -0.000000   0.000000  -0.000000
    29  N    0.262682  -0.088041   0.020232  -0.000264  -0.001392   0.006726
    30  H   -0.077140   0.014819  -0.004042   0.000060   0.014437  -0.051647
    31  S   -0.113397   0.405900  -0.067843   0.002680   0.013336  -0.003868
    32  C    0.016354  -0.000843  -0.000417  -0.000005   0.000068  -0.000153
    33  H   -0.000621  -0.000174  -0.000019   0.000000   0.000001   0.000002
              13         14         15         16         17         18
     1  C    0.000342  -0.067703   0.014439  -0.065757   0.000000  -0.000000
     2  C   -0.002681   0.461298  -0.004041   0.016247  -0.000003   0.000001
     3  C   -0.003503  -0.098088   0.014827  -0.005156   0.000006  -0.000005
     4  C    0.015653   0.023789  -0.077144   0.020109   0.000004  -0.000020
     5  C    0.008830  -0.008048   0.450386  -0.063670   0.000001  -0.000005
     6  C   -0.000342   0.018291  -0.051658   0.441715  -0.000000   0.000000
     7  C    0.142737   0.000010   0.001740  -0.000020  -0.005718   0.020107
     8  C    0.144411   0.000287   0.000101  -0.000005   0.018666  -0.005155
     9  C   -0.207470   0.000211  -0.000007   0.000001  -0.067338   0.016247
    10  H   -0.008046   0.000053   0.000001   0.000000  -0.010015  -0.000215
    11  C    0.129902  -0.000013   0.000002  -0.000000   0.445443  -0.065753
    12  C    0.279843   0.000008   0.000034   0.000000  -0.065080   0.441729
    13  C    5.417175  -0.000040   0.000129  -0.000005   0.017381  -0.063680
    14  H   -0.000040   0.532389   0.000060  -0.000215  -0.000000   0.000000
    15  H    0.000129   0.000060   0.509434  -0.009436  -0.000000  -0.000001
    16  H   -0.000005  -0.000215  -0.009436   0.527335   0.000000   0.000000
    17  H    0.017381  -0.000000  -0.000000   0.000000   0.527521  -0.008597
    18  H   -0.063680   0.000000  -0.000001   0.000000  -0.008597   0.527332
    19  C   -0.002960   0.000069  -0.001605   0.000056   0.000009   0.000056
    20  C    0.003905  -0.000005  -0.000958   0.000002  -0.000003  -0.000056
    21  C    0.004982  -0.000000   0.000042   0.000000  -0.000000  -0.000005
    22  C   -0.000336  -0.000001   0.000806  -0.000005  -0.000000   0.000000
    23  C   -0.000128  -0.000000  -0.000066  -0.000000   0.000000  -0.000000
    24  H    0.000037  -0.000000  -0.000000  -0.000000  -0.000000   0.000000
    25  H   -0.000002   0.000000   0.000024   0.000000   0.000000  -0.000000
    26  H   -0.010539   0.000000   0.000005  -0.000000  -0.000003   0.000063
    27  H    0.000003   0.000000  -0.000000   0.000000  -0.000000   0.000000
    28  H    0.000001  -0.010015  -0.000168  -0.008596   0.000000   0.000000
    29  N   -0.049179  -0.000264   0.004264  -0.000301   0.000019  -0.000301
    30  H    0.450396   0.000001   0.000253  -0.000001  -0.000168  -0.009434
    31  S    0.024842   0.002678  -0.000429   0.000037  -0.000410   0.000037
    32  C    0.000201  -0.000001  -0.000825  -0.000056   0.000001   0.000002
    33  H    0.000118   0.000006  -0.002276   0.000063   0.000000  -0.000000
              19         20         21         22         23         24
     1  C   -0.001530   0.000068   0.000000   0.000071  -0.000001  -0.000000
     2  C    0.003000  -0.000417   0.000014  -0.000001  -0.000001   0.000000
     3  C   -0.020644  -0.000845   0.000066  -0.000390  -0.000106   0.000004
     4  C   -0.085728   0.016357   0.000689  -0.002311  -0.000576   0.000025
     5  C   -0.002954   0.000195  -0.000334   0.004992  -0.000130  -0.000002
     6  C    0.002127  -0.000152  -0.000016  -0.000124   0.000018   0.000000
     7  C   -0.085678  -0.027767  -0.002306   0.000690  -0.000577   0.000107
     8  C   -0.020605   0.006892  -0.000392   0.000066  -0.000106   0.000002
     9  C    0.003002  -0.000105  -0.000001   0.000014  -0.000001  -0.000001
    10  H    0.000069  -0.000001  -0.000001  -0.000000  -0.000000   0.000000
    11  C   -0.001529   0.000251   0.000071   0.000000  -0.000001  -0.000002
    12  C    0.002125  -0.001613  -0.000123  -0.000016   0.000018   0.000005
    13  C   -0.002960   0.003905   0.004982  -0.000336  -0.000128   0.000037
    14  H    0.000069  -0.000005  -0.000000  -0.000001  -0.000000  -0.000000
    15  H   -0.001605  -0.000958   0.000042   0.000806  -0.000066  -0.000000
    16  H    0.000056   0.000002   0.000000  -0.000005  -0.000000  -0.000000
    17  H    0.000009  -0.000003  -0.000000  -0.000000   0.000000  -0.000000
    18  H    0.000056  -0.000056  -0.000005   0.000000  -0.000000   0.000000
    19  C    4.982939   0.363720   0.017683   0.017693  -0.097637   0.014707
    20  C    0.363720   5.241348   0.392894  -0.103517   0.031972  -0.062754
    21  C    0.017683   0.392894   5.045445   0.027594   0.411433   0.437749
    22  C    0.017693  -0.103517   0.027594   5.045450   0.411447   0.013873
    23  C   -0.097637   0.031972   0.411433   0.411447   5.068200  -0.059786
    24  H    0.014707  -0.062754   0.437749   0.013873  -0.059786   0.535473
    25  H    0.014710  -0.003265   0.013870   0.437748  -0.059784  -0.000315
    26  H   -0.061949   0.437154  -0.041598  -0.002565   0.011107  -0.009004
    27  H   -0.004578   0.016208  -0.062985  -0.062991   0.440861  -0.008515
    28  H    0.000009   0.000001  -0.000000  -0.000000   0.000000   0.000000
    29  N    0.467686  -0.088702   0.004901   0.004901   0.000066  -0.000138
    30  H   -0.001607  -0.000824   0.000805   0.000042  -0.000066   0.000024
    31  S    0.004925   0.002741  -0.000448  -0.000448   0.000260  -0.000005
    32  C    0.363637   0.043042  -0.103556   0.392838   0.032005  -0.003267
    33  H   -0.061968   0.009672  -0.002566  -0.041579   0.011109   0.000056
              25         26         27         28         29         30
     1  C   -0.000002   0.000001  -0.000000   0.445462  -0.001391   0.000002
     2  C   -0.000001  -0.000019  -0.000000  -0.067364   0.020222  -0.000007
     3  C    0.000002  -0.000173  -0.000001   0.018668  -0.088072   0.000102
     4  C    0.000107  -0.000622  -0.000009  -0.005716   0.262580   0.001738
     5  C    0.000037   0.000117   0.000003   0.017380  -0.049167   0.000129
     6  C    0.000005   0.000002   0.000000  -0.065079   0.006728   0.000034
     7  C    0.000025   0.005443  -0.000009   0.000004   0.262682  -0.077140
     8  C    0.000004   0.002457  -0.000001   0.000006  -0.088041   0.014819
     9  C    0.000000   0.000422  -0.000000  -0.000003   0.020232  -0.004042
    10  H   -0.000000   0.000006   0.000000  -0.000000  -0.000264   0.000060
    11  C   -0.000000  -0.000424  -0.000000   0.000000  -0.001392   0.014437
    12  C    0.000000   0.003252   0.000000  -0.000000   0.006726  -0.051647
    13  C   -0.000002  -0.010539   0.000003   0.000001  -0.049179   0.450396
    14  H    0.000000   0.000000   0.000000  -0.010015  -0.000264   0.000001
    15  H    0.000024   0.000005  -0.000000  -0.000168   0.004264   0.000253
    16  H    0.000000  -0.000000   0.000000  -0.008596  -0.000301  -0.000001
    17  H    0.000000  -0.000003  -0.000000   0.000000   0.000019  -0.000168
    18  H   -0.000000   0.000063   0.000000   0.000000  -0.000301  -0.009434
    19  C    0.014710  -0.061949  -0.004578   0.000009   0.467686  -0.001607
    20  C   -0.003265   0.437154   0.016208   0.000001  -0.088702  -0.000824
    21  C    0.013870  -0.041598  -0.062985  -0.000000   0.004901   0.000805
    22  C    0.437748  -0.002565  -0.062991  -0.000000   0.004901   0.000042
    23  C   -0.059784   0.011107   0.440861   0.000000   0.000066  -0.000066
    24  H   -0.000315  -0.009004  -0.008515   0.000000  -0.000138   0.000024
    25  H    0.535471   0.000056  -0.008515  -0.000000  -0.000138  -0.000000
    26  H    0.000056   0.511963  -0.000184   0.000000  -0.008835  -0.002273
    27  H   -0.008515  -0.000184   0.536107  -0.000000   0.000022  -0.000000
    28  H   -0.000000   0.000000  -0.000000   0.527526   0.000020  -0.000000
    29  N   -0.000138  -0.008835   0.000022   0.000020   6.280498   0.004262
    30  H   -0.000000  -0.002273  -0.000000  -0.000000   0.004262   0.509411
    31  S   -0.000005   0.000182   0.000001  -0.000410   0.001532  -0.000429
    32  C   -0.062756   0.009674   0.016208  -0.000003  -0.088697  -0.000958
    33  H   -0.009003  -0.000196  -0.000184  -0.000003  -0.008836   0.000005
              31         32         33
     1  C    0.013338   0.000253  -0.000424
     2  C   -0.067829  -0.000106   0.000422
     3  C    0.405803   0.006901   0.002459
     4  C   -0.113398  -0.027769   0.005437
     5  C    0.024845   0.003919  -0.010540
[...]
 Alpha virt. eigenvalues --   22.56289  22.58060  22.61081  22.91499  22.98078
 Alpha virt. eigenvalues --   23.02450  32.87330
          Condensed to atoms (all electrons):
               1          2          3          4          5          6
     1  C    5.128637   0.278389   0.166724  -0.195196   0.122939   0.325224
     2  C    0.278389   5.402986   0.097804   0.132047  -0.201862   0.098459
     3  C    0.166724   0.097804   5.357656   0.224067   0.135605  -0.154845
     4  C   -0.195196   0.132047   0.224067   5.487509   0.151118   0.082058
     5  C    0.122939  -0.201862   0.135605   0.151118   5.424465   0.288527
     6  C    0.325224   0.098459  -0.154845   0.082058   0.288527   5.107148
     7  C    0.000397  -0.000819  -0.008844  -0.108960   0.016182  -0.001783
     8  C   -0.001113   0.004348  -0.033946  -0.008888  -0.004225   0.000474
     9  C   -0.000433   0.005684   0.004320  -0.000792  -0.002701   0.000223
    10  H   -0.000013   0.000240   0.000286  -0.000015  -0.000045   0.000009
    11  C    0.000032  -0.000433  -0.001106   0.000392   0.000353  -0.000011
    12  C   -0.000011   0.000223   0.000467  -0.001779  -0.000425   0.000018
    13  C    0.000354  -0.002704  -0.004199   0.016189   0.009466  -0.000428
    14  H   -0.067732   0.463358  -0.099464   0.023773  -0.008297   0.018581
    15  H    0.013612  -0.003606   0.013673  -0.074260   0.448575  -0.049051
    16  H   -0.065239   0.016230  -0.005100   0.019560  -0.063058   0.441104
    17  H    0.000000  -0.000003   0.000007   0.000004   0.000001  -0.000000
    18  H   -0.000000   0.000001  -0.000005  -0.000018  -0.000004   0.000000
    19  C   -0.001600   0.003197  -0.023119  -0.087752  -0.003607   0.001773
    20  C    0.000044  -0.000282  -0.001183   0.016782  -0.000239  -0.000144
    21  C   -0.000000   0.000009   0.000090   0.000833  -0.000299  -0.000010
    22  C    0.000077  -0.000039  -0.000204  -0.002547   0.005834  -0.000062
    23  C   -0.000001  -0.000000  -0.000103  -0.000492  -0.000170   0.000011
    24  H   -0.000000   0.000000   0.000003   0.000025  -0.000002   0.000000
    25  H   -0.000002  -0.000000   0.000003   0.000088   0.000032   0.000005
    26  H    0.000001  -0.000014  -0.000166  -0.000805   0.000091   0.000002
    27  H   -0.000000  -0.000000  -0.000001  -0.000009   0.000004   0.000000
    28  H    0.445854  -0.067629   0.018902  -0.005753   0.017617  -0.065617
    29  N   -0.001472   0.019680  -0.090851   0.280670  -0.051574   0.006351
    30  H   -0.000000   0.000001   0.000030   0.001745   0.000126   0.000032
    31  S    0.013823  -0.068913   0.404002  -0.111390   0.026127  -0.004008
    32  C    0.000329  -0.000333   0.007725  -0.029092   0.004899  -0.001675
    33  H   -0.000468   0.000474   0.001701   0.004943  -0.010902   0.003494
               7          8          9         10         11         12
     1  C    0.000397  -0.001113  -0.000433  -0.000013   0.000032  -0.000011
     2  C   -0.000819   0.004348   0.005684   0.000240  -0.000433   0.000223
     3  C   -0.008844  -0.033946   0.004320   0.000286  -0.001106   0.000467
     4  C   -0.108960  -0.008888  -0.000792  -0.000015   0.000392  -0.001779
     5  C    0.016182  -0.004225  -0.002701  -0.000045   0.000353  -0.000425
     6  C   -0.001783   0.000474   0.000223   0.000009  -0.000011   0.000018
     7  C    5.488068   0.224292   0.131904   0.023765  -0.195186   0.082064
     8  C    0.224292   5.357274   0.097945  -0.099438   0.166674  -0.154810
     9  C    0.131904   0.097945   5.402916   0.463328   0.278504   0.098405
    10  H    0.023765  -0.099438   0.463328   0.531728  -0.067708   0.018576
    11  C   -0.195186   0.166674   0.278504  -0.067708   5.128626   0.325160
    12  C    0.082064  -0.154810   0.098405   0.018576   0.325160   5.107291
    13  C    0.150971   0.135464  -0.201778  -0.008292   0.122935   0.288496
    14  H   -0.000015   0.000285   0.000240   0.000053  -0.000013   0.000009
    15  H    0.001748   0.000030   0.000001   0.000001  -0.000000   0.000031
    16  H   -0.000018  -0.000005   0.000001   0.000000  -0.000000   0.000000
    17  H   -0.005752   0.018897  -0.067609  -0.010064   0.445841  -0.065610
    18  H    0.019565  -0.005103   0.016232  -0.000210  -0.065250   0.441131
    19  C   -0.087804  -0.023148   0.003205   0.000058  -0.001603   0.001777
    20  C   -0.029165   0.007740  -0.000335  -0.000006   0.000331  -0.001675
    21  C   -0.002551  -0.000201  -0.000039  -0.000000   0.000077  -0.000063
    22  C    0.000835   0.000090   0.000009  -0.000000  -0.000000  -0.000010
    23  C   -0.000494  -0.000103  -0.000000  -0.000000  -0.000001   0.000011
    24  H    0.000088   0.000003  -0.000000   0.000000  -0.000002   0.000006
    25  H    0.000025   0.000003   0.000000  -0.000000  -0.000000   0.000000
    26  H    0.004941   0.001716   0.000478   0.000004  -0.000471   0.003498
    27  H   -0.000009  -0.000001  -0.000000   0.000000  -0.000000   0.000000
    28  H    0.000004   0.000007  -0.000003  -0.000000   0.000000  -0.000000
    29  N    0.280418  -0.090749   0.019674  -0.000191  -0.001467   0.006342
    30  H   -0.074282   0.013687  -0.003610   0.000053   0.013623  -0.049100
    31  S   -0.111414   0.404029  -0.068921   0.002668   0.013819  -0.004001
    32  C    0.016787  -0.001182  -0.000282  -0.000005   0.000044  -0.000145
    33  H   -0.000807  -0.000165  -0.000014   0.000000   0.000001   0.000002
              13         14         15         16         17         18
     1  C    0.000354  -0.067732   0.013612  -0.065239   0.000000  -0.000000
     2  C   -0.002704   0.463358  -0.003606   0.016230  -0.000003   0.000001
     3  C   -0.004199  -0.099464   0.013673  -0.005100   0.000007  -0.000005
     4  C    0.016189   0.023773  -0.074260   0.019560   0.000004  -0.000018
     5  C    0.009466  -0.008297   0.448575  -0.063058   0.000001  -0.000004
     6  C   -0.000428   0.018581  -0.049051   0.441104  -0.000000   0.000000
     7  C    0.150971  -0.000015   0.001748  -0.000018  -0.005752   0.019565
     8  C    0.135464   0.000285   0.000030  -0.000005   0.018897  -0.005103
     9  C   -0.201778   0.000240   0.000001   0.000001  -0.067609   0.016232
    10  H   -0.008292   0.000053   0.000001   0.000000  -0.010064  -0.000210
    11  C    0.122935  -0.000013  -0.000000  -0.000000   0.445841  -0.065250
    12  C    0.288496   0.000009   0.000031   0.000000  -0.065610   0.441131
    13  C    5.424513  -0.000045   0.000126  -0.000004   0.017613  -0.063075
    14  H   -0.000045   0.531740   0.000053  -0.000210  -0.000000   0.000000
    15  H    0.000126   0.000053   0.501947  -0.009154  -0.000000  -0.000001
    16  H   -0.000004  -0.000210  -0.009154   0.527305   0.000000   0.000000
    17  H    0.017613  -0.000000  -0.000000   0.000000   0.528083  -0.008602
    18  H   -0.063075   0.000000  -0.000001   0.000000  -0.008602   0.527305
    19  C   -0.003601   0.000058  -0.001555   0.000070   0.000009   0.000071
    20  C    0.004912  -0.000005  -0.001103   0.000003  -0.000001  -0.000059
    21  C    0.005837  -0.000000   0.000081   0.000000  -0.000000  -0.000009
    22  C   -0.000303  -0.000000   0.001055  -0.000009  -0.000000   0.000000
    23  C   -0.000167  -0.000000  -0.000105   0.000000   0.000000   0.000000
    24  H    0.000032  -0.000000  -0.000000  -0.000000  -0.000000   0.000000
    25  H   -0.000002   0.000000   0.000032   0.000000   0.000000  -0.000000
    26  H   -0.010952   0.000000  -0.000002  -0.000000  -0.000002   0.000100
    27  H    0.000004   0.000000  -0.000000   0.000000   0.000000   0.000000
    28  H    0.000001  -0.010064  -0.000167  -0.008603   0.000000   0.000000
    29  N   -0.051520  -0.000191   0.003669  -0.000293   0.000019  -0.000293
    30  H    0.448618   0.000001   0.000201  -0.000001  -0.000167  -0.009156
    31  S    0.026113   0.002679  -0.000410   0.000034  -0.000424   0.000034
    32  C   -0.000234  -0.000006  -0.001312  -0.000059   0.000001   0.000003
    33  H    0.000091   0.000004  -0.003233   0.000100   0.000000  -0.000000
              19         20         21         22         23         24
     1  C   -0.001600   0.000044  -0.000000   0.000077  -0.000001  -0.000000
     2  C    0.003197  -0.000282   0.000009  -0.000039  -0.000000   0.000000
     3  C   -0.023119  -0.001183   0.000090  -0.000204  -0.000103   0.000003
     4  C   -0.087752   0.016782   0.000833  -0.002547  -0.000492   0.000025
     5  C   -0.003607  -0.000239  -0.000299   0.005834  -0.000170  -0.000002
     6  C    0.001773  -0.000144  -0.000010  -0.000062   0.000011   0.000000
     7  C   -0.087804  -0.029165  -0.002551   0.000835  -0.000494   0.000088
     8  C   -0.023148   0.007740  -0.000201   0.000090  -0.000103   0.000003
     9  C    0.003205  -0.000335  -0.000039   0.000009  -0.000000  -0.000000
    10  H    0.000058  -0.000006  -0.000000  -0.000000  -0.000000   0.000000
    11  C   -0.001603   0.000331   0.000077  -0.000000  -0.000001  -0.000002
    12  C    0.001777  -0.001675  -0.000063  -0.000010   0.000011   0.000006
    13  C   -0.003601   0.004912   0.005837  -0.000303  -0.000167   0.000032
    14  H    0.000058  -0.000005  -0.000000  -0.000000  -0.000000  -0.000000
    15  H   -0.001555  -0.001103   0.000081   0.001055  -0.000105  -0.000000
    16  H    0.000070   0.000003   0.000000  -0.000009   0.000000  -0.000000
    17  H    0.000009  -0.000001  -0.000000  -0.000000   0.000000  -0.000000
    18  H    0.000071  -0.000059  -0.000009   0.000000   0.000000   0.000000
    19  C    4.993240   0.367244   0.009876   0.009848  -0.093919   0.014655
    20  C    0.367244   5.239814   0.403295  -0.097936   0.027693  -0.062207
    21  C    0.009876   0.403295   5.032829   0.021576   0.416965   0.437137
    22  C    0.009848  -0.097936   0.021576   5.032632   0.417019   0.013708
    23  C   -0.093919   0.027693   0.416965   0.417019   5.065769  -0.059646
    24  H    0.014655  -0.062207   0.437137   0.013708  -0.059646   0.535331
    25  H    0.014656  -0.003136   0.013710   0.437123  -0.059645  -0.000316
    26  H   -0.062368   0.436517  -0.038385  -0.002246   0.010777  -0.009000
    27  H   -0.004656   0.016330  -0.063280  -0.063278   0.441485  -0.008473
    28  H    0.000009   0.000001  -0.000000  -0.000000   0.000000   0.000000
    29  N    0.465064  -0.087300   0.004673   0.004673   0.000010  -0.000137
    30  H   -0.001556  -0.001315   0.001057   0.000081  -0.000105   0.000032
    31  S    0.006328   0.001935  -0.000324  -0.000323   0.000182  -0.000003
    32  C    0.367177   0.039428  -0.097969   0.403327   0.027750  -0.003136
    33  H   -0.062354   0.008618  -0.002249  -0.038376   0.010778   0.000058
              25         26         27         28         29         30
     1  C   -0.000002   0.000001  -0.000000   0.445854  -0.001472  -0.000000
     2  C   -0.000000  -0.000014  -0.000000  -0.067629   0.019680   0.000001
     3  C    0.000003  -0.000166  -0.000001   0.018902  -0.090851   0.000030
     4  C    0.000088  -0.000805  -0.000009  -0.005753   0.280670   0.001745
     5  C    0.000032   0.000091   0.000004   0.017617  -0.051574   0.000126
     6  C    0.000005   0.000002   0.000000  -0.065617   0.006351   0.000032
     7  C    0.000025   0.004941  -0.000009   0.000004   0.280418  -0.074282
     8  C    0.000003   0.001716  -0.000001   0.000007  -0.090749   0.013687
     9  C    0.000000   0.000478  -0.000000  -0.000003   0.019674  -0.003610
    10  H   -0.000000   0.000004   0.000000  -0.000000  -0.000191   0.000053
    11  C   -0.000000  -0.000471  -0.000000   0.000000  -0.001467   0.013623
    12  C    0.000000   0.003498   0.000000  -0.000000   0.006342  -0.049100
    13  C   -0.000002  -0.010952   0.000004   0.000001  -0.051520   0.448618
    14  H    0.000000   0.000000   0.000000  -0.010064  -0.000191   0.000001
    15  H    0.000032  -0.000002  -0.000000  -0.000167   0.003669   0.000201
    16  H    0.000000  -0.000000   0.000000  -0.008603  -0.000293  -0.000001
    17  H    0.000000  -0.000002   0.000000   0.000000   0.000019  -0.000167
    18  H   -0.000000   0.000100   0.000000   0.000000  -0.000293  -0.009156
    19  C    0.014656  -0.062368  -0.004656   0.000009   0.465064  -0.001556
    20  C   -0.003136   0.436517   0.016330   0.000001  -0.087300  -0.001315
    21  C    0.013710  -0.038385  -0.063280  -0.000000   0.004673   0.001057
    22  C    0.437123  -0.002246  -0.063278  -0.000000   0.004673   0.000081
    23  C   -0.059645   0.010777   0.441485   0.000000   0.000010  -0.000105
    24  H   -0.000316  -0.009000  -0.008473   0.000000  -0.000137   0.000032
    25  H    0.535338   0.000058  -0.008475  -0.000000  -0.000137  -0.000000
    26  H    0.000058   0.509668  -0.000182   0.000000  -0.007850  -0.003237
    27  H   -0.008475  -0.000182   0.535949   0.000000   0.000020  -0.000000
    28  H   -0.000000   0.000000   0.000000   0.528097   0.000019  -0.000000
    29  N   -0.000137  -0.007850   0.000020   0.000019   6.249899   0.003667
    30  H   -0.000000  -0.003237  -0.000000  -0.000000   0.003667   0.501999
    31  S   -0.000003   0.000190   0.000000  -0.000425  -0.002900  -0.000410
    32  C   -0.062205   0.008613   0.016329  -0.000001  -0.087278  -0.001104
    33  H   -0.008999  -0.000214  -0.000182  -0.000002  -0.007833  -0.000002
              31         32         33
     1  C    0.013823   0.000329  -0.000468
     2  C   -0.068913  -0.000333   0.000474
     3  C    0.404002   0.007725   0.001701
     4  C   -0.111390  -0.029092   0.004943
     5  C    0.026127   0.004899  -0.010902
     6  C   -0.004008  -0.001675   0.003494
     7  C   -0.111414   0.016787  -0.000807
     8  C    0.404029  -0.001182  -0.000165
     9  C   -0.068921  -0.000282  -0.000014
    10  H    0.002668  -0.000005   0.000000
    11  C    0.013819   0.000044   0.000001
    12  C   -0.004001  -0.000145   0.000002
    13  C    0.026113  -0.000234   0.000091
    14  H    0.002679  -0.000006   0.000004
    15  H   -0.000410  -0.001312  -0.003233
    16  H    0.000034  -0.000059   0.000100
    17  H   -0.000424   0.000001   0.000000
    18  H    0.000034   0.000003  -0.000000
    19  C    0.006328   0.367177  -0.062354
    20  C    0.001935   0.039428   0.008618
    21  C   -0.000324  -0.097969  -0.002249
    22  C   -0.000323   0.403327  -0.038376
    23  C    0.000182   0.027750   0.010778
    24  H   -0.000003  -0.003136   0.000058
    25  H   -0.000003  -0.062205  -0.008999
    26  H    0.000190   0.008613  -0.000214
    27  H    0.000000   0.016329  -0.000182
    28  H   -0.000425  -0.000001  -0.000002
    29  N   -0.002900  -0.087278  -0.007833
    30  H   -0.000410  -0.001104  -0.000002
    31  S   15.560519   0.001930   0.000190
    32  C    0.001930   5.239983   0.436482
    33  H    0.000190   0.436482   0.509639
 Mulliken charges:
               1
     1  C   -0.163156
     2  C   -0.176496
     3  C   -0.009930
     4  C    0.185946
     5  C   -0.304550
     6  C   -0.095862
     7  C    0.185849
     8  C   -0.009885
     9  C   -0.176553
    10  H    0.145219
    11  C   -0.163161
    12  C   -0.095878
    13  C   -0.304432
    14  H    0.145209
    15  H    0.159125
    16  H    0.147344
    17  H    0.147761
    18  H    0.147342
    19  C    0.200327
    20  C   -0.284596
    21  C   -0.142668
    22  C   -0.142555
    23  C   -0.203499
    24  H    0.141845
    25  H    0.141848
    26  H    0.159240
    27  H    0.138424
    28  H    0.147753
    29  N    0.137193
    30  H    0.159091
    31  S   -0.090732
    32  C   -0.284790
    33  H    0.159226
 Sum of Mulliken charges =  -0.00000
 Mulliken charges with hydrogens summed into heavy atoms:
               1
     1  C   -0.015403
     2  C   -0.031287
     3  C   -0.009930
     4  C    0.185946
     5  C   -0.145425
     6  C    0.051482
     7  C    0.185849
     8  C   -0.009885
     9  C   -0.031334
    11  C   -0.015400
    12  C    0.051465
    13  C   -0.145340
    19  C    0.200327
    20  C   -0.125356
    21  C   -0.000823
    22  C   -0.000707
    23  C   -0.065075
    29  N    0.137193
    31  S   -0.090732
    32  C   -0.125563
 Electronic spatial extent (au):  <R**2>=           5341.4774
 Charge=             -0.0000 electrons
 Dipole moment (field-independent basis, Debye):
    X=             -1.0889    Y=              0.0014    Z=              1.8840  Tot=              2.1760
 Quadrupole moment (field-independent basis, Debye-Ang):
   XX=           -118.3100   YY=           -100.8890   ZZ=           -124.2806
   XY=              0.0260   XZ=              3.1215   YZ=             -0.0085
 Traceless Quadrupole moment (field-independent basis, Debye-Ang):
   XX=             -3.8168   YY=             13.6042   ZZ=             -9.7874
   XY=              0.0260   XZ=              3.1215   YZ=             -0.0085
 Octapole moment (field-independent basis, Debye-Ang**2):
  XXX=              4.4207  YYY=              0.1384  ZZZ=             12.5577  XYY=            -29.7421
  XXY=             -0.1152  XXZ=            -23.8038  XZZ=             -5.4599  YZZ=              0.0137
  YYZ=             25.2822  XYZ=              0.0687
 Hexadecapole moment (field-independent basis, Debye-Ang**3):
 XXXX=          -3433.6295 YYYY=          -2837.4507 ZZZZ=           -726.3962 XXXY=              0.5400
 XXXZ=            -21.9302 YYYX=             -0.1757 YYYZ=             -0.1036 ZZZX=             38.9229
 ZZZY=             -0.0489 XXYY=           -966.8629 XXZZ=           -766.5676 YYZZ=           -605.7463
 XXYZ=              0.0223 YYXZ=              8.6772 ZZXY=              0.1428
 N-N= 1.560547247471D+03 E-N=-5.805452482148D+03  KE= 1.141653557556D+03
 Leave Link  601 at Sat Mar 27 22:45:30 2021, MaxMem=  5242880000 cpu:         3.3
 (Enter /opt/nce/packages/global/g09/l9999.exe)
 1\1\GINC-CN032\SP\RPBEPBE TD-FC\Gen\C18H13N1S1\PNG4RJV\27-Mar-2021\0\\
 #p PBEPBE chkbasis geom=allcheck Guess=Read int=ultrafine scrf=(SMD,so
 lvent=n,n-DiMethylAcetamide) td=(NStates=30) EmpiricalDispersion=GD3BJ
 \\Title\\0,1\C,0,-1.9885588196,3.5475748466,-0.4322459033\C,0,-2.31196
 13366,2.5100168738,0.4425499141\C,0,-1.5357495911,1.3453441712,0.45371
 16147\C,0,-0.4390580281,1.2118487495,-0.4154645857\C,0,-0.1619491931,2
 .234488743,-1.330772253\C,0,-0.9221347747,3.4044275947,-1.3260742332\C
 ,0,-0.4227793703,-1.1901364846,-0.4098046229\C,0,-1.5174150636,-1.3346
 088708,0.4601904959\C,0,-2.2773139029,-2.5100416575,0.4547578508\H,0,-
 3.1309664578,-2.6063953794,1.1282296047\C,0,-1.9396589625,-3.547173753
 3,-0.4151475571\C,0,-0.8755352991,-3.393475199,-1.3099683975\C,0,-0.13
 16754276,-2.2131417058,-1.3203446681\H,0,-3.1671284311,2.5974720661,1.
 1153397877\H,0,0.6621534637,2.1094654247,-2.0345242965\H,0,-0.68655057
 14,4.2029246881,-2.0313987155\H,0,-2.5260229237,-4.4674338541,-0.41023
 30322\H,0,-0.628991164,-4.1919899153,-2.0115097962\C,0,1.6993268878,0.
 0259674831,-0.0222470693\C,0,2.4075644559,-1.1773898653,0.1815885556\C
 ,0,3.7554436528,-1.1591870968,0.537978278\C,0,3.740177187,1.2400483336
 ,0.5315499912\C,0,4.4423919544,0.0453190457,0.7090825127\H,0,4.2703555
 486,-2.1107235931,0.6879062569\H,0,4.2430310347,2.1988015741,0.6763331
 729\H,0,1.9032061833,-2.1361536876,0.0761494896\H,0,5.498392585,0.0527
 870415,0.9828103532\H,0,-2.5875762722,4.4596680861,-0.4318273169\N,0,0
 .3336996422,0.016144435,-0.3674809232\H,0,0.6906017527,-2.0799992308,-
 2.0247420239\S,0,-1.9290703575,0.0052690831,1.5463913729\C,0,2.3921531
 69,1.2393200109,0.175146039\H,0,1.8757754298,2.1911210428,0.0648441045
 \\Version=ES64L-G09RevE.01\State=1-A\HF=-1145.9112574\RMSD=4.463e-09\P
 G=C01 [X(C18H13N1S1)]\\@


 KNOWLEDGE IS OF TWO KINDS:  WE KNOW A SUBJECT OURSELVES OR WE KNOW 
 WHERE WE CAN FIND INFORMATION UPON IT.

                                    -- SAMUEL JOHNSON
 Job cpu time:       0 days 12 hours 44 minutes 57.5 seconds.
 File lengths (MBytes):  RWF=   1821 Int=      0 D2E=      0 Chk=    444 Scr=      1
 Normal termination of Gaussian 09 at Sat Mar 27 22:45:30 2021.
