 Entering Gaussian System, Link 0=g09
 Input=/home/png4rjv/fotokatalizis/benchmark/OPCs/PTZ_1b_wB97XD_def2TZVP.gjf
 Output=/home/png4rjv/fotokatalizis/benchmark/OPCs/PTZ_1b_wB97XD_def2TZVP.log
 Initial command:
 /opt/nce/packages/global/g09/l1.exe "/home/png4rjv/fotokatalizis/benchmark/OPCs/PTZ_1b_wB97XD_def2TZVP/Gau-41945.inp" -scrdir="/home/png4rjv/fotokatalizis/benchmark/OPCs/PTZ_1b_wB97XD_def2TZVP/"
 Default is to use a total of  12 processors:
                               12 via shared-memory
                                1 via Linda
 Entering Link 1 = /opt/nce/packages/global/g09/l1.exe PID=     41946.
  
 Copyright (c) 1988,1990,1992,1993,1995,1998,2003,2009,2015,
            Gaussian, Inc.  All Rights Reserved.
  
 This is part of the Gaussian(R) 09 program.  It is based on
 the Gaussian(R) 03 system (copyright 2003, Gaussian, Inc.),
 the Gaussian(R) 98 system (copyright 1998, Gaussian, Inc.),
 the Gaussian(R) 94 system (copyright 1995, Gaussian, Inc.),
 the Gaussian 92(TM) system (copyright 1992, Gaussian, Inc.),
 the Gaussian 90(TM) system (copyright 1990, Gaussian, Inc.),
 the Gaussian 88(TM) system (copyright 1988, Gaussian, Inc.),
 the Gaussian 86(TM) system (copyright 1986, Carnegie Mellon
 University), and the Gaussian 82(TM) system (copyright 1983,
 Carnegie Mellon University). Gaussian is a federally registered
 trademark of Gaussian, Inc.
  
 This software contains proprietary and confidential information,
 including trade secrets, belonging to Gaussian, Inc.
  
 This software is provided under written license and may be
 used, copied, transmitted, or stored only in accord with that
 written license.
  
 The following legend is applicable only to US Government
 contracts under FAR:
  
                    RESTRICTED RIGHTS LEGEND
  
 Use, reproduction and disclosure by the US Government is
 subject to restrictions as set forth in subparagraphs (a)
 and (c) of the Commercial Computer Software - Restricted
 Rights clause in FAR 52.227-19.
  
 Gaussian, Inc.
 340 Quinnipiac St., Bldg. 40, Wallingford CT 06492
  
  
 ---------------------------------------------------------------
 Warning -- This program may not be used in any manner that
 competes with the business of Gaussian, Inc. or will provide
 assistance to any competitor of Gaussian, Inc.  The licensee
 of this program is prohibited from giving any competitor of
 Gaussian, Inc. access to this program.  By using this program,
 the user acknowledges that Gaussian, Inc. is engaged in the
 business of creating and licensing software in the field of
 computational chemistry and represents and warrants to the
 licensee that it is not a competitor of Gaussian, Inc. and that
 it will not use this program in any manner prohibited above.
 ---------------------------------------------------------------
  

 Cite this work as:
 Gaussian 09, Revision E.01,
 M. J. Frisch, G. W. Trucks, H. B. Schlegel, G. E. Scuseria, 
 M. A. Robb, J. R. Cheeseman, G. Scalmani, V. Barone, B. Mennucci, 
 G. A. Petersson, H. Nakatsuji, M. Caricato, X. Li, H. P. Hratchian, 
 A. F. Izmaylov, J. Bloino, G. Zheng, J. L. Sonnenberg, M. Hada, 
 M. Ehara, K. Toyota, R. Fukuda, J. Hasegawa, M. Ishida, T. Nakajima, 
 Y. Honda, O. Kitao, H. Nakai, T. Vreven, J. A. Montgomery, Jr., 
 J. E. Peralta, F. Ogliaro, M. Bearpark, J. J. Heyd, E. Brothers, 
 K. N. Kudin, V. N. Staroverov, T. Keith, R. Kobayashi, J. Normand, 
 K. Raghavachari, A. Rendell, J. C. Burant, S. S. Iyengar, J. Tomasi, 
 M. Cossi, N. Rega, J. M. Millam, M. Klene, J. E. Knox, J. B. Cross, 
 V. Bakken, C. Adamo, J. Jaramillo, R. Gomperts, R. E. Stratmann, 
 O. Yazyev, A. J. Austin, R. Cammi, C. Pomelli, J. W. Ochterski, 
 R. L. Martin, K. Morokuma, V. G. Zakrzewski, G. A. Voth, 
 P. Salvador, J. J. Dannenberg, S. Dapprich, A. D. Daniels, 
 O. Farkas, J. B. Foresman, J. V. Ortiz, J. Cioslowski, 
 and D. J. Fox, Gaussian, Inc., Wallingford CT, 2013.
 
 ******************************************
 Gaussian 09:  ES64L-G09RevE.01 30-Nov-2015
                 3-Apr-2021 
 ******************************************
 %chk=cp.chk
 Default route:  MaxDisk=500GB
 ----------------------------------------------------------------------
 #p wB97XD/def2TZVP opt freq=noraman nosymm int=ultrafine scrf=(SMD,sol
 vent=n,n-DiMethylAcetamide)
 ----------------------------------------------------------------------
 1/14=-1,18=20,19=15,26=4,38=1/1,3;
 2/9=110,12=2,15=1,17=6,18=5,40=1/2;
 3/5=44,7=101,11=2,16=1,25=1,30=1,70=32201,71=1,72=147,74=-58,75=-5/1,2,3;
 4//1;
 5/5=2,38=5,53=147/2;
 6/7=2,8=2,9=2,10=2,28=1/1;
 7/30=1/1,2,3,16;
 1/14=-1,18=20,19=15,26=4/3(2);
 2/9=110,15=1/2;
 99//99;
 2/9=110,15=1/2;
 3/5=44,7=101,11=2,16=1,25=1,30=1,70=32205,71=1,72=147,74=-58,75=-5/1,2,3;
 4/5=5,16=3,69=1/1;
 5/5=2,38=5,53=147/2;
 7/30=1/1,2,3,16;
 1/14=-1,18=20,19=15,26=4/3(-5);
 2/9=110,15=1/2;
 6/7=2,8=2,9=2,10=2,19=2,28=1/1;
 99/9=1/99;
 Leave Link    1 at Sat Apr  3 20:49:19 2021, MaxMem=           0 cpu:         0.9
 (Enter /opt/nce/packages/global/g09/l101.exe)
 -----
 Title
 -----
 Symbolic Z-matrix:
 Charge =  0 Multiplicity = 1
 C                    -1.96587   3.55795  -0.4129 
 C                    -2.25317   2.51937   0.47414 
 C                    -1.48663   1.34851   0.44676 
 C                    -0.43397   1.21038  -0.4751 
 C                    -0.19289   2.23549  -1.39782 
 C                    -0.94181   3.41256  -1.35496 
 C                    -0.41788  -1.18962  -0.46937 
 C                    -1.46858  -1.33736   0.45319 
 C                    -2.2193   -2.51831   0.48617 
 H                    -3.04103  -2.61356   1.19921 
 C                    -1.91804  -3.55714  -0.3959 
 C                    -0.89595  -3.40257  -1.33867 
 C                    -0.16293  -2.21576  -1.3872 
 H                    -3.07615   2.60689   1.18673 
 H                     0.6013    2.10304  -2.1345 
 H                    -0.73315   4.21395  -2.06703 
 H                    -2.49871  -4.48164  -0.36173 
 H                    -0.67663  -4.20452  -2.04689 
 C                     1.69233   0.02568  -0.05102 
 C                     2.39141  -1.17681   0.17752 
 C                     3.72533  -1.15866   0.58458 
 C                     3.70905   1.24034   0.57914 
 C                     4.40315   0.04598   0.7834 
 H                     4.23691  -2.1097    0.7538 
 H                     4.20757   2.19906   0.74396 
 H                     1.88953  -2.13416   0.05174 
 H                     5.4481    0.05373   1.09974 
 H                    -2.55887   4.47474  -0.38311 
 N                     0.34006   0.01558  -0.46695 
 H                     0.62945  -2.07607  -2.12447 
 S                    -1.83371   0.00584   1.56436 
 C                     2.37499   1.23851   0.172 
 H                     1.86023   2.18843   0.04196 
 
 NAtoms=     33 NQM=       33 NQMF=       0 NMMI=      0 NMMIF=      0
                NMic=       0 NMicF=      0.
                    Isotopes and Nuclear Properties:
 (Nuclear quadrupole moments (NQMom) in fm**2, nuclear magnetic moments (NMagM)
  in nuclear magnetons)

  Atom         1           2           3           4           5           6           7           8           9          10
 IAtWgt=          12          12          12          12          12          12          12          12          12           1
 AtmWgt=  12.0000000  12.0000000  12.0000000  12.0000000  12.0000000  12.0000000  12.0000000  12.0000000  12.0000000   1.0078250
 NucSpn=           0           0           0           0           0           0           0           0           0           1
 AtZEff=   0.0000000   0.0000000   0.0000000   0.0000000   0.0000000   0.0000000   0.0000000   0.0000000   0.0000000   0.0000000
 NQMom=    0.0000000   0.0000000   0.0000000   0.0000000   0.0000000   0.0000000   0.0000000   0.0000000   0.0000000   0.0000000
 NMagM=    0.0000000   0.0000000   0.0000000   0.0000000   0.0000000   0.0000000   0.0000000   0.0000000   0.0000000   2.7928460
 AtZNuc=   6.0000000   6.0000000   6.0000000   6.0000000   6.0000000   6.0000000   6.0000000   6.0000000   6.0000000   1.0000000

  Atom        11          12          13          14          15          16          17          18          19          20
 IAtWgt=          12          12          12           1           1           1           1           1          12          12
 AtmWgt=  12.0000000  12.0000000  12.0000000   1.0078250   1.0078250   1.0078250   1.0078250   1.0078250  12.0000000  12.0000000
 NucSpn=           0           0           0           1           1           1           1           1           0           0
 AtZEff=   0.0000000   0.0000000   0.0000000   0.0000000   0.0000000   0.0000000   0.0000000   0.0000000   0.0000000   0.0000000
 NQMom=    0.0000000   0.0000000   0.0000000   0.0000000   0.0000000   0.0000000   0.0000000   0.0000000   0.0000000   0.0000000
 NMagM=    0.0000000   0.0000000   0.0000000   2.7928460   2.7928460   2.7928460   2.7928460   2.7928460   0.0000000   0.0000000
 AtZNuc=   6.0000000   6.0000000   6.0000000   1.0000000   1.0000000   1.0000000   1.0000000   1.0000000   6.0000000   6.0000000

  Atom        21          22          23          24          25          26          27          28          29          30
 IAtWgt=          12          12          12           1           1           1           1           1          14           1
 AtmWgt=  12.0000000  12.0000000  12.0000000   1.0078250   1.0078250   1.0078250   1.0078250   1.0078250  14.0030740   1.0078250
 NucSpn=           0           0           0           1           1           1           1           1           2           1
 AtZEff=   0.0000000   0.0000000   0.0000000   0.0000000   0.0000000   0.0000000   0.0000000   0.0000000   0.0000000   0.0000000
 NQMom=    0.0000000   0.0000000   0.0000000   0.0000000   0.0000000   0.0000000   0.0000000   0.0000000   2.0440000   0.0000000
 NMagM=    0.0000000   0.0000000   0.0000000   2.7928460   2.7928460   2.7928460   2.7928460   2.7928460   0.4037610   2.7928460
 AtZNuc=   6.0000000   6.0000000   6.0000000   1.0000000   1.0000000   1.0000000   1.0000000   1.0000000   7.0000000   1.0000000

  Atom        31          32          33
 IAtWgt=          32          12           1
 AtmWgt=  31.9720718  12.0000000   1.0078250
 NucSpn=           0           0           1
 AtZEff=   0.0000000   0.0000000   0.0000000
 NQMom=    0.0000000   0.0000000   0.0000000
 NMagM=    0.0000000   0.0000000   2.7928460
 AtZNuc=  16.0000000   6.0000000   1.0000000
 Leave Link  101 at Sat Apr  3 20:49:19 2021, MaxMem=  5242880000 cpu:         4.2
 (Enter /opt/nce/packages/global/g09/l103.exe)

 GradGradGradGradGradGradGradGradGradGradGradGradGradGradGradGradGradGrad
 Berny optimization.
 Initialization pass.
                           ----------------------------
                           !    Initial Parameters    !
                           ! (Angstroms and Degrees)  !
 --------------------------                            --------------------------
 ! Name  Definition              Value          Derivative Info.                !
 --------------------------------------------------------------------------------
 ! R1    R(1,2)                  1.3957         estimate D2E/DX2                !
 ! R2    R(1,6)                  1.399          estimate D2E/DX2                !
 ! R3    R(1,28)                 1.0923         estimate D2E/DX2                !
 ! R4    R(2,3)                  1.3997         estimate D2E/DX2                !
 ! R5    R(2,14)                 1.0921         estimate D2E/DX2                !
 ! R6    R(3,4)                  1.4061         estimate D2E/DX2                !
 ! R7    R(3,31)                 1.7811         estimate D2E/DX2                !
 ! R8    R(4,5)                  1.4001         estimate D2E/DX2                !
 ! R9    R(4,29)                 1.4236         estimate D2E/DX2                !
 ! R10   R(5,6)                  1.3958         estimate D2E/DX2                !
 ! R11   R(5,15)                 1.0913         estimate D2E/DX2                !
 ! R12   R(6,16)                 1.0922         estimate D2E/DX2                !
 ! R13   R(7,8)                  1.406          estimate D2E/DX2                !
 ! R14   R(7,13)                 1.4001         estimate D2E/DX2                !
 ! R15   R(7,29)                 1.4237         estimate D2E/DX2                !
 ! R16   R(8,9)                  1.3997         estimate D2E/DX2                !
 ! R17   R(8,31)                 1.7811         estimate D2E/DX2                !
 ! R18   R(9,10)                 1.0921         estimate D2E/DX2                !
 ! R19   R(9,11)                 1.3957         estimate D2E/DX2                !
 ! R20   R(11,12)                1.3991         estimate D2E/DX2                !
 ! R21   R(11,17)                1.0923         estimate D2E/DX2                !
 ! R22   R(12,13)                1.3958         estimate D2E/DX2                !
 ! R23   R(12,18)                1.0922         estimate D2E/DX2                !
 ! R24   R(13,30)                1.0913         estimate D2E/DX2                !
 ! R25   R(19,20)                1.4096         estimate D2E/DX2                !
 ! R26   R(19,29)                1.4148         estimate D2E/DX2                !
 ! R27   R(19,32)                1.4095         estimate D2E/DX2                !
 ! R28   R(20,21)                1.3948         estimate D2E/DX2                !
 ! R29   R(20,26)                1.0882         estimate D2E/DX2                !
 ! R30   R(21,23)                1.3965         estimate D2E/DX2                !
 ! R31   R(21,24)                1.0931         estimate D2E/DX2                !
 ! R32   R(22,23)                1.3964         estimate D2E/DX2                !
 ! R33   R(22,25)                1.0931         estimate D2E/DX2                !
 ! R34   R(22,32)                1.3948         estimate D2E/DX2                !
 ! R35   R(23,27)                1.0918         estimate D2E/DX2                !
 ! R36   R(32,33)                1.0882         estimate D2E/DX2                !
 ! A1    A(2,1,6)              120.0857         estimate D2E/DX2                !
 ! A2    A(2,1,28)             119.7018         estimate D2E/DX2                !
 ! A3    A(6,1,28)             120.1977         estimate D2E/DX2                !
 ! A4    A(1,2,3)              119.8206         estimate D2E/DX2                !
 ! A5    A(1,2,14)             120.6744         estimate D2E/DX2                !
 ! A6    A(3,2,14)             119.5036         estimate D2E/DX2                !
 ! A7    A(2,3,4)              120.3311         estimate D2E/DX2                !
 ! A8    A(2,3,31)             120.7702         estimate D2E/DX2                !
 ! A9    A(4,3,31)             118.8966         estimate D2E/DX2                !
 ! A10   A(3,4,5)              119.2789         estimate D2E/DX2                !
 ! A11   A(3,4,29)             119.0612         estimate D2E/DX2                !
 ! A12   A(5,4,29)             121.6424         estimate D2E/DX2                !
 ! A13   A(4,5,6)              120.3184         estimate D2E/DX2                !
 ! A14   A(4,5,15)             118.7713         estimate D2E/DX2                !
 ! A15   A(6,5,15)             120.8999         estimate D2E/DX2                !
 ! A16   A(1,6,5)              120.0697         estimate D2E/DX2                !
 ! A17   A(1,6,16)             120.1732         estimate D2E/DX2                !
 ! A18   A(5,6,16)             119.753          estimate D2E/DX2                !
 ! A19   A(8,7,13)             119.2868         estimate D2E/DX2                !
 ! A20   A(8,7,29)             119.0563         estimate D2E/DX2                !
 ! A21   A(13,7,29)            121.6395         estimate D2E/DX2                !
 ! A22   A(7,8,9)              120.3249         estimate D2E/DX2                !
 ! A23   A(7,8,31)             118.9012         estimate D2E/DX2                !
 ! A24   A(9,8,31)             120.7717         estimate D2E/DX2                !
 ! A25   A(8,9,10)             119.5055         estimate D2E/DX2                !
 ! A26   A(8,9,11)             119.8216         estimate D2E/DX2                !
 ! A27   A(10,9,11)            120.6715         estimate D2E/DX2                !
 ! A28   A(9,11,12)            120.0883         estimate D2E/DX2                !
 ! A29   A(9,11,17)            119.7            estimate D2E/DX2                !
 ! A30   A(12,11,17)           120.1968         estimate D2E/DX2                !
 ! A31   A(11,12,13)           120.0684         estimate D2E/DX2                !
 ! A32   A(11,12,18)           120.1693         estimate D2E/DX2                !
 ! A33   A(13,12,18)           119.7582         estimate D2E/DX2                !
 ! A34   A(7,13,12)            120.3144         estimate D2E/DX2                !
 ! A35   A(7,13,30)            118.7682         estimate D2E/DX2                !
 ! A36   A(12,13,30)           120.907          estimate D2E/DX2                !
 ! A37   A(20,19,29)           121.0375         estimate D2E/DX2                !
 ! A38   A(20,19,32)           117.9168         estimate D2E/DX2                !
 ! A39   A(29,19,32)           121.0352         estimate D2E/DX2                !
 ! A40   A(19,20,21)           120.6992         estimate D2E/DX2                !
 ! A41   A(19,20,26)           120.1999         estimate D2E/DX2                !
 ! A42   A(21,20,26)           119.0949         estimate D2E/DX2                !
 ! A43   A(20,21,23)           121.1302         estimate D2E/DX2                !
 ! A44   A(20,21,24)           118.7801         estimate D2E/DX2                !
 ! A45   A(23,21,24)           120.0886         estimate D2E/DX2                !
 ! A46   A(23,22,25)           120.0941         estimate D2E/DX2                !
 ! A47   A(23,22,32)           121.13           estimate D2E/DX2                !
 ! A48   A(25,22,32)           118.7748         estimate D2E/DX2                !
 ! A49   A(21,23,22)           118.4067         estimate D2E/DX2                !
 ! A50   A(21,23,27)           120.7921         estimate D2E/DX2                !
 ! A51   A(22,23,27)           120.799          estimate D2E/DX2                !
 ! A52   A(4,29,7)             114.8971         estimate D2E/DX2                !
 ! A53   A(4,29,19)            121.021          estimate D2E/DX2                !
 ! A54   A(7,29,19)            121.0219         estimate D2E/DX2                !
 ! A55   A(3,31,8)              97.8802         estimate D2E/DX2                !
 ! A56   A(19,32,22)           120.7001         estimate D2E/DX2                !
 ! A57   A(19,32,33)           120.2054         estimate D2E/DX2                !
 ! A58   A(22,32,33)           119.0884         estimate D2E/DX2                !
 ! D1    D(6,1,2,3)              2.0071         estimate D2E/DX2                !
 ! D2    D(6,1,2,14)          -177.5489         estimate D2E/DX2                !
 ! D3    D(28,1,2,3)          -179.389          estimate D2E/DX2                !
 ! D4    D(28,1,2,14)            1.0549         estimate D2E/DX2                !
 ! D5    D(2,1,6,5)             -0.8782         estimate D2E/DX2                !
 ! D6    D(2,1,6,16)           178.3857         estimate D2E/DX2                !
 ! D7    D(28,1,6,5)          -179.4751         estimate D2E/DX2                !
 ! D8    D(28,1,6,16)           -0.2111         estimate D2E/DX2                !
 ! D9    D(1,2,3,4)             -0.3788         estimate D2E/DX2                !
 ! D10   D(1,2,3,31)          -179.8438         estimate D2E/DX2                !
 ! D11   D(14,2,3,4)           179.1825         estimate D2E/DX2                !
 ! D12   D(14,2,3,31)           -0.2825         estimate D2E/DX2                !
 ! D13   D(2,3,4,5)             -2.3602         estimate D2E/DX2                !
 ! D14   D(2,3,4,29)           179.1366         estimate D2E/DX2                !
 ! D15   D(31,3,4,5)           177.1148         estimate D2E/DX2                !
 ! D16   D(31,3,4,29)           -1.3884         estimate D2E/DX2                !
 ! D17   D(2,3,31,8)           143.6135         estimate D2E/DX2                !
 ! D18   D(4,3,31,8)           -35.8591         estimate D2E/DX2                !
 ! D19   D(3,4,5,6)              3.497          estimate D2E/DX2                !
 ! D20   D(3,4,5,15)          -177.6641         estimate D2E/DX2                !
 ! D21   D(29,4,5,6)          -178.0398         estimate D2E/DX2                !
 ! D22   D(29,4,5,15)            0.7991         estimate D2E/DX2                !
 ! D23   D(3,4,29,7)            49.1325         estimate D2E/DX2                !
 ! D24   D(3,4,29,19)         -111.2738         estimate D2E/DX2                !
 ! D25   D(5,4,29,7)          -129.334          estimate D2E/DX2                !
 ! D26   D(5,4,29,19)           70.2597         estimate D2E/DX2                !
 ! D27   D(4,5,6,1)             -1.8997         estimate D2E/DX2                !
 ! D28   D(4,5,6,16)           178.8333         estimate D2E/DX2                !
 ! D29   D(15,5,6,1)           179.2865         estimate D2E/DX2                !
 ! D30   D(15,5,6,16)            0.0194         estimate D2E/DX2                !
 ! D31   D(13,7,8,9)             2.3599         estimate D2E/DX2                !
 ! D32   D(13,7,8,31)         -177.1164         estimate D2E/DX2                !
 ! D33   D(29,7,8,9)          -179.1361         estimate D2E/DX2                !
 ! D34   D(29,7,8,31)            1.3876         estimate D2E/DX2                !
 ! D35   D(8,7,13,12)           -3.4968         estimate D2E/DX2                !
 ! D36   D(8,7,13,30)          177.6635         estimate D2E/DX2                !
 ! D37   D(29,7,13,12)         178.0393         estimate D2E/DX2                !
 ! D38   D(29,7,13,30)          -0.8005         estimate D2E/DX2                !
 ! D39   D(8,7,29,4)           -49.1317         estimate D2E/DX2                !
 ! D40   D(8,7,29,19)          111.2745         estimate D2E/DX2                !
 ! D41   D(13,7,29,4)          129.3357         estimate D2E/DX2                !
 ! D42   D(13,7,29,19)         -70.2581         estimate D2E/DX2                !
 ! D43   D(7,8,9,10)          -179.1868         estimate D2E/DX2                !
 ! D44   D(7,8,9,11)             0.3775         estimate D2E/DX2                !
 ! D45   D(31,8,9,10)            0.2797         estimate D2E/DX2                !
 ! D46   D(31,8,9,11)          179.8439         estimate D2E/DX2                !
 ! D47   D(7,8,31,3)            35.8597         estimate D2E/DX2                !
 ! D48   D(9,8,31,3)          -143.6142         estimate D2E/DX2                !
 ! D49   D(8,9,11,12)           -2.004          estimate D2E/DX2                !
 ! D50   D(8,9,11,17)          179.3929         estimate D2E/DX2                !
 ! D51   D(10,9,11,12)         177.5551         estimate D2E/DX2                !
 ! D52   D(10,9,11,17)          -1.0481         estimate D2E/DX2                !
 ! D53   D(9,11,12,13)           0.8749         estimate D2E/DX2                !
 ! D54   D(9,11,12,18)        -178.383          estimate D2E/DX2                !
 ! D55   D(17,11,12,13)        179.4711         estimate D2E/DX2                !
 ! D56   D(17,11,12,18)          0.2132         estimate D2E/DX2                !
 ! D57   D(11,12,13,7)           1.901          estimate D2E/DX2                !
 ! D58   D(11,12,13,30)       -179.2844         estimate D2E/DX2                !
 ! D59   D(18,12,13,7)        -178.838          estimate D2E/DX2                !
 ! D60   D(18,12,13,30)         -0.0234         estimate D2E/DX2                !
 ! D61   D(29,19,20,21)        179.8571         estimate D2E/DX2                !
 ! D62   D(29,19,20,26)         -1.0437         estimate D2E/DX2                !
 ! D63   D(32,19,20,21)         -1.3109         estimate D2E/DX2                !
 ! D64   D(32,19,20,26)        177.7883         estimate D2E/DX2                !
 ! D65   D(20,19,29,4)         169.0096         estimate D2E/DX2                !
 ! D66   D(20,19,29,7)           9.8            estimate D2E/DX2                !
 ! D67   D(32,19,29,4)          -9.7859         estimate D2E/DX2                !
 ! D68   D(32,19,29,7)        -168.9955         estimate D2E/DX2                !
 ! D69   D(20,19,32,22)          1.3097         estimate D2E/DX2                !
 ! D70   D(20,19,32,33)       -177.7849         estimate D2E/DX2                !
 ! D71   D(29,19,32,22)       -179.8583         estimate D2E/DX2                !
 ! D72   D(29,19,32,33)          1.0471         estimate D2E/DX2                !
 ! D73   D(19,20,21,23)          0.3197         estimate D2E/DX2                !
 ! D74   D(19,20,21,24)        179.9379         estimate D2E/DX2                !
 ! D75   D(26,20,21,23)       -178.7893         estimate D2E/DX2                !
 ! D76   D(26,20,21,24)          0.8289         estimate D2E/DX2                !
 ! D77   D(20,21,23,22)          0.6969         estimate D2E/DX2                !
 ! D78   D(20,21,23,27)       -179.8487         estimate D2E/DX2                !
 ! D79   D(24,21,23,22)       -178.9163         estimate D2E/DX2                !
 ! D80   D(24,21,23,27)          0.5381         estimate D2E/DX2                !
 ! D81   D(25,22,23,21)        178.918          estimate D2E/DX2                !
 ! D82   D(25,22,23,27)         -0.5363         estimate D2E/DX2                !
 ! D83   D(32,22,23,21)         -0.6981         estimate D2E/DX2                !
 ! D84   D(32,22,23,27)        179.8475         estimate D2E/DX2                !
 ! D85   D(23,22,32,19)         -0.3173         estimate D2E/DX2                !
 ! D86   D(23,22,32,33)        178.7872         estimate D2E/DX2                !
 ! D87   D(25,22,32,19)       -179.9384         estimate D2E/DX2                !
 ! D88   D(25,22,32,33)         -0.8338         estimate D2E/DX2                !
 --------------------------------------------------------------------------------
 Trust Radius=3.00D-01 FncErr=1.00D-07 GrdErr=1.00D-06
 Number of steps in this run=    192 maximum allowed number of steps=    198.
 GradGradGradGradGradGradGradGradGradGradGradGradGradGradGradGradGradGrad

 Leave Link  103 at Sat Apr  3 20:49:19 2021, MaxMem=  5242880000 cpu:         0.2
 (Enter /opt/nce/packages/global/g09/l202.exe)
                          Input orientation:                          
 ---------------------------------------------------------------------
 Center     Atomic      Atomic             Coordinates (Angstroms)
 Number     Number       Type             X           Y           Z
 ---------------------------------------------------------------------
      1          6           0       -1.965872    3.557948   -0.412902
      2          6           0       -2.253168    2.519367    0.474144
      3          6           0       -1.486629    1.348512    0.446759
      4          6           0       -0.433970    1.210384   -0.475097
      5          6           0       -0.192888    2.235487   -1.397816
      6          6           0       -0.941805    3.412564   -1.354961
      7          6           0       -0.417880   -1.189617   -0.469365
      8          6           0       -1.468582   -1.337363    0.453187
      9          6           0       -2.219298   -2.518310    0.486174
     10          1           0       -3.041027   -2.613564    1.199214
     11          6           0       -1.918035   -3.557138   -0.395900
     12          6           0       -0.895948   -3.402570   -1.338669
     13          6           0       -0.162927   -2.215764   -1.387196
     14          1           0       -3.076148    2.606890    1.186728
     15          1           0        0.601304    2.103043   -2.134497
     16          1           0       -0.733145    4.213953   -2.067033
     17          1           0       -2.498707   -4.481636   -0.361725
     18          1           0       -0.676625   -4.204520   -2.046893
     19          6           0        1.692326    0.025680   -0.051024
     20          6           0        2.391414   -1.176811    0.177515
     21          6           0        3.725331   -1.158657    0.584578
     22          6           0        3.709052    1.240343    0.579135
     23          6           0        4.403146    0.045981    0.783403
     24          1           0        4.236905   -2.109705    0.753795
     25          1           0        4.207568    2.199061    0.743959
     26          1           0        1.889530   -2.134165    0.051743
     27          1           0        5.448104    0.053734    1.099740
     28          1           0       -2.558872    4.474739   -0.383109
     29          7           0        0.340059    0.015583   -0.466952
     30          1           0        0.629453   -2.076072   -2.124470
     31         16           0       -1.833705    0.005836    1.564355
     32          6           0        2.374986    1.238513    0.171997
     33          1           0        1.860230    2.188433    0.041957
 ---------------------------------------------------------------------
                    Distance matrix (angstroms):
                    1          2          3          4          5
     1  C    0.000000
     2  C    1.395722   0.000000
     3  C    2.418739   1.399726   0.000000
     4  C    2.803863   2.433922   1.406054   0.000000
     5  C    2.421246   2.798138   2.421352   1.400131   0.000000
     6  C    1.399044   2.421384   2.793446   2.425212   1.395788
     7  C    4.993880   4.244414   2.902345   2.400062   3.555837
     8  C    4.996146   3.935782   2.685943   2.902266   4.221240
     9  C    6.147640   5.037805   3.935819   4.244361   5.500395
    10  H    6.468573   5.243418   4.322081   4.921650   6.194333
    11  C    7.115267   6.147618   4.996157   4.993795   6.126538
    12  C    7.102858   6.340164   5.109739   4.715774   5.682031
    13  C    6.126631   5.500469   4.221332   3.555823   4.451364
    14  H    2.167035   1.092123   2.158157   3.419502   3.889858
    15  H    3.416289   3.889260   3.404653   2.149940   1.091321
    16  H    2.164742   3.411696   3.885568   3.412505   2.157326
    17  H    8.057384   7.054999   5.972317   6.055996   7.177049
    18  H    8.036666   7.351991   6.140893   5.643634   6.490685
    19  C    5.098067   4.696935   3.478998   2.470728   3.201738
    20  C    6.461616   5.943220   4.635619   3.755982   4.561147
    21  C    7.458627   7.020150   5.785276   4.902556   5.550004
    22  C    6.209685   6.098770   5.198493   4.275153   4.485954
    23  C    7.370851   7.107728   6.041470   5.131993   5.538518
    24  H    8.482801   7.976689   6.694205   5.860908   6.567586
    25  H    6.426217   6.474296   5.765036   4.899740   4.894133
    26  H    6.890586   6.244656   4.866572   4.106363   5.052875
    27  H    8.338743   8.110506   7.084727   6.198124   6.543594
    28  H    1.092265   2.156807   3.407592   3.896111   3.412002
    29  N    4.227125   3.725510   2.438925   1.423635   2.465464
    30  H    6.434855   6.015011   4.776693   3.827805   4.449024
    31  S    4.067495   2.771705   1.781084   2.751283   4.054390
    32  C    4.956302   4.811620   3.872940   2.882665   3.170528
    33  H    4.089196   4.149258   3.474305   2.547014   2.508078
                    6          7          8          9         10
     6  C    0.000000
     7  C    4.715808   0.000000
     8  C    5.109667   1.406025   0.000000
     9  C    6.340113   2.433842   1.399749   0.000000
    10  H    6.873482   3.419456   2.158200   1.092125   0.000000
    11  C    7.102786   2.803751   2.418751   1.395700   2.166987
    12  C    6.815308   2.425160   2.793517   2.421409   3.415369
    13  C    5.682057   1.400140   2.421432   2.798162   3.889887
    14  H    3.415364   4.921636   4.321977   5.243343   5.220587
    15  H    2.168803   3.827925   4.776707   6.015032   6.828366
    16  H    1.092158   5.643625   6.140805   7.351930   7.912628
    17  H    8.107333   3.896000   3.407593   2.156769   2.494060
    18  H    7.653042   3.412504   3.885638   3.411682   4.319577
    19  C    4.484404   2.470815   3.479002   4.696943   5.561774
    20  C    5.875474   2.882837   3.873156   4.811814   5.711352
    21  C    6.814692   4.275272   5.198647   6.098931   6.948247
    22  C    5.485412   4.902614   5.785181   7.020075   7.797478
    23  C    6.668957   5.132097   6.041512   7.107791   7.915920
    24  H    7.858839   4.899970   5.765367   6.474653   7.308937
    25  H    5.691581   5.860893   6.693991   7.976506   8.712677
    26  H    6.384472   2.547129   3.474618   4.149550   5.084969
    27  H    7.624843   6.198208   7.084753   8.110544   8.898861
    28  H    2.165091   6.056089   5.972324   7.055048   7.278754
    29  N    3.737809   1.423722   2.438914   3.725503   4.595679
    30  H    5.760740   2.149903   3.404667   3.889270   4.980783
    31  S    4.574242   2.751306   1.781065   2.771727   2.907269
    32  C    4.249612   3.755963   4.635431   5.943052   6.725092
    33  H    3.361737   4.106392   4.866347   6.244462   6.958501
                   11         12         13         14         15
    11  C    0.000000
    12  C    1.399059   0.000000
    13  C    2.421230   1.395773   0.000000
    14  H    6.468476   6.873464   6.194347   0.000000
    15  H    6.434861   5.760806   4.449112   4.980768   0.000000
    16  H    8.036573   7.653002   6.490654   4.319638   2.498249
    17  H    1.092266   2.165096   3.411984   7.278623   7.490713
    18  H    2.164712   1.092157   2.157368   7.912605   6.436313
    19  C    5.098061   4.484428   3.201779   5.561746   3.137933
    20  C    4.956421   4.249655   3.170552   6.725261   4.394011
    21  C    6.209801   5.485458   4.485969   7.797567   5.271774
    22  C    7.458594   6.814737   5.550077   6.948062   4.214991
    23  C    7.370926   6.669040   5.538593   7.915855   5.215328
    24  H    6.426519   5.691756   4.894243   8.712890   6.269535
    25  H    8.482695   7.858848   6.567627   7.308549   4.615178
    26  H    4.089351   3.361694   2.507944   6.958718   4.938937
    27  H    8.338785   7.624885   6.543634   8.898823   6.176684
    28  H    8.057412   8.107429   7.177156   2.494158   4.321923
    29  N    4.227100   3.737830   2.465513   4.595650   2.684482
    30  H    3.416315   2.168854   1.091308   6.828297   4.179222
    31  S    4.067492   4.574294   4.054462   2.907189   4.899903
    32  C    6.461486   5.875438   4.561153   5.711129   3.035338
    33  H    6.890471   6.384509   5.052979   5.084627   2.515778
                   16         17         18         19         20
    16  H    0.000000
    17  H    9.035406   0.000000
    18  H    8.418687   2.497312   0.000000
    19  C    5.242979   6.162564   5.243092   0.000000
    20  C    6.622779   5.926713   4.850554   1.409588   0.000000
    21  C    7.468198   7.118731   5.964825   2.437161   1.394763
    22  C    5.964702   8.494853   7.468381   2.437148   2.782104
    23  C    7.202670   8.333439   7.202875   2.836411   2.430923
    24  H    8.523328   7.227649   6.031159   3.417965   2.146678
    25  H    6.030930   9.530392   8.523500   3.417898   3.875021
    26  H    7.187923   4.993816   3.908426   2.171263   1.088225
    27  H    8.095907   9.265920   8.096069   3.928220   3.421709
    28  H    2.497376   8.956603   9.035517   6.162556   7.533900
    29  N    4.619344   5.319271   4.619430   1.414823   2.458699
    30  H    6.436178   4.321966   2.498429   3.137872   3.035179
    31  S    5.666256   4.928429   5.666308   3.878497   4.601479
    32  C    4.850462   7.533780   6.622870   1.409513   2.415386
    33  H    3.908473   7.978290   7.188100   2.171253   3.409604
                   21         22         23         24         25
    21  C    0.000000
    22  C    2.399061   0.000000
    23  C    1.396466   1.396421   0.000000
    24  H    1.093085   3.395873   2.162289   0.000000
    25  H    3.395913   1.093081   2.162304   4.308877   0.000000
    26  H    2.146088   3.869898   3.406850   2.450234   4.962793
    27  H    2.168693   2.168726   1.091818   2.503428   2.503585
    28  H    8.494868   7.118574   8.333327   9.530479   7.227289
    29  N    3.734250   3.734227   4.251234   4.603529   4.603423
    30  H    4.214861   5.271814   5.215323   4.615111   6.269574
    31  S    5.763583   5.763404   6.285683   6.479570   6.479218
    32  C    2.782100   1.394811   2.430922   3.875022   2.146660
    33  H    3.869890   2.146061   3.406797   4.962790   2.450085
                   26         27         28         29         30
    26  H    0.000000
    27  H    4.306814   0.000000
    28  H    7.978408   9.265840   0.000000
    29  N    2.700245   5.343042   5.319295   0.000000
    30  H    2.515367   6.176650   7.490720   2.684425   0.000000
    31  S    4.553030   7.296774   4.928446   2.975156   4.899890
    32  C    3.409558   3.421763   5.926572   2.458606   4.393987
    33  H    4.322708   4.306818   4.993630   2.700220   4.939051
                   31         32         33
    31  S    0.000000
    32  C    4.601221   0.000000
    33  H    4.552646   1.088224   0.000000
 Symmetry turned off by external request.
 Stoichiometry    C18H13NS
 Framework group  C1[X(C18H13NS)]
 Deg. of freedom    93
 Full point group                 C1      NOp   1
 Rotational constants (GHZ):      0.3749666      0.3439519      0.2142863
 Leave Link  202 at Sat Apr  3 20:49:19 2021, MaxMem=  5242880000 cpu:         0.1
 (Enter /opt/nce/packages/global/g09/l301.exe)
 Standard basis: def2TZVP (5D, 7F)
 Ernie: Thresh=  0.10000D-02 Tol=  0.10000D-05 Strict=F.
   704 basis functions,  1142 primitive gaussians,   804 cartesian basis functions
    72 alpha electrons       72 beta electrons
       nuclear repulsion energy      1561.5731074347 Hartrees.
 IExCor= 4639 DFT=T Ex+Corr=wB97XD ExCW=0 ScaHFX=  1.000000
 ScaDFX=  1.000000  1.000000  1.000000  1.000000 ScalE2=  1.000000  1.000000
 IRadAn=      5 IRanWt=     -1 IRanGd=            0 ICorTp=0 IEmpDi=121
  HFx wShort=  0.000000 wLong=  0.200000 cFull=  0.222036 cShort=  0.000000 cLong=  0.777964
  DFx wShort=  0.000000 wLong=  0.200000 cFull=  0.000000 cShort=  0.000000 cLong=  1.000000
 NAtoms=   33 NActive=   33 NUniq=   33 SFac= 1.00D+00 NAtFMM=   60 NAOKFM=F Big=F
 Integral buffers will be    131072 words long.
 Raffenetti 2 integral format.
 Two-electron integral symmetry is turned off.
 R6Disp:  Grimme-D2 Dispersion energy=       -0.0242946913 Hartrees.
 Nuclear repulsion after empirical dispersion term =     1561.5488127434 Hartrees.
 ------------------------------------------------------------------------------
 Polarizable Continuum Model (PCM)
 =================================
 Model                : PCM (using non-symmetric T matrix).
 Atomic radii         : SMD-Coulomb.
 Polarization charges : Total charges.
 Charge compensation  : None.
 Solution method      : On-the-fly selection.
 Cavity type          : VdW (van der Waals Surface) (Alpha=1.000).
 Cavity algorithm     : GePol (No added spheres)
                        Default sphere list used, NSphG=   33.
                        Lebedev-Laikov grids with approx.  5.0 points / Ang**2.
                        Smoothing algorithm: York/Karplus (Gamma=1.0000).
                        Polarization charges: spherical gaussians, with
                                              point-specific exponents (IZeta= 3).
                        Self-potential: point-specific (ISelfS= 7).
                        Self-field    : sphere-specific E.n sum rule (ISelfD= 2).
 1st derivatives      : Analytical E(r).r(x)/FMM algorithm (CHGder, D1EAlg=3).
                        Cavity 1st derivative terms included.
 Solvent              : n,n-DiMethylAcetamide, Eps=  37.781000 Eps(inf)=   2.067844
 ------------------------------------------------------------------------------
 GePol: Number of generator spheres                  =      33
 GePol: Total number of spheres                      =      33
 GePol: Number of exposed spheres                    =      33 (100.00%)
 GePol: Number of points                             =    2567
 GePol: Average weight of points                     =       0.11
 GePol: Minimum weight of points                     =   0.49D-11
 GePol: Maximum weight of points                     =    0.19854
 GePol: Number of points with low weight             =     142
 GePol: Fraction of low-weight points (<1% of avg)   =       5.53%
 GePol: Cavity surface area                          =    292.797 Ang**2
 GePol: Cavity volume                                =    293.541 Ang**3
 ------------------------------------------------------------------------------
 Atomic radii for non-electrostatic terms: SMD-CDS.
 ------------------------------------------------------------------------------
 PCM non-electrostatic energy =        -0.0051021016 Hartrees.
 Nuclear repulsion after PCM non-electrostatic terms =     1561.5437106418 Hartrees.
 Leave Link  301 at Sat Apr  3 20:49:19 2021, MaxMem=  5242880000 cpu:         1.6
 (Enter /opt/nce/packages/global/g09/l302.exe)
 NPDir=0 NMtPBC=     1 NCelOv=     1 NCel=       1 NClECP=     1 NCelD=      1
         NCelK=      1 NCelE2=     1 NClLst=     1 CellRange=     0.0.
 One-electron integrals computed using PRISM.
   1 Symmetry operations used in ECPInt.
 ECPInt:  NShTT=   37675 NPrTT=  118348 LenC2=   34059 LenP2D=   76440.
 LDataN:  DoStor=T MaxTD1= 6 Len=  172
 NBasis=   704 RedAO= T EigKep=  6.14D-06  NBF=   704
 NBsUse=   704 1.00D-06 EigRej= -1.00D+00 NBFU=   704
 Precomputing XC quadrature grid using
 IXCGrd= 4 IRadAn=           5 IRanWt=          -1 IRanGd=           0 AccXCQ= 0.00D+00.
 Generated NRdTot=       0 NPtTot=           0 NUsed=           0 NTot=          32
 NSgBfM=   792   792   792   792   792 MxSgAt=    33 MxSgA2=    33.
 Leave Link  302 at Sat Apr  3 20:49:20 2021, MaxMem=  5242880000 cpu:        13.2
 (Enter /opt/nce/packages/global/g09/l303.exe)
 DipDrv:  MaxL=1.
 Leave Link  303 at Sat Apr  3 20:49:21 2021, MaxMem=  5242880000 cpu:         1.5
 (Enter /opt/nce/packages/global/g09/l401.exe)
 ExpMin= 9.52D-02 ExpMax= 6.07D+04 ExpMxC= 2.07D+03 IAcc=3 IRadAn=         5 AccDes= 0.00D+00
 Harris functional with IExCor= 4639 and IRadAn=       5 diagonalized for initial guess.
 HarFok:  IExCor= 4639 AccDes= 0.00D+00 IRadAn=         5 IDoV= 1 UseB2=F ITyADJ=14
 ICtDFT=  3500011 ScaDFX=  1.000000  1.000000  1.000000  1.000000
 FoFCou: FMM=F IPFlag=           0 FMFlag=      100000 FMFlg1=           0
         NFxFlg=           0 DoJE=T BraDBF=F KetDBF=T FulRan=T
         wScrn=  0.000000 ICntrl=     500 IOpCl=  0 I1Cent=   200000004 NGrid=           0
         NMat0=    1 NMatS0=      1 NMatT0=    0 NMatD0=    1 NMtDS0=    0 NMtDT0=    0
 Symmetry not used in FoFCou.
 Harris En= -1106.10236631273    
 JPrj=0 DoOrth=F DoCkMO=F.
 Leave Link  401 at Sat Apr  3 20:49:26 2021, MaxMem=  5242880000 cpu:        67.4
 (Enter /opt/nce/packages/global/g09/l502.exe)
 Closed shell SCF:
 Using DIIS extrapolation, IDIIS=  1040.
 Two-electron integral symmetry not used.
 IVT=     1972336 IEndB=     1972336 NGot=  5242880000 MDV=  5241571525
 LenX=  5241571525 LenY=  5240924305
 Requested convergence on RMS density matrix=1.00D-08 within 128 cycles.
 Requested convergence on MAX density matrix=1.00D-06.
 Requested convergence on             energy=1.00D-06.
 No special actions if energy rises.
 Fock matrices will be formed incrementally for  20 cycles.

 Cycle   1  Pass 1  IDiag  1:
 FoFJK:  IHMeth= 1 ICntrl=       0 DoSepK=T KAlg= 0 I1Cent=   0 FoldK=F
 IRaf=         1 NMat=   1 IRICut=       1 DoRegI=T DoRafI=F ISym2E= 0.
 FoFCou: FMM=F IPFlag=           0 FMFlag=      100000 FMFlg1=           0
         NFxFlg=           0 DoJE=T BraDBF=F KetDBF=F FulRan=T
         wScrn=  0.000000 ICntrl=     500 IOpCl=  0 I1Cent=           0 NGrid=           0
         NMat0=    1 NMatS0=      1 NMatT0=    0 NMatD0=    1 NMtDS0=    0 NMtDT0=    0
 Symmetry not used in FoFCou.
 Inv3:  Mode=1 IEnd=    19768467.
 Iteration    1 A*A^-1 deviation from unit magnitude is 8.33D-15 for   2556.
 Iteration    1 A*A^-1 deviation from orthogonality  is 2.49D-15 for   1503    436.
 Iteration    1 A^-1*A deviation from unit magnitude is 7.99D-15 for   2556.
 Iteration    1 A^-1*A deviation from orthogonality  is 1.82D-06 for   2308   2284.
 Iteration    2 A*A^-1 deviation from unit magnitude is 3.11D-15 for    223.
 Iteration    2 A*A^-1 deviation from orthogonality  is 3.27D-15 for   2558    661.
 Iteration    2 A^-1*A deviation from unit magnitude is 9.99D-16 for    490.
 Iteration    2 A^-1*A deviation from orthogonality  is 4.51D-16 for   2566   2557.
 E= -1146.31556804484    
 DIIS: error= 4.38D-02 at cycle   1 NSaved=   1.
 NSaved= 1 IEnMin= 1 EnMin= -1146.31556804484     IErMin= 1 ErrMin= 4.38D-02
 ErrMax= 4.38D-02  0.00D+00 EMaxC= 1.00D-01 BMatC= 2.19D+00 BMatP= 2.19D+00
 IDIUse=3 WtCom= 5.62D-01 WtEn= 4.38D-01
 Coeff-Com:  0.100D+01
 Coeff-En:   0.100D+01
 Coeff:      0.100D+01
 Gap=     0.434 Goal=   None    Shift=    0.000
 GapD=    0.434 DampG=2.000 DampE=0.500 DampFc=1.0000 IDamp=-1.
 RMSDP=3.71D-03 MaxDP=2.46D-01              OVMax= 1.87D-01

 Cycle   2  Pass 1  IDiag  1:
 RMSU=  3.07D-03    CP:  7.48D-01
 E= -1146.47201505979     Delta-E=       -0.156447014954 Rises=F Damp=F
 DIIS: error= 1.48D-02 at cycle   2 NSaved=   2.
 NSaved= 2 IEnMin= 2 EnMin= -1146.47201505979     IErMin= 2 ErrMin= 1.48D-02
 ErrMax= 1.48D-02  0.00D+00 EMaxC= 1.00D-01 BMatC= 3.39D-01 BMatP= 2.19D+00
 IDIUse=3 WtCom= 8.52D-01 WtEn= 1.48D-01
 Coeff-Com:  0.231D+00 0.769D+00
 Coeff-En:   0.331D+00 0.669D+00
 Coeff:      0.245D+00 0.755D+00
 Gap=     0.415 Goal=   None    Shift=    0.000
 RMSDP=1.26D-03 MaxDP=1.80D-01 DE=-1.56D-01 OVMax= 1.94D-01

 Cycle   3  Pass 1  IDiag  1:
 RMSU=  8.62D-04    CP:  7.89D-01  7.22D-01
 E= -1146.60924207539     Delta-E=       -0.137227015598 Rises=F Damp=F
 DIIS: error= 9.91D-03 at cycle   3 NSaved=   3.
 NSaved= 3 IEnMin= 3 EnMin= -1146.60924207539     IErMin= 3 ErrMin= 9.91D-03
 ErrMax= 9.91D-03  0.00D+00 EMaxC= 1.00D-01 BMatC= 1.14D-01 BMatP= 3.39D-01
 IDIUse=3 WtCom= 9.01D-01 WtEn= 9.91D-02
 Coeff-Com:  0.465D-01 0.376D+00 0.578D+00
 Coeff-En:   0.000D+00 0.301D+00 0.699D+00
 Coeff:      0.419D-01 0.368D+00 0.590D+00
 Gap=     0.333 Goal=   None    Shift=    0.000
 RMSDP=6.68D-04 MaxDP=4.16D-02 DE=-1.37D-01 OVMax= 9.81D-02

 Cycle   4  Pass 1  IDiag  1:
 RMSU=  2.89D-04    CP:  7.53D-01  8.74D-01  7.26D-01
 E= -1146.70908942305     Delta-E=       -0.099847347660 Rises=F Damp=F
 DIIS: error= 2.07D-03 at cycle   4 NSaved=   4.
 NSaved= 4 IEnMin= 4 EnMin= -1146.70908942305     IErMin= 4 ErrMin= 2.07D-03
 ErrMax= 2.07D-03  0.00D+00 EMaxC= 1.00D-01 BMatC= 5.41D-03 BMatP= 1.14D-01
 IDIUse=3 WtCom= 9.79D-01 WtEn= 2.07D-02
 Coeff-Com:  0.815D-02 0.117D+00 0.264D+00 0.611D+00
 Coeff-En:   0.000D+00 0.000D+00 0.000D+00 0.100D+01
 Coeff:      0.798D-02 0.115D+00 0.258D+00 0.619D+00
 Gap=     0.311 Goal=   None    Shift=    0.000
 RMSDP=1.15D-04 MaxDP=1.17D-02 DE=-9.98D-02 OVMax= 1.52D-02

 Cycle   5  Pass 1  IDiag  1:
 RMSU=  7.78D-05    CP:  7.49D-01  8.89D-01  7.64D-01  8.06D-01
 E= -1146.71345457749     Delta-E=       -0.004365154442 Rises=F Damp=F
 DIIS: error= 3.29D-04 at cycle   5 NSaved=   5.
 NSaved= 5 IEnMin= 5 EnMin= -1146.71345457749     IErMin= 5 ErrMin= 3.29D-04
 ErrMax= 3.29D-04  0.00D+00 EMaxC= 1.00D-01 BMatC= 1.26D-04 BMatP= 5.41D-03
 IDIUse=3 WtCom= 9.97D-01 WtEn= 3.29D-03
 Coeff-Com: -0.176D-02-0.104D-01 0.797D-02 0.122D+00 0.882D+00
 Coeff-En:   0.000D+00 0.000D+00 0.000D+00 0.000D+00 0.100D+01
 Coeff:     -0.175D-02-0.104D-01 0.794D-02 0.121D+00 0.883D+00
 Gap=     0.309 Goal=   None    Shift=    0.000
 RMSDP=4.38D-05 MaxDP=4.08D-03 DE=-4.37D-03 OVMax= 6.05D-03

 Cycle   6  Pass 1  IDiag  1:
 RMSU=  2.93D-05    CP:  7.47D-01  8.92D-01  7.78D-01  8.90D-01  1.11D+00
 E= -1146.71363964458     Delta-E=       -0.000185067087 Rises=F Damp=F
 DIIS: error= 1.29D-04 at cycle   6 NSaved=   6.
 NSaved= 6 IEnMin= 6 EnMin= -1146.71363964458     IErMin= 6 ErrMin= 1.29D-04
 ErrMax= 1.29D-04  0.00D+00 EMaxC= 1.00D-01 BMatC= 1.62D-05 BMatP= 1.26D-04
 IDIUse=3 WtCom= 9.99D-01 WtEn= 1.29D-03
 Coeff-Com: -0.966D-03-0.121D-01-0.178D-01-0.228D-01 0.266D+00 0.787D+00
 Coeff-En:   0.000D+00 0.000D+00 0.000D+00 0.000D+00 0.000D+00 0.100D+01
 Coeff:     -0.964D-03-0.120D-01-0.177D-01-0.228D-01 0.266D+00 0.788D+00
 Gap=     0.310 Goal=   None    Shift=    0.000
 RMSDP=1.39D-05 MaxDP=5.63D-04 DE=-1.85D-04 OVMax= 2.47D-03

 Cycle   7  Pass 1  IDiag  1:
 RMSU=  8.35D-06    CP:  7.47D-01  8.93D-01  7.80D-01  8.93D-01  1.20D+00
                    CP:  1.24D+00
 E= -1146.71366998357     Delta-E=       -0.000030338987 Rises=F Damp=F
 DIIS: error= 5.92D-05 at cycle   7 NSaved=   7.
 NSaved= 7 IEnMin= 7 EnMin= -1146.71366998357     IErMin= 7 ErrMin= 5.92D-05
 ErrMax= 5.92D-05  0.00D+00 EMaxC= 1.00D-01 BMatC= 1.71D-06 BMatP= 1.62D-05
 IDIUse=1 WtCom= 1.00D+00 WtEn= 0.00D+00
 Coeff-Com: -0.422D-04-0.170D-02-0.491D-02-0.232D-01-0.517D-01 0.166D+00
 Coeff-Com:  0.915D+00
 Coeff:     -0.422D-04-0.170D-02-0.491D-02-0.232D-01-0.517D-01 0.166D+00
 Coeff:      0.915D+00
 Gap=     0.310 Goal=   None    Shift=    0.000
 RMSDP=8.76D-06 MaxDP=4.37D-04 DE=-3.03D-05 OVMax= 1.56D-03

 Cycle   8  Pass 1  IDiag  1:
 RMSU=  3.74D-06    CP:  7.47D-01  8.93D-01  7.79D-01  8.89D-01  1.23D+00
                    CP:  1.46D+00  1.39D+00
 E= -1146.71367536752     Delta-E=       -0.000005383949 Rises=F Damp=F
 DIIS: error= 2.80D-05 at cycle   8 NSaved=   8.
 NSaved= 8 IEnMin= 8 EnMin= -1146.71367536752     IErMin= 8 ErrMin= 2.80D-05
 ErrMax= 2.80D-05  0.00D+00 EMaxC= 1.00D-01 BMatC= 3.24D-07 BMatP= 1.71D-06
 IDIUse=1 WtCom= 1.00D+00 WtEn= 0.00D+00
 Coeff-Com:  0.136D-03 0.153D-02 0.200D-02-0.307D-02-0.661D-01-0.824D-01
 Coeff-Com:  0.291D+00 0.857D+00
 Coeff:      0.136D-03 0.153D-02 0.200D-02-0.307D-02-0.661D-01-0.824D-01
 Coeff:      0.291D+00 0.857D+00
 Gap=     0.310 Goal=   None    Shift=    0.000
 RMSDP=5.47D-06 MaxDP=2.83D-04 DE=-5.38D-06 OVMax= 7.36D-04

 Cycle   9  Pass 1  IDiag  1:
 RMSU=  1.16D-06    CP:  7.47D-01  8.92D-01  7.78D-01  8.84D-01  1.23D+00
                    CP:  1.56D+00  1.66D+00  1.44D+00
 E= -1146.71367633366     Delta-E=       -0.000000966141 Rises=F Damp=F
 DIIS: error= 1.13D-05 at cycle   9 NSaved=   9.
 NSaved= 9 IEnMin= 9 EnMin= -1146.71367633366     IErMin= 9 ErrMin= 1.13D-05
 ErrMax= 1.13D-05  0.00D+00 EMaxC= 1.00D-01 BMatC= 3.55D-08 BMatP= 3.24D-07
 IDIUse=1 WtCom= 1.00D+00 WtEn= 0.00D+00
 Coeff-Com:  0.368D-04 0.512D-03 0.109D-02 0.200D-02-0.973D-02-0.373D-01
 Coeff-Com: -0.448D-01 0.218D+00 0.870D+00
 Coeff:      0.368D-04 0.512D-03 0.109D-02 0.200D-02-0.973D-02-0.373D-01
 Coeff:     -0.448D-01 0.218D+00 0.870D+00
 Gap=     0.310 Goal=   None    Shift=    0.000
 RMSDP=2.60D-06 MaxDP=1.43D-04 DE=-9.66D-07 OVMax= 2.17D-04

 Cycle  10  Pass 1  IDiag  1:
 RMSU=  5.52D-07    CP:  7.48D-01  8.92D-01  7.77D-01  8.81D-01  1.23D+00
                    CP:  1.58D+00  1.76D+00  1.67D+00  1.34D+00
 E= -1146.71367644395     Delta-E=       -0.000000110292 Rises=F Damp=F
 DIIS: error= 4.57D-06 at cycle  10 NSaved=  10.
 NSaved=10 IEnMin=10 EnMin= -1146.71367644395     IErMin=10 ErrMin= 4.57D-06
 ErrMax= 4.57D-06  0.00D+00 EMaxC= 1.00D-01 BMatC= 6.39D-09 BMatP= 3.55D-08
 IDIUse=1 WtCom= 1.00D+00 WtEn= 0.00D+00
 Coeff-Com: -0.943D-05-0.986D-04-0.167D-04 0.109D-02 0.936D-02 0.592D-02
 Coeff-Com: -0.681D-01-0.884D-01 0.248D+00 0.893D+00
 Coeff:     -0.943D-05-0.986D-04-0.167D-04 0.109D-02 0.936D-02 0.592D-02
 Coeff:     -0.681D-01-0.884D-01 0.248D+00 0.893D+00
 Gap=     0.310 Goal=   None    Shift=    0.000
 RMSDP=1.23D-06 MaxDP=7.01D-05 DE=-1.10D-07 OVMax= 7.88D-05

 Cycle  11  Pass 1  IDiag  1:
 RMSU=  1.75D-07    CP:  7.48D-01  8.91D-01  7.77D-01  8.80D-01  1.23D+00
                    CP:  1.59D+00  1.80D+00  1.78D+00  1.58D+00  1.53D+00
 E= -1146.71367646446     Delta-E=       -0.000000020506 Rises=F Damp=F
 DIIS: error= 1.57D-06 at cycle  11 NSaved=  11.
 NSaved=11 IEnMin=11 EnMin= -1146.71367646446     IErMin=11 ErrMin= 1.57D-06
 ErrMax= 1.57D-06  0.00D+00 EMaxC= 1.00D-01 BMatC= 9.77D-10 BMatP= 6.39D-09
 IDIUse=1 WtCom= 1.00D+00 WtEn= 0.00D+00
 Coeff-Com: -0.869D-05-0.104D-03-0.180D-03 0.117D-04 0.427D-02 0.810D-02
 Coeff-Com: -0.136D-01-0.577D-01-0.484D-01 0.274D+00 0.834D+00
 Coeff:     -0.869D-05-0.104D-03-0.180D-03 0.117D-04 0.427D-02 0.810D-02
 Coeff:     -0.136D-01-0.577D-01-0.484D-01 0.274D+00 0.834D+00
 Gap=     0.310 Goal=   None    Shift=    0.000
 RMSDP=2.87D-07 MaxDP=1.34D-05 DE=-2.05D-08 OVMax= 2.47D-05

 Cycle  12  Pass 1  IDiag  1:
 RMSU=  8.10D-08    CP:  7.48D-01  8.91D-01  7.77D-01  8.79D-01  1.23D+00
                    CP:  1.59D+00  1.80D+00  1.80D+00  1.65D+00  1.76D+00
                    CP:  1.27D+00
 E= -1146.71367646760     Delta-E=       -0.000000003149 Rises=F Damp=F
 DIIS: error= 7.94D-07 at cycle  12 NSaved=  12.
 NSaved=12 IEnMin=12 EnMin= -1146.71367646760     IErMin=12 ErrMin= 7.94D-07
 ErrMax= 7.94D-07  0.00D+00 EMaxC= 1.00D-01 BMatC= 1.47D-10 BMatP= 9.77D-10
 IDIUse=1 WtCom= 1.00D+00 WtEn= 0.00D+00
 Coeff-Com: -0.822D-06-0.115D-04-0.509D-04-0.184D-03-0.696D-03 0.935D-03
 Coeff-Com:  0.868D-02 0.671D-03-0.538D-01-0.103D+00 0.174D+00 0.973D+00
 Coeff:     -0.822D-06-0.115D-04-0.509D-04-0.184D-03-0.696D-03 0.935D-03
 Coeff:      0.868D-02 0.671D-03-0.538D-01-0.103D+00 0.174D+00 0.973D+00
 Gap=     0.310 Goal=   None    Shift=    0.000
 RMSDP=9.19D-08 MaxDP=3.22D-06 DE=-3.15D-09 OVMax= 1.65D-05

 Cycle  13  Pass 1  IDiag  1:
 RMSU=  3.57D-08    CP:  7.48D-01  8.91D-01  7.77D-01  8.79D-01  1.23D+00
                    CP:  1.59D+00  1.80D+00  1.81D+00  1.68D+00  1.85D+00
                    CP:  1.49D+00  1.43D+00
 E= -1146.71367646826     Delta-E=       -0.000000000651 Rises=F Damp=F
 DIIS: error= 1.82D-07 at cycle  13 NSaved=  13.
 NSaved=13 IEnMin=13 EnMin= -1146.71367646826     IErMin=13 ErrMin= 1.82D-07
 ErrMax= 1.82D-07  0.00D+00 EMaxC= 1.00D-01 BMatC= 2.09D-11 BMatP= 1.47D-10
 IDIUse=1 WtCom= 1.00D+00 WtEn= 0.00D+00
 Coeff-Com:  0.594D-06 0.542D-05 0.719D-06-0.620D-04-0.750D-03-0.752D-03
 Coeff-Com:  0.443D-02 0.715D-02-0.937D-02-0.659D-01-0.574D-01 0.296D+00
 Coeff-Com:  0.827D+00
 Coeff:      0.594D-06 0.542D-05 0.719D-06-0.620D-04-0.750D-03-0.752D-03
 Coeff:      0.443D-02 0.715D-02-0.937D-02-0.659D-01-0.574D-01 0.296D+00
 Coeff:      0.827D+00
 Gap=     0.310 Goal=   None    Shift=    0.000
 RMSDP=3.59D-08 MaxDP=1.57D-06 DE=-6.51D-10 OVMax= 4.64D-06

 Cycle  14  Pass 1  IDiag  1:
 RMSU=  1.07D-08    CP:  7.48D-01  8.91D-01  7.77D-01  8.79D-01  1.23D+00
                    CP:  1.58D+00  1.80D+00  1.81D+00  1.68D+00  1.86D+00
                    CP:  1.54D+00  1.62D+00  1.32D+00
 E= -1146.71367646831     Delta-E=       -0.000000000054 Rises=F Damp=F
 DIIS: error= 9.78D-08 at cycle  14 NSaved=  14.
 NSaved=14 IEnMin=14 EnMin= -1146.71367646831     IErMin=14 ErrMin= 9.78D-08
 ErrMax= 9.78D-08  0.00D+00 EMaxC= 1.00D-01 BMatC= 2.01D-12 BMatP= 2.09D-11
 IDIUse=1 WtCom= 1.00D+00 WtEn= 0.00D+00
 Coeff-Com:  0.979D-07 0.136D-05 0.423D-05 0.802D-05-0.165D-04-0.184D-03
 Coeff-Com: -0.221D-03 0.619D-03 0.397D-02 0.202D-02-0.305D-01-0.565D-01
 Coeff-Com:  0.164D+00 0.917D+00
 Coeff:      0.979D-07 0.136D-05 0.423D-05 0.802D-05-0.165D-04-0.184D-03
 Coeff:     -0.221D-03 0.619D-03 0.397D-02 0.202D-02-0.305D-01-0.565D-01
 Coeff:      0.164D+00 0.917D+00
 Gap=     0.310 Goal=   None    Shift=    0.000
 RMSDP=1.99D-08 MaxDP=1.01D-06 DE=-5.41D-11 OVMax= 1.76D-06

 Cycle  15  Pass 1  IDiag  1:
 RMSU=  3.95D-09    CP:  7.48D-01  8.91D-01  7.77D-01  8.79D-01  1.23D+00
                    CP:  1.58D+00  1.80D+00  1.81D+00  1.67D+00  1.85D+00
                    CP:  1.55D+00  1.68D+00  1.51D+00  1.44D+00
 E= -1146.71367646832     Delta-E=       -0.000000000008 Rises=F Damp=F
 DIIS: error= 2.77D-08 at cycle  15 NSaved=  15.
 NSaved=15 IEnMin=15 EnMin= -1146.71367646832     IErMin=15 ErrMin= 2.77D-08
 ErrMax= 2.77D-08  0.00D+00 EMaxC= 1.00D-01 BMatC= 3.99D-13 BMatP= 2.01D-12
 IDIUse=1 WtCom= 1.00D+00 WtEn= 0.00D+00
 Coeff-Com: -0.666D-07-0.538D-06 0.464D-06 0.944D-05 0.104D-03 0.598D-04
 Coeff-Com: -0.638D-03-0.886D-03 0.235D-02 0.990D-02-0.300D-02-0.570D-01
 Coeff-Com: -0.620D-01 0.290D+00 0.821D+00
 Coeff:     -0.666D-07-0.538D-06 0.464D-06 0.944D-05 0.104D-03 0.598D-04
 Coeff:     -0.638D-03-0.886D-03 0.235D-02 0.990D-02-0.300D-02-0.570D-01
 Coeff:     -0.620D-01 0.290D+00 0.821D+00
 Gap=     0.310 Goal=   None    Shift=    0.000
 RMSDP=8.36D-09 MaxDP=4.11D-07 DE=-8.19D-12 OVMax= 5.25D-07

 Error on total polarization charges =  0.05434
 SCF Done:  E(RwB97XD) =  -1146.71367647     A.U. after   15 cycles
            NFock= 15  Conv=0.84D-08     -V/T= 2.0044
 KE= 1.141708166048D+03 PE=-5.807617582020D+03 EE= 1.957652028863D+03
 SMD-CDS (non-electrostatic) energy       (kcal/mol) =      -3.20
 (included in total energy above)
 Leave Link  502 at Sat Apr  3 21:03:43 2021, MaxMem=  5242880000 cpu:     10256.5
 (Enter /opt/nce/packages/global/g09/l601.exe)
 Copying SCF densities to generalized density rwf, IOpCl= 0 IROHF=0.

 **********************************************************************

            Population analysis using the SCF density.

 **********************************************************************

 Alpha  occ. eigenvalues --  -89.04063 -14.47194 -10.34249 -10.34033 -10.34032
 Alpha  occ. eigenvalues --  -10.33192 -10.33191 -10.30052 -10.30052 -10.29762
 Alpha  occ. eigenvalues --  -10.29761 -10.29584 -10.29583 -10.29523 -10.29522
 Alpha  occ. eigenvalues --  -10.28967 -10.28967 -10.28467 -10.28466 -10.27999
 Alpha  occ. eigenvalues --   -8.07346  -6.02206  -6.01856  -6.01296  -1.08063
 Alpha  occ. eigenvalues --   -0.97215  -0.96961  -0.94442  -0.90777  -0.86586
 Alpha  occ. eigenvalues --   -0.85648  -0.85469  -0.84150  -0.82313  -0.78440
 Alpha  occ. eigenvalues --   -0.72864  -0.72772  -0.69981  -0.69185  -0.69090
 Alpha  occ. eigenvalues --   -0.65706  -0.62908  -0.62776  -0.58639  -0.57100
 Alpha  occ. eigenvalues --   -0.56993  -0.55670  -0.54945  -0.53437  -0.52842
 Alpha  occ. eigenvalues --   -0.52775  -0.51316  -0.50908  -0.50271  -0.49575
 Alpha  occ. eigenvalues --   -0.48055  -0.46621  -0.46531  -0.45806  -0.44347
 Alpha  occ. eigenvalues --   -0.43789  -0.43020  -0.42466  -0.41757  -0.40056
 Alpha  occ. eigenvalues --   -0.38631  -0.34339  -0.34338  -0.33499  -0.33165
 Alpha  occ. eigenvalues --   -0.29984  -0.27349
 Alpha virt. eigenvalues --    0.03632   0.04070   0.04180   0.04393   0.06356
 Alpha virt. eigenvalues --    0.07132   0.09189   0.12499   0.13530   0.14830
 Alpha virt. eigenvalues --    0.15051   0.15517   0.16162   0.17140   0.17461
 Alpha virt. eigenvalues --    0.17685   0.18577   0.19114   0.19579   0.19921
 Alpha virt. eigenvalues --    0.20102   0.20210   0.20765   0.21585   0.21996
 Alpha virt. eigenvalues --    0.23315   0.24077   0.24529   0.24626   0.26046
 Alpha virt. eigenvalues --    0.26438   0.26972   0.27574   0.27962   0.28688
 Alpha virt. eigenvalues --    0.28718   0.29373   0.29623   0.30360   0.30657
 Alpha virt. eigenvalues --    0.30917   0.31428   0.31759   0.32151   0.32966
 Alpha virt. eigenvalues --    0.33134   0.33573   0.34180   0.34612   0.34887
 Alpha virt. eigenvalues --    0.35729   0.36149   0.36687   0.36991   0.37641
 Alpha virt. eigenvalues --    0.38555   0.38559   0.39143   0.39246   0.39793
 Alpha virt. eigenvalues --    0.40301   0.40480   0.41064   0.41496   0.42231
 Alpha virt. eigenvalues --    0.42857   0.43251   0.43945   0.45145   0.45314
 Alpha virt. eigenvalues --    0.45442   0.45528   0.46330   0.46878   0.47201
 Alpha virt. eigenvalues --    0.47670   0.47716   0.48562   0.48723   0.49448
 Alpha virt. eigenvalues --    0.49557   0.50274   0.50951   0.51016   0.51619
 Alpha virt. eigenvalues --    0.52269   0.52498   0.52675   0.52832   0.54036
 Alpha virt. eigenvalues --    0.54347   0.55213   0.55347   0.56186   0.56311
 Alpha virt. eigenvalues --    0.56784   0.57246   0.57292   0.57869   0.59188
 Alpha virt. eigenvalues --    0.59441   0.59646   0.59930   0.60598   0.62028
 Alpha virt. eigenvalues --    0.62543   0.63028   0.63107   0.64630   0.65201
 Alpha virt. eigenvalues --    0.65588   0.67868   0.68271   0.68670   0.69994
 Alpha virt. eigenvalues --    0.70026   0.72085   0.72618   0.73098   0.73301
 Alpha virt. eigenvalues --    0.74726   0.74728   0.75395   0.76118   0.76883
 Alpha virt. eigenvalues --    0.77161   0.77742   0.77773   0.78193   0.79086
 Alpha virt. eigenvalues --    0.79374   0.79510   0.80308   0.81216   0.81929
 Alpha virt. eigenvalues --    0.82119   0.83160   0.83433   0.84784   0.85284
 Alpha virt. eigenvalues --    0.86381   0.86427   0.86903   0.88348   0.88712
 Alpha virt. eigenvalues --    0.90800   0.91133   0.91273   0.92313   0.92988
 Alpha virt. eigenvalues --    0.93768   0.93935   0.95230   0.95553   0.95794
 Alpha virt. eigenvalues --    0.96211   0.96658   0.97302   0.97736   0.99645
 Alpha virt. eigenvalues --    0.99939   1.00076   1.00693   1.02944   1.03244
 Alpha virt. eigenvalues --    1.03734   1.05082   1.05905   1.07385   1.08731
 Alpha virt. eigenvalues --    1.09933   1.11122   1.11147   1.12242   1.13377
 Alpha virt. eigenvalues --    1.14333   1.14551   1.15615   1.16510   1.17029
 Alpha virt. eigenvalues --    1.19049   1.19137   1.19551   1.20924   1.21475
 Alpha virt. eigenvalues --    1.22279   1.22633   1.24796   1.25909   1.26586
 Alpha virt. eigenvalues --    1.26851   1.27353   1.29238   1.29961   1.30605
 Alpha virt. eigenvalues --    1.30680   1.32110   1.33098   1.33143   1.33787
 Alpha virt. eigenvalues --    1.34488   1.34869   1.36347   1.36801   1.36906
 Alpha virt. eigenvalues --    1.37624   1.37948   1.38481   1.40841   1.41097
 Alpha virt. eigenvalues --    1.41206   1.42527   1.43909   1.45254   1.46855
 Alpha virt. eigenvalues --    1.47533   1.47916   1.50344   1.50360   1.51670
 Alpha virt. eigenvalues --    1.51875   1.52305   1.54427   1.54681   1.54839
 Alpha virt. eigenvalues --    1.55255   1.56964   1.57868   1.58039   1.58528
 Alpha virt. eigenvalues --    1.58584   1.59498   1.61213   1.61564   1.61595
 Alpha virt. eigenvalues --    1.64255   1.64383   1.65246   1.65800   1.66599
 Alpha virt. eigenvalues --    1.67293   1.67584   1.69283   1.69565   1.69861
 Alpha virt. eigenvalues --    1.70725   1.71251   1.71917   1.71987   1.73244
 Alpha virt. eigenvalues --    1.73687   1.74527   1.74945   1.75893   1.76076
 Alpha virt. eigenvalues --    1.77220   1.77720   1.78268   1.79554   1.79608
 Alpha virt. eigenvalues --    1.80706   1.80918   1.81396   1.81749   1.82241
 Alpha virt. eigenvalues --    1.84296   1.85161   1.85679   1.86278   1.87541
 Alpha virt. eigenvalues --    1.88116   1.90059   1.90660   1.91899   1.92960
 Alpha virt. eigenvalues --    1.94991   1.95075   1.96364   1.97252   1.97832
 Alpha virt. eigenvalues --    1.98414   1.99645   2.01312   2.01394   2.03144
 Alpha virt. eigenvalues --    2.03351   2.04347   2.04602   2.07078   2.08755
 Alpha virt. eigenvalues --    2.09676   2.10234   2.11011   2.12909   2.13385
 Alpha virt. eigenvalues --    2.14395   2.15322   2.15717   2.16136   2.18180
 Alpha virt. eigenvalues --    2.18329   2.19684   2.20193   2.20228   2.22151
 Alpha virt. eigenvalues --    2.22186   2.24271   2.24951   2.25713   2.26214
 Alpha virt. eigenvalues --    2.27013   2.28485   2.29668   2.30246   2.30821
 Alpha virt. eigenvalues --    2.31744   2.33450   2.33462   2.34263   2.34624
 Alpha virt. eigenvalues --    2.35097   2.37313   2.38440   2.42833   2.44419
 Alpha virt. eigenvalues --    2.48138   2.49013   2.51475   2.51683   2.52383
 Alpha virt. eigenvalues --    2.52668   2.53583   2.57864   2.58148   2.59290
 Alpha virt. eigenvalues --    2.59545   2.60504   2.60949   2.62012   2.62549
 Alpha virt. eigenvalues --    2.65352   2.66597   2.66955   2.67802   2.68166
 Alpha virt. eigenvalues --    2.68900   2.69536   2.69739   2.71062   2.71539
 Alpha virt. eigenvalues --    2.71936   2.72844   2.73269   2.73286   2.75298
 Alpha virt. eigenvalues --    2.75857   2.76430   2.76621   2.77025   2.77457
 Alpha virt. eigenvalues --    2.78055   2.78723   2.78957   2.80848   2.80873
 Alpha virt. eigenvalues --    2.81014   2.81827   2.82401   2.82797   2.83952
 Alpha virt. eigenvalues --    2.84327   2.84422   2.85248   2.85957   2.86179
 Alpha virt. eigenvalues --    2.87399   2.87920   2.88769   2.89190   2.89968
 Alpha virt. eigenvalues --    2.91220   2.91789   2.92697   2.92820   2.93286
 Alpha virt. eigenvalues --    2.93966   2.94853   2.95114   2.95312   2.96237
 Alpha virt. eigenvalues --    2.97603   2.98365   2.98401   2.99387   3.00063
 Alpha virt. eigenvalues --    3.00604   3.01687   3.01950   3.02539   3.03054
 Alpha virt. eigenvalues --    3.04266   3.04975   3.05269   3.06696   3.07097
 Alpha virt. eigenvalues --    3.10009   3.11546   3.12233   3.13733   3.14351
 Alpha virt. eigenvalues --    3.15908   3.16450   3.18304   3.18599   3.20168
 Alpha virt. eigenvalues --    3.20309   3.21465   3.21623   3.22178   3.22704
 Alpha virt. eigenvalues --    3.22771   3.24125   3.24159   3.25112   3.25258
 Alpha virt. eigenvalues --    3.25974   3.26252   3.26259   3.27478   3.27655
 Alpha virt. eigenvalues --    3.28819   3.28951   3.30478   3.30658   3.30963
 Alpha virt. eigenvalues --    3.33691   3.34496   3.34997   3.35169   3.36856
 Alpha virt. eigenvalues --    3.37719   3.38056   3.39510   3.39694   3.41130
 Alpha virt. eigenvalues --    3.41335   3.41363   3.42058   3.42760   3.43015
 Alpha virt. eigenvalues --    3.43220   3.43532   3.44474   3.45784   3.46572
 Alpha virt. eigenvalues --    3.46614   3.47335   3.47461   3.48689   3.49281
 Alpha virt. eigenvalues --    3.49486   3.50167   3.50895   3.51445   3.53525
 Alpha virt. eigenvalues --    3.54446   3.54748   3.55725   3.56172   3.56414
 Alpha virt. eigenvalues --    3.57735   3.58519   3.58937   3.59711   3.60904
 Alpha virt. eigenvalues --    3.61115   3.61330   3.62785   3.63459   3.64319
 Alpha virt. eigenvalues --    3.64531   3.64723   3.65299   3.66156   3.67004
 Alpha virt. eigenvalues --    3.69485   3.69840   3.70437   3.70908   3.75357
 Alpha virt. eigenvalues --    3.75494   3.77810   3.79240   3.79394   3.79774
 Alpha virt. eigenvalues --    3.80987   3.81588   3.83077   3.83745   3.85641
 Alpha virt. eigenvalues --    3.86793   3.87728   3.88881   3.90920   3.95507
 Alpha virt. eigenvalues --    3.99197   3.99287   4.00257   4.00964   4.02245
 Alpha virt. eigenvalues --    4.02676   4.04304   4.05574   4.08601   4.09805
 Alpha virt. eigenvalues --    4.11665   4.12132   4.13373   4.15101   4.15633
 Alpha virt. eigenvalues --    4.15681   4.17044   4.18154   4.19544   4.19948
 Alpha virt. eigenvalues --    4.20992   4.22444   4.22946   4.26341   4.26773
 Alpha virt. eigenvalues --    4.27284   4.28056   4.28260   4.28762   4.29252
 Alpha virt. eigenvalues --    4.30047   4.31277   4.31306   4.32075   4.32504
 Alpha virt. eigenvalues --    4.33913   4.35046   4.35850   4.37567   4.37816
 Alpha virt. eigenvalues --    4.38886   4.38925   4.41850   4.43316   4.44088
 Alpha virt. eigenvalues --    4.46707   4.48408   4.49454   4.50574   4.53219
 Alpha virt. eigenvalues --    4.57311   4.59003   4.66411   4.67739   4.68579
 Alpha virt. eigenvalues --    4.70601   4.70739   4.74579   4.77681   4.80311
 Alpha virt. eigenvalues --    4.81922   4.82883   4.83290   4.83326   4.85332
 Alpha virt. eigenvalues --    4.88591   4.90641   4.93262   4.94788   4.98023
 Alpha virt. eigenvalues --    5.00017   5.00680   5.02480   5.03627   5.07321
 Alpha virt. eigenvalues --    5.07324   5.17112   5.18399   5.19828   5.20544
 Alpha virt. eigenvalues --    5.24638   5.27443   5.29281   5.31775   5.32753
 Alpha virt. eigenvalues --    5.35837   5.38440   5.40297   5.41543   5.48069
 Alpha virt. eigenvalues --    5.50137   5.55417   5.55558   5.61072   5.63285
 Alpha virt. eigenvalues --    5.67176   5.72173   5.80925   5.88433   5.91515
 Alpha virt. eigenvalues --    5.95271   6.12981   6.14864   6.18830   9.08298
 Alpha virt. eigenvalues --    9.51885   9.67920  20.34871  22.18536  22.25649
 Alpha virt. eigenvalues --   22.35715  22.67952  22.69006  22.69186  22.70054
 Alpha virt. eigenvalues --   22.73789  22.74710  22.81264  22.87332  22.93109
 Alpha virt. eigenvalues --   22.93311  22.94679  22.97728  23.28478  23.34734
 Alpha virt. eigenvalues --   23.39294  33.30701
          Condensed to atoms (all electrons):
               1          2          3          4          5          6
     1  C    5.117015   0.304346   0.148599  -0.174424   0.099115   0.332976
     2  C    0.304346   5.325012   0.153648   0.092401  -0.159935   0.072767
     3  C    0.148599   0.153648   5.355749   0.227587   0.151491  -0.144362
     4  C   -0.174424   0.092401   0.227587   5.455527   0.203154   0.060520
     5  C    0.099115  -0.159935   0.151491   0.203154   5.356874   0.312898
     6  C    0.332976   0.072767  -0.144362   0.060520   0.312898   5.085314
     7  C    0.000474  -0.000124  -0.013424  -0.089122   0.012753  -0.001422
     8  C   -0.000995   0.003117  -0.052296  -0.013418  -0.001446   0.000624
     9  C   -0.000300   0.003745   0.003116  -0.000125  -0.001719   0.000145
    10  H   -0.000007   0.000105   0.000119   0.000157  -0.000020   0.000004
    11  C    0.000019  -0.000300  -0.000994   0.000473   0.000203  -0.000003
    12  C   -0.000003   0.000145   0.000624  -0.001423  -0.000145  -0.000005
    13  C    0.000203  -0.001720  -0.001444   0.012736   0.005557  -0.000145
    14  H   -0.056974   0.459916  -0.082729   0.023497  -0.006934   0.013232
    15  H    0.011742  -0.004966   0.015526  -0.069484   0.459953  -0.047349
    16  H   -0.062423   0.013767  -0.005632   0.017087  -0.062429   0.459534
    17  H    0.000000  -0.000001   0.000005   0.000004   0.000001  -0.000000
    18  H   -0.000000   0.000001   0.000003  -0.000024  -0.000004   0.000000
    19  C   -0.001866   0.004195  -0.024017  -0.082388  -0.008777   0.002830
    20  C    0.000038  -0.000318  -0.000087   0.016080  -0.000697  -0.000169
    21  C    0.000002   0.000005   0.000064   0.000642  -0.000195  -0.000011
    22  C    0.000104  -0.000088   0.000207  -0.002059   0.005354  -0.000233
    23  C   -0.000003   0.000004  -0.000092  -0.000617  -0.000105   0.000017
    24  H   -0.000000   0.000000   0.000001   0.000008  -0.000000   0.000000
    25  H   -0.000000   0.000000   0.000008   0.000135   0.000036   0.000001
    26  H    0.000000  -0.000009  -0.000122  -0.000507   0.000080   0.000001
    27  H   -0.000000  -0.000000  -0.000001  -0.000008   0.000002   0.000000
    28  H    0.460790  -0.063543   0.015214  -0.005901   0.014222  -0.060817
    29  N   -0.001444   0.017964  -0.084202   0.248226  -0.038125   0.005566
    30  H    0.000004  -0.000026  -0.000115   0.001260   0.000198   0.000022
    31  S    0.009714  -0.066923   0.413173  -0.100698   0.018202  -0.003647
    32  C    0.000206  -0.000166   0.002332  -0.020540  -0.000531  -0.000649
    33  H   -0.000764   0.000554  -0.000862   0.005846  -0.011590   0.001835
               7          8          9         10         11         12
     1  C    0.000474  -0.000995  -0.000300  -0.000007   0.000019  -0.000003
     2  C   -0.000124   0.003117   0.003745   0.000105  -0.000300   0.000145
     3  C   -0.013424  -0.052296   0.003116   0.000119  -0.000994   0.000624
     4  C   -0.089122  -0.013418  -0.000125   0.000157   0.000473  -0.001423
     5  C    0.012753  -0.001446  -0.001719  -0.000020   0.000203  -0.000145
     6  C   -0.001422   0.000624   0.000145   0.000004  -0.000003  -0.000005
     7  C    5.455048   0.227480   0.092491   0.023499  -0.174441   0.060630
     8  C    0.227480   5.355743   0.153562  -0.082737   0.148615  -0.144375
     9  C    0.092491   0.153562   5.325004   0.459901   0.304418   0.072794
    10  H    0.023499  -0.082737   0.459901   0.484931  -0.056946   0.013230
    11  C   -0.174441   0.148615   0.304418  -0.056946   5.116994   0.332952
    12  C    0.060630  -0.144375   0.072794   0.013230   0.332952   5.085341
    13  C    0.203176   0.151514  -0.159976  -0.006932   0.099141   0.312830
    14  H    0.000157   0.000119   0.000105   0.000027  -0.000007   0.000004
    15  H    0.001261  -0.000116  -0.000026   0.000000   0.000004   0.000022
    16  H   -0.000024   0.000003   0.000001   0.000000  -0.000000   0.000000
    17  H   -0.005902   0.015215  -0.063524  -0.006652   0.460779  -0.060819
    18  H    0.017085  -0.005632   0.013768  -0.000024  -0.062421   0.459549
    19  C   -0.082287  -0.023991   0.004197   0.000087  -0.001866   0.002828
    20  C   -0.020599   0.002330  -0.000165  -0.000009   0.000205  -0.000643
    21  C   -0.002061   0.000204  -0.000087  -0.000001   0.000104  -0.000233
    22  C    0.000643   0.000064   0.000005  -0.000000   0.000002  -0.000011
    23  C   -0.000618  -0.000092   0.000004  -0.000000  -0.000003   0.000017
    24  H    0.000135   0.000008   0.000000   0.000000  -0.000000   0.000001
    25  H    0.000008   0.000001   0.000000  -0.000000  -0.000000   0.000000
    26  H    0.005832  -0.000860   0.000554   0.000006  -0.000764   0.001838
    27  H   -0.000008  -0.000001  -0.000000   0.000000  -0.000000   0.000000
    28  H    0.000004   0.000005  -0.000001  -0.000000   0.000000  -0.000000
    29  N    0.248371  -0.084213   0.017976  -0.000133  -0.001449   0.005564
    30  H   -0.069503   0.015525  -0.004968  -0.000003   0.011744  -0.047348
    31  S   -0.100695   0.413224  -0.066922   0.002737   0.009714  -0.003648
    32  C    0.016066  -0.000085  -0.000318  -0.000003   0.000038  -0.000169
    33  H   -0.000509  -0.000122  -0.000009   0.000000   0.000000   0.000001
              13         14         15         16         17         18
     1  C    0.000203  -0.056974   0.011742  -0.062423   0.000000  -0.000000
     2  C   -0.001720   0.459916  -0.004966   0.013767  -0.000001   0.000001
     3  C   -0.001444  -0.082729   0.015526  -0.005632   0.000005   0.000003
     4  C    0.012736   0.023497  -0.069484   0.017087   0.000004  -0.000024
     5  C    0.005557  -0.006934   0.459953  -0.062429   0.000001  -0.000004
     6  C   -0.000145   0.013232  -0.047349   0.459534  -0.000000   0.000000
     7  C    0.203176   0.000157   0.001261  -0.000024  -0.005902   0.017085
     8  C    0.151514   0.000119  -0.000116   0.000003   0.015215  -0.005632
     9  C   -0.159976   0.000105  -0.000026   0.000001  -0.063524   0.013768
    10  H   -0.006932   0.000027   0.000000   0.000000  -0.006652  -0.000024
    11  C    0.099141  -0.000007   0.000004  -0.000000   0.460779  -0.062421
    12  C    0.312830   0.000004   0.000022   0.000000  -0.060819   0.459549
    13  C    5.357045  -0.000020   0.000198  -0.000004   0.014223  -0.062438
    14  H   -0.000020   0.484957  -0.000003  -0.000024  -0.000000   0.000000
    15  H    0.000198  -0.000003   0.462992  -0.006563  -0.000000  -0.000001
    16  H   -0.000004  -0.000024  -0.006563   0.483931   0.000000   0.000000
    17  H    0.014223  -0.000000  -0.000000   0.000000   0.483394  -0.006386
    18  H   -0.062438   0.000000  -0.000001   0.000000  -0.006386   0.483930
    19  C   -0.008780   0.000087  -0.002238   0.000084   0.000002   0.000084
    20  C   -0.000538  -0.000003  -0.000545   0.000002  -0.000003  -0.000007
    21  C    0.005345  -0.000000   0.000026   0.000000  -0.000000  -0.000009
    22  C   -0.000196  -0.000001   0.000640  -0.000009  -0.000000   0.000000
    23  C   -0.000104  -0.000000  -0.000031  -0.000000   0.000000  -0.000000
    24  H    0.000036  -0.000000  -0.000000  -0.000000   0.000000   0.000000
    25  H   -0.000000   0.000000   0.000019   0.000000  -0.000000  -0.000000
    26  H   -0.011582   0.000000   0.000002  -0.000000  -0.000005   0.000041
    27  H    0.000002   0.000000  -0.000000   0.000000   0.000000   0.000000
    28  H    0.000001  -0.006652   0.000010  -0.006385   0.000000   0.000000
    29  N   -0.038132  -0.000133   0.004545  -0.000180   0.000009  -0.000180
    30  H    0.459977   0.000000   0.000122  -0.000001   0.000010  -0.006562
    31  S    0.018201   0.002736  -0.000157   0.000010  -0.000217   0.000010
    32  C   -0.000692  -0.000009  -0.002424  -0.000007   0.000000   0.000002
    33  H    0.000080   0.000006  -0.002997   0.000041   0.000000  -0.000000
              19         20         21         22         23         24
     1  C   -0.001866   0.000038   0.000002   0.000104  -0.000003  -0.000000
     2  C    0.004195  -0.000318   0.000005  -0.000088   0.000004   0.000000
     3  C   -0.024017  -0.000087   0.000064   0.000207  -0.000092   0.000001
     4  C   -0.082388   0.016080   0.000642  -0.002059  -0.000617   0.000008
     5  C   -0.008777  -0.000697  -0.000195   0.005354  -0.000105  -0.000000
     6  C    0.002830  -0.000169  -0.000011  -0.000233   0.000017   0.000000
     7  C   -0.082287  -0.020599  -0.002061   0.000643  -0.000618   0.000135
     8  C   -0.023991   0.002330   0.000204   0.000064  -0.000092   0.000008
     9  C    0.004197  -0.000165  -0.000087   0.000005   0.000004   0.000000
    10  H    0.000087  -0.000009  -0.000001  -0.000000  -0.000000   0.000000
    11  C   -0.001866   0.000205   0.000104   0.000002  -0.000003  -0.000000
    12  C    0.002828  -0.000643  -0.000233  -0.000011   0.000017   0.000001
    13  C   -0.008780  -0.000538   0.005345  -0.000196  -0.000104   0.000036
    14  H    0.000087  -0.000003  -0.000000  -0.000001  -0.000000  -0.000000
    15  H   -0.002238  -0.000545   0.000026   0.000640  -0.000031  -0.000000
    16  H    0.000084   0.000002   0.000000  -0.000009  -0.000000  -0.000000
    17  H    0.000002  -0.000003  -0.000000  -0.000000   0.000000   0.000000
    18  H    0.000084  -0.000007  -0.000009   0.000000  -0.000000   0.000000
    19  C    4.948862   0.367255  -0.006045  -0.006023  -0.080195   0.013416
    20  C    0.367255   5.255029   0.406499  -0.082775   0.021493  -0.056534
    21  C   -0.006045   0.406499   5.028292   0.009150   0.407954   0.451495
    22  C   -0.006023  -0.082775   0.009150   5.028151   0.407982   0.010857
    23  C   -0.080195   0.021493   0.407954   0.407982   5.093188  -0.056214
    24  H    0.013416  -0.056534   0.451495   0.010857  -0.056214   0.489641
    25  H    0.013420  -0.003915   0.010853   0.451495  -0.056209  -0.000073
    26  H   -0.048899   0.440249  -0.033162  -0.002640   0.007447  -0.005981
    27  H   -0.004775   0.013186  -0.060013  -0.060017   0.459008  -0.006015
    28  H    0.000002   0.000000  -0.000000  -0.000000   0.000000  -0.000000
    29  N    0.453002  -0.088171   0.003948   0.003948  -0.000308  -0.000080
    30  H   -0.002238  -0.002426   0.000640   0.000026  -0.000030   0.000019
    31  S    0.004613   0.002290  -0.000401  -0.000402   0.000206  -0.000004
    32  C    0.367243   0.056756  -0.082789   0.406549   0.021487  -0.003916
    33  H   -0.048909   0.007189  -0.002640  -0.033115   0.007447   0.000014
              25         26         27         28         29         30
     1  C   -0.000000   0.000000  -0.000000   0.460790  -0.001444   0.000004
     2  C    0.000000  -0.000009  -0.000000  -0.063543   0.017964  -0.000026
     3  C    0.000008  -0.000122  -0.000001   0.015214  -0.084202  -0.000115
     4  C    0.000135  -0.000507  -0.000008  -0.005901   0.248226   0.001260
     5  C    0.000036   0.000080   0.000002   0.014222  -0.038125   0.000198
     6  C    0.000001   0.000001   0.000000  -0.060817   0.005566   0.000022
     7  C    0.000008   0.005832  -0.000008   0.000004   0.248371  -0.069503
     8  C    0.000001  -0.000860  -0.000001   0.000005  -0.084213   0.015525
     9  C    0.000000   0.000554  -0.000000  -0.000001   0.017976  -0.004968
    10  H   -0.000000   0.000006   0.000000  -0.000000  -0.000133  -0.000003
[...]
 Alpha virt. eigenvalues --   22.38820  22.73691  22.74876  22.74881  22.75732
 Alpha virt. eigenvalues --   22.79648  22.80496  22.87653  22.93628  22.98550
 Alpha virt. eigenvalues --   22.99892  23.00309  23.04396  23.36296  23.41805
 Alpha virt. eigenvalues --   23.45767  33.31841
          Condensed to atoms (all electrons):
               1          2          3          4          5          6
     1  C    5.134340   0.280001   0.175777  -0.199786   0.120020   0.311596
     2  C    0.280001   5.366845   0.109909   0.116230  -0.183284   0.091921
     3  C    0.175777   0.109909   5.398486   0.193440   0.182463  -0.167351
     4  C   -0.199786   0.116230   0.193440   5.513499   0.167947   0.079916
     5  C    0.120020  -0.183284   0.182463   0.167947   5.376654   0.291343
     6  C    0.311596   0.091921  -0.167351   0.079916   0.291343   5.101711
     7  C    0.000583  -0.000733  -0.016163  -0.069104   0.013994  -0.001533
     8  C   -0.001238   0.003661  -0.058327  -0.015998  -0.002013   0.000836
     9  C   -0.000397   0.004854   0.003722  -0.000801  -0.002270   0.000200
    10  H   -0.000009   0.000124   0.000141   0.000168  -0.000021   0.000005
    11  C    0.000027  -0.000399  -0.001243   0.000589   0.000278  -0.000006
    12  C   -0.000007   0.000202   0.000835  -0.001531  -0.000162  -0.000011
    13  C    0.000278  -0.002272  -0.002026   0.013946   0.006893  -0.000158
    14  H   -0.060034   0.465985  -0.086803   0.025700  -0.007575   0.014285
    15  H    0.013502  -0.005979   0.017768  -0.073917   0.468143  -0.052092
    16  H   -0.065842   0.015077  -0.006449   0.019139  -0.066144   0.465681
    17  H    0.000000  -0.000002   0.000003   0.000007   0.000001  -0.000000
    18  H   -0.000000   0.000001   0.000004  -0.000030  -0.000005   0.000000
    19  C   -0.002058   0.004484  -0.023967  -0.079879  -0.009476   0.003289
    20  C    0.000062  -0.000462  -0.000010   0.015614  -0.000132  -0.000204
    21  C    0.000003   0.000011   0.000140   0.000613  -0.000308  -0.000016
    22  C    0.000115  -0.000077   0.000303  -0.001883   0.004817  -0.000322
    23  C   -0.000004   0.000006  -0.000133  -0.000741  -0.000050   0.000025
    24  H   -0.000000   0.000000   0.000002   0.000010  -0.000001   0.000000
    25  H    0.000000  -0.000001   0.000014   0.000152   0.000034  -0.000001
    26  H    0.000001  -0.000013  -0.000157  -0.000498   0.000122   0.000000
    27  H   -0.000000   0.000000  -0.000001  -0.000008   0.000002   0.000000
    28  H    0.466213  -0.066703   0.016807  -0.006706   0.015331  -0.063378
    29  N   -0.001873   0.020979  -0.082258   0.227039  -0.039720   0.006557
    30  H    0.000007  -0.000037  -0.000140   0.001137   0.000305   0.000026
    31  S    0.010273  -0.067734   0.420024  -0.110157   0.019431  -0.004048
    32  C    0.000080  -0.000032   0.000403  -0.016011  -0.003424  -0.000384
    33  H   -0.000760   0.000472  -0.000696   0.006774  -0.011233   0.001812
               7          8          9         10         11         12
     1  C    0.000583  -0.001238  -0.000397  -0.000009   0.000027  -0.000007
     2  C   -0.000733   0.003661   0.004854   0.000124  -0.000399   0.000202
     3  C   -0.016163  -0.058327   0.003722   0.000141  -0.001243   0.000835
     4  C   -0.069104  -0.015998  -0.000801   0.000168   0.000589  -0.001531
     5  C    0.013994  -0.002013  -0.002270  -0.000021   0.000278  -0.000162
     6  C   -0.001533   0.000836   0.000200   0.000005  -0.000006  -0.000011
     7  C    5.511384   0.193197   0.116611   0.025697  -0.199881   0.080067
     8  C    0.193197   5.399896   0.109570  -0.086825   0.176062  -0.167498
     9  C    0.116611   0.109570   5.366871   0.466029   0.279745   0.091998
    10  H    0.025697  -0.086825   0.466029   0.487183  -0.060052   0.014288
    11  C   -0.199881   0.176062   0.279745  -0.060052   5.134513   0.311629
    12  C    0.080067  -0.167498   0.091998   0.014288   0.311629   5.101297
    13  C    0.167236   0.182718  -0.183443  -0.007580   0.120131   0.291289
    14  H    0.000166   0.000143   0.000124   0.000029  -0.000009   0.000005
    15  H    0.001121  -0.000138  -0.000037   0.000000   0.000007   0.000026
    16  H   -0.000029   0.000004   0.000001   0.000000  -0.000000   0.000000
    17  H   -0.006716   0.016820  -0.066727  -0.007185   0.466249  -0.063404
    18  H    0.019163  -0.006454   0.015083  -0.000017  -0.065862   0.465683
    19  C   -0.079596  -0.023981   0.004480   0.000104  -0.002073   0.003341
    20  C   -0.016118   0.000392  -0.000014  -0.000003   0.000070  -0.000359
    21  C   -0.001793   0.000296  -0.000079  -0.000002   0.000115  -0.000322
    22  C    0.000645   0.000137   0.000010  -0.000000   0.000003  -0.000016
    23  C   -0.000756  -0.000135   0.000007   0.000000  -0.000004   0.000025
    24  H    0.000153   0.000014  -0.000001   0.000000   0.000000  -0.000001
    25  H    0.000010   0.000002   0.000000  -0.000000  -0.000000   0.000000
    26  H    0.006807  -0.000717   0.000488   0.000007  -0.000768   0.001825
    27  H   -0.000008  -0.000001   0.000000   0.000000  -0.000000   0.000000
    28  H    0.000007   0.000003  -0.000002  -0.000000   0.000000  -0.000000
    29  N    0.228013  -0.082725   0.020980  -0.000158  -0.001892   0.006556
    30  H   -0.074120   0.017751  -0.005984  -0.000005   0.013497  -0.051955
    31  S   -0.109997   0.419969  -0.067675   0.002748   0.010274  -0.004051
    32  C    0.015491  -0.000002  -0.000463  -0.000004   0.000061  -0.000196
    33  H   -0.000504  -0.000157  -0.000013   0.000000   0.000001   0.000000
              13         14         15         16         17         18
     1  C    0.000278  -0.060034   0.013502  -0.065842   0.000000  -0.000000
     2  C   -0.002272   0.465985  -0.005979   0.015077  -0.000002   0.000001
     3  C   -0.002026  -0.086803   0.017768  -0.006449   0.000003   0.000004
     4  C    0.013946   0.025700  -0.073917   0.019139   0.000007  -0.000030
     5  C    0.006893  -0.007575   0.468143  -0.066144   0.000001  -0.000005
     6  C   -0.000158   0.014285  -0.052092   0.465681  -0.000000   0.000000
     7  C    0.167236   0.000166   0.001121  -0.000029  -0.006716   0.019163
     8  C    0.182718   0.000143  -0.000138   0.000004   0.016820  -0.006454
     9  C   -0.183443   0.000124  -0.000037   0.000001  -0.066727   0.015083
    10  H   -0.007580   0.000029   0.000000   0.000000  -0.007185  -0.000017
    11  C    0.120131  -0.000009   0.000007  -0.000000   0.466249  -0.065862
    12  C    0.291289   0.000005   0.000026   0.000000  -0.063404   0.465683
    13  C    5.378365  -0.000021   0.000305  -0.000005   0.015348  -0.066160
    14  H   -0.000021   0.487182  -0.000005  -0.000017  -0.000000   0.000000
    15  H    0.000305  -0.000005   0.469511  -0.007205  -0.000000  -0.000001
    16  H   -0.000005  -0.000017  -0.007205   0.487157   0.000000   0.000000
    17  H    0.015348  -0.000000  -0.000000   0.000000   0.485948  -0.006858
    18  H   -0.066160   0.000000  -0.000001   0.000000  -0.006858   0.487173
    19  C   -0.009559   0.000103  -0.002058   0.000079   0.000003   0.000079
    20  C   -0.003431  -0.000005  -0.000497   0.000001  -0.000005   0.000002
    21  C    0.004855  -0.000000   0.000011   0.000000  -0.000000  -0.000007
    22  C   -0.000303  -0.000002   0.000565  -0.000007  -0.000000   0.000000
    23  C   -0.000058   0.000000  -0.000019  -0.000000   0.000000  -0.000000
    24  H    0.000035  -0.000000   0.000000  -0.000000   0.000000   0.000000
    25  H   -0.000000   0.000000   0.000018   0.000000  -0.000000  -0.000000
    26  H   -0.011344   0.000000   0.000004  -0.000000  -0.000006   0.000032
    27  H    0.000002   0.000000  -0.000000   0.000000   0.000000   0.000000
    28  H    0.000001  -0.007183   0.000025  -0.006855   0.000000   0.000000
    29  N   -0.039711  -0.000159   0.004402  -0.000203   0.000009  -0.000203
    30  H    0.468219   0.000000   0.000150  -0.000001   0.000026  -0.007200
    31  S    0.019399   0.002752  -0.000166   0.000012  -0.000233   0.000012
    32  C   -0.000128  -0.000004  -0.001982   0.000001   0.000000   0.000001
    33  H    0.000121   0.000007  -0.002420   0.000030   0.000000  -0.000000
              19         20         21         22         23         24
     1  C   -0.002058   0.000062   0.000003   0.000115  -0.000004  -0.000000
     2  C    0.004484  -0.000462   0.000011  -0.000077   0.000006   0.000000
     3  C   -0.023967  -0.000010   0.000140   0.000303  -0.000133   0.000002
     4  C   -0.079879   0.015614   0.000613  -0.001883  -0.000741   0.000010
     5  C   -0.009476  -0.000132  -0.000308   0.004817  -0.000050  -0.000001
     6  C    0.003289  -0.000204  -0.000016  -0.000322   0.000025   0.000000
     7  C   -0.079596  -0.016118  -0.001793   0.000645  -0.000756   0.000153
     8  C   -0.023981   0.000392   0.000296   0.000137  -0.000135   0.000014
     9  C    0.004480  -0.000014  -0.000079   0.000010   0.000007  -0.000001
    10  H    0.000104  -0.000003  -0.000002  -0.000000   0.000000   0.000000
    11  C   -0.002073   0.000070   0.000115   0.000003  -0.000004   0.000000
    12  C    0.003341  -0.000359  -0.000322  -0.000016   0.000025  -0.000001
    13  C   -0.009559  -0.003431   0.004855  -0.000303  -0.000058   0.000035
    14  H    0.000103  -0.000005  -0.000000  -0.000002   0.000000  -0.000000
    15  H   -0.002058  -0.000497   0.000011   0.000565  -0.000019   0.000000
    16  H    0.000079   0.000001   0.000000  -0.000007  -0.000000  -0.000000
    17  H    0.000003  -0.000005  -0.000000  -0.000000   0.000000   0.000000
    18  H    0.000079   0.000002  -0.000007   0.000000  -0.000000   0.000000
    19  C    4.953684   0.357285   0.000971   0.001144  -0.087819   0.014353
    20  C    0.357285   5.265580   0.395940  -0.089648   0.027894  -0.058550
    21  C    0.000971   0.395940   5.038964   0.015484   0.399282   0.455856
    22  C    0.001144  -0.089648   0.015484   5.039657   0.399168   0.011625
    23  C   -0.087819   0.027894   0.399282   0.399168   5.100131  -0.058254
    24  H    0.014353  -0.058550   0.455856   0.011625  -0.058254   0.491931
    25  H    0.014345  -0.004314   0.011617   0.455839  -0.058241  -0.000068
    26  H   -0.050280   0.444393  -0.036134  -0.003081   0.008235  -0.006356
    27  H   -0.005169   0.013986  -0.062104  -0.062099   0.463499  -0.006385
    28  H    0.000003   0.000000  -0.000000  -0.000000   0.000000  -0.000000
    29  N    0.456990  -0.093923   0.004885   0.004913  -0.000489  -0.000086
    30  H   -0.002081  -0.002023   0.000565   0.000010  -0.000019   0.000018
    31  S    0.005691   0.003147  -0.000578  -0.000582   0.000290  -0.000005
    32  C    0.357422   0.062563  -0.089624   0.395548   0.027841  -0.004318
    33  H   -0.050338   0.008252  -0.003082  -0.036260   0.008241   0.000014
              25         26         27         28         29         30
     1  C    0.000000   0.000001  -0.000000   0.466213  -0.001873   0.000007
     2  C   -0.000001  -0.000013   0.000000  -0.066703   0.020979  -0.000037
     3  C    0.000014  -0.000157  -0.000001   0.016807  -0.082258  -0.000140
     4  C    0.000152  -0.000498  -0.000008  -0.006706   0.227039   0.001137
     5  C    0.000034   0.000122   0.000002   0.015331  -0.039720   0.000305
     6  C   -0.000001   0.000000   0.000000  -0.063378   0.006557   0.000026
     7  C    0.000010   0.006807  -0.000008   0.000007   0.228013  -0.074120
     8  C    0.000002  -0.000717  -0.000001   0.000003  -0.082725   0.017751
     9  C    0.000000   0.000488   0.000000  -0.000002   0.020980  -0.005984
    10  H   -0.000000   0.000007   0.000000  -0.000000  -0.000158  -0.000005
    11  C   -0.000000  -0.000768  -0.000000   0.000000  -0.001892   0.013497
    12  C    0.000000   0.001825   0.000000  -0.000000   0.006556  -0.051955
    13  C   -0.000000  -0.011344   0.000002   0.000001  -0.039711   0.468219
    14  H    0.000000   0.000000   0.000000  -0.007183  -0.000159   0.000000
    15  H    0.000018   0.000004  -0.000000   0.000025   0.004402   0.000150
    16  H    0.000000  -0.000000   0.000000  -0.006855  -0.000203  -0.000001
    17  H   -0.000000  -0.000006   0.000000   0.000000   0.000009   0.000026
    18  H   -0.000000   0.000032   0.000000   0.000000  -0.000203  -0.007200
    19  C    0.014345  -0.050280  -0.005169   0.000003   0.456990  -0.002081
    20  C   -0.004314   0.444393   0.013986   0.000000  -0.093923  -0.002023
    21  C    0.011617  -0.036134  -0.062104  -0.000000   0.004885   0.000565
    22  C    0.455839  -0.003081  -0.062099  -0.000000   0.004913   0.000010
    23  C   -0.058241   0.008235   0.463499   0.000000  -0.000489  -0.000019
    24  H   -0.000068  -0.006356  -0.006385  -0.000000  -0.000086   0.000018
    25  H    0.491933   0.000014  -0.006384   0.000000  -0.000086   0.000000
    26  H    0.000014   0.468357  -0.000024   0.000000  -0.008434  -0.002465
    27  H   -0.006384  -0.000024   0.492881   0.000000   0.000015  -0.000000
    28  H    0.000000   0.000000   0.000000   0.485937   0.000009  -0.000000
    29  N   -0.000086  -0.008434   0.000015   0.000009   6.432125   0.004456
    30  H    0.000000  -0.002465  -0.000000  -0.000000   0.004456   0.469152
    31  S   -0.000005   0.000384   0.000001  -0.000233   0.006520  -0.000166
    32  C   -0.058525   0.008261   0.013984  -0.000005  -0.094177  -0.000493
    33  H   -0.006360   0.000011  -0.000024  -0.000005  -0.008488   0.000004
              31         32         33
     1  C    0.010273   0.000080  -0.000760
     2  C   -0.067734  -0.000032   0.000472
     3  C    0.420024   0.000403  -0.000696
     4  C   -0.110157  -0.016011   0.006774
     5  C    0.019431  -0.003424  -0.011233
     6  C   -0.004048  -0.000384   0.001812
     7  C   -0.109997   0.015491  -0.000504
     8  C    0.419969  -0.000002  -0.000157
     9  C   -0.067675  -0.000463  -0.000013
    10  H    0.002748  -0.000004   0.000000
    11  C    0.010274   0.000061   0.000001
    12  C   -0.004051  -0.000196   0.000000
    13  C    0.019399  -0.000128   0.000121
    14  H    0.002752  -0.000004   0.000007
    15  H   -0.000166  -0.001982  -0.002420
    16  H    0.000012   0.000001   0.000030
    17  H   -0.000233   0.000000   0.000000
    18  H    0.000012   0.000001  -0.000000
    19  C    0.005691   0.357422  -0.050338
    20  C    0.003147   0.062563   0.008252
    21  C   -0.000578  -0.089624  -0.003082
    22  C   -0.000582   0.395548  -0.036260
    23  C    0.000290   0.027841   0.008241
    24  H   -0.000005  -0.004318   0.000014
    25  H   -0.000005  -0.058525  -0.006360
    26  H    0.000384   0.008261   0.000011
    27  H    0.000001   0.013984  -0.000024
    28  H   -0.000233  -0.000005  -0.000005
    29  N    0.006520  -0.094177  -0.008488
    30  H   -0.000166  -0.000493   0.000004
    31  S   15.480530   0.003157   0.000388
    32  C    0.003157   5.265074   0.444572
    33  H    0.000388   0.444572   0.468396
 Mulliken charges:
               1
     1  C   -0.180868
     2  C   -0.153035
     3  C   -0.074515
     4  C    0.195132
     5  C   -0.341960
     6  C   -0.079697
     7  C    0.196706
     8  C   -0.075264
     9  C   -0.152870
    10  H    0.165339
    11  C   -0.181062
    12  C   -0.079554
    13  C   -0.342941
    14  H    0.165336
    15  H    0.170957
    16  H    0.165575
    17  H    0.166721
    18  H    0.165563
    19  C    0.250483
    20  C   -0.325483
    21  C   -0.135557
    22  C   -0.135702
    23  C   -0.227922
    24  H    0.160016
    25  H    0.160008
    26  H    0.181337
    27  H    0.157837
    28  H    0.166735
    29  N    0.030136
    30  H    0.171365
    31  S   -0.039372
    32  C   -0.324687
    33  H    0.181244
 Sum of Mulliken charges =  -0.00000
 Mulliken charges with hydrogens summed into heavy atoms:
               1
     1  C   -0.014133
     2  C    0.012301
     3  C   -0.074515
     4  C    0.195132
     5  C   -0.171004
     6  C    0.085878
     7  C    0.196706
     8  C   -0.075264
     9  C    0.012468
    11  C   -0.014341
    12  C    0.086009
    13  C   -0.171576
    19  C    0.250483
    20  C   -0.144146
    21  C    0.024458
    22  C    0.024306
    23  C   -0.070084
    29  N    0.030136
    31  S   -0.039372
    32  C   -0.143442
 Electronic spatial extent (au):  <R**2>=           5205.2499
 Charge=             -0.0000 electrons
 Dipole moment (field-independent basis, Debye):
    X=              1.1569    Y=              0.0018    Z=              1.8023  Tot=              2.1417
 Quadrupole moment (field-independent basis, Debye-Ang):
   XX=           -117.3722   YY=            -98.4821   ZZ=           -122.4688
   XY=             -0.0351   XZ=             -2.5975   YZ=             -0.0285
 Traceless Quadrupole moment (field-independent basis, Debye-Ang):
   XX=             -4.5978   YY=             14.2922   ZZ=             -9.6944
   XY=             -0.0351   XZ=             -2.5975   YZ=             -0.0285
 Octapole moment (field-independent basis, Debye-Ang**2):
  XXX=            -14.0301  YYY=              0.2034  ZZZ=             15.9754  XYY=             33.7254
  XXY=             -0.2331  XXZ=            -27.7065  XZZ=              7.2445  YZZ=              0.0321
  YYZ=             23.5481  XYZ=             -0.0164
 Hexadecapole moment (field-independent basis, Debye-Ang**3):
 XXXX=          -3201.9047 YYYY=          -2745.4597 ZZZZ=           -772.0170 XXXY=             -0.5341
 XXXZ=             34.6996 YYYX=              0.2285 YYYZ=             -0.2224 ZZZX=            -36.2669
 ZZZY=             -0.0300 XXYY=           -913.3450 XXZZ=           -728.7932 YYZZ=           -589.8803
 XXYZ=             -0.1240 YYXZ=             -9.6705 ZZXY=             -0.3249
 N-N= 1.574354119208D+03 E-N=-5.833894040045D+03  KE= 1.142435486956D+03
 Leave Link  601 at Sun Apr  4 03:25:00 2021, MaxMem=  5242880000 cpu:         2.8
 (Enter /opt/nce/packages/global/g09/l9999.exe)
 1\1\GINC-CN029\SP\RwB97XD TD-FC\Gen\C18H13N1S1\PNG4RJV\04-Apr-2021\0\\
 #p wB97XD chkbasis geom=allcheck Guess=Read int=ultrafine scrf=(SMD,so
 lvent=n,n-DiMethylAcetamide) td=(NStates=30)\\Title\\0,1\C,0,-1.944286
 0236,3.5246712116,-0.4037915108\C,0,-2.1885445554,2.499668531,0.495858
 6349\C,0,-1.423077985,1.3413613386,0.4429338586\C,0,-0.4199949829,1.20
 46623501,-0.5139094859\C,0,-0.2166664165,2.2160321867,-1.4431932877\C,
 0,-0.965632406,3.3795781835,-1.3783988311\C,0,-0.4042849012,-1.1845864
 901,-0.5074667758\C,0,-1.4055386885,-1.3291873509,0.4502179783\C,0,-2.
 1558636324,-2.4970460222,0.5093659798\H,0,-2.9413599953,-2.5989724441,
 1.248222088\C,0,-1.8984231402,-3.5235355071,-0.3849040458\C,0,-0.92193
 73837,-3.3708638411,-1.3604891343\C,0,-0.1881510011,-2.1980313081,-1.4
 31576989\H,0,-2.9753933757,2.5952616854,1.2341317218\H,0,0.546052896,2
 .0885652404,-2.2011787924\H,0,-0.7908937516,4.1712287937,-2.0958606426
 \H,0,-2.4783191612,-4.436335889,-0.3330675987\H,0,-0.7371401743,-4.163
 8713842,-2.0739163982\C,0,1.6850150687,0.025320299,-0.0699678463\C,0,2
 .3738124221,-1.1688825151,0.1716411142\C,0,3.6842023907,-1.1501652918,
 0.6209897619\C,0,3.6650966812,1.2324566705,0.6215528965\C,0,4.34730685
 76,0.0464839073,0.8476361609\H,0,4.187741411,-2.0930965003,0.798769713
 2\H,0,4.1534617971,2.1832342548,0.7998550211\H,0,1.8889646835,-2.12188
 5863,0.0171934399\H,0,5.3715557411,0.0546091839,1.1976934762\H,0,-2.53
 59414046,4.4301672458,-0.3568387695\N,0,0.3582005763,0.0150483865,-0.5
 360844286\H,0,0.5724516224,-2.0645993747,-2.1906508419\S,0,-1.71694373
 58,0.0071447311,1.5648194447\C,0,2.3545386836,1.2303094397,0.172385468
 8\H,0,1.854168884,2.175415142,0.0188026196\\Version=ES64L-G09RevE.01\S
 tate=1-A\HF=-1146.7166367\RMSD=6.400e-09\PG=C01 [X(C18H13N1S1)]\\@


 Fatherhood is pretending the present you love most is soap-on-a-rope.
 -- Bill Cosby
 Job cpu time:       0 days 21 hours 14 minutes 59.7 seconds.
 File lengths (MBytes):  RWF=   2451 Int=      0 D2E=      0 Chk=    444 Scr=      1
 Normal termination of Gaussian 09 at Sun Apr  4 03:25:01 2021.
