 Entering Gaussian System, Link 0=g09
 Input=/home/png4rjv/fotokatalizis/benchmark/OPCs/PTZ_1b_M06_def2TZVP.gjf
 Output=/home/png4rjv/fotokatalizis/benchmark/OPCs/PTZ_1b_M06_def2TZVP.log
 Initial command:
 /opt/nce/packages/global/g09/l1.exe "/home/png4rjv/fotokatalizis/benchmark/OPCs/PTZ_1b_M06_def2TZVP/Gau-25637.inp" -scrdir="/home/png4rjv/fotokatalizis/benchmark/OPCs/PTZ_1b_M06_def2TZVP/"
 Default is to use a total of  12 processors:
                               12 via shared-memory
                                1 via Linda
 Entering Link 1 = /opt/nce/packages/global/g09/l1.exe PID=     25638.
  
 Copyright (c) 1988,1990,1992,1993,1995,1998,2003,2009,2015,
            Gaussian, Inc.  All Rights Reserved.
  
 This is part of the Gaussian(R) 09 program.  It is based on
 the Gaussian(R) 03 system (copyright 2003, Gaussian, Inc.),
 the Gaussian(R) 98 system (copyright 1998, Gaussian, Inc.),
 the Gaussian(R) 94 system (copyright 1995, Gaussian, Inc.),
 the Gaussian 92(TM) system (copyright 1992, Gaussian, Inc.),
 the Gaussian 90(TM) system (copyright 1990, Gaussian, Inc.),
 the Gaussian 88(TM) system (copyright 1988, Gaussian, Inc.),
 the Gaussian 86(TM) system (copyright 1986, Carnegie Mellon
 University), and the Gaussian 82(TM) system (copyright 1983,
 Carnegie Mellon University). Gaussian is a federally registered
 trademark of Gaussian, Inc.
  
 This software contains proprietary and confidential information,
 including trade secrets, belonging to Gaussian, Inc.
  
 This software is provided under written license and may be
 used, copied, transmitted, or stored only in accord with that
 written license.
  
 The following legend is applicable only to US Government
 contracts under FAR:
  
                    RESTRICTED RIGHTS LEGEND
  
 Use, reproduction and disclosure by the US Government is
 subject to restrictions as set forth in subparagraphs (a)
 and (c) of the Commercial Computer Software - Restricted
 Rights clause in FAR 52.227-19.
  
 Gaussian, Inc.
 340 Quinnipiac St., Bldg. 40, Wallingford CT 06492
  
  
 ---------------------------------------------------------------
 Warning -- This program may not be used in any manner that
 competes with the business of Gaussian, Inc. or will provide
 assistance to any competitor of Gaussian, Inc.  The licensee
 of this program is prohibited from giving any competitor of
 Gaussian, Inc. access to this program.  By using this program,
 the user acknowledges that Gaussian, Inc. is engaged in the
 business of creating and licensing software in the field of
 computational chemistry and represents and warrants to the
 licensee that it is not a competitor of Gaussian, Inc. and that
 it will not use this program in any manner prohibited above.
 ---------------------------------------------------------------
  

 Cite this work as:
 Gaussian 09, Revision E.01,
 M. J. Frisch, G. W. Trucks, H. B. Schlegel, G. E. Scuseria, 
 M. A. Robb, J. R. Cheeseman, G. Scalmani, V. Barone, B. Mennucci, 
 G. A. Petersson, H. Nakatsuji, M. Caricato, X. Li, H. P. Hratchian, 
 A. F. Izmaylov, J. Bloino, G. Zheng, J. L. Sonnenberg, M. Hada, 
 M. Ehara, K. Toyota, R. Fukuda, J. Hasegawa, M. Ishida, T. Nakajima, 
 Y. Honda, O. Kitao, H. Nakai, T. Vreven, J. A. Montgomery, Jr., 
 J. E. Peralta, F. Ogliaro, M. Bearpark, J. J. Heyd, E. Brothers, 
 K. N. Kudin, V. N. Staroverov, T. Keith, R. Kobayashi, J. Normand, 
 K. Raghavachari, A. Rendell, J. C. Burant, S. S. Iyengar, J. Tomasi, 
 M. Cossi, N. Rega, J. M. Millam, M. Klene, J. E. Knox, J. B. Cross, 
 V. Bakken, C. Adamo, J. Jaramillo, R. Gomperts, R. E. Stratmann, 
 O. Yazyev, A. J. Austin, R. Cammi, C. Pomelli, J. W. Ochterski, 
 R. L. Martin, K. Morokuma, V. G. Zakrzewski, G. A. Voth, 
 P. Salvador, J. J. Dannenberg, S. Dapprich, A. D. Daniels, 
 O. Farkas, J. B. Foresman, J. V. Ortiz, J. Cioslowski, 
 and D. J. Fox, Gaussian, Inc., Wallingford CT, 2013.
 
 ******************************************
 Gaussian 09:  ES64L-G09RevE.01 30-Nov-2015
                21-Feb-2021 
 ******************************************
 %chk=cp.chk
 Default route:  MaxDisk=500GB
 ----------------------------------------------------------------------
 #p m06/def2TZVP opt freq=noraman nosymm int=ultrafine scrf=(SMD,solven
 t=n,n-DiMethylAcetamide)
 ----------------------------------------------------------------------
 1/14=-1,18=20,19=15,26=4,38=1/1,3;
 2/9=110,12=2,15=1,17=6,18=5,40=1/2;
 3/5=44,7=101,11=2,16=1,25=1,30=1,70=32201,71=1,72=147,74=-54,75=-5/1,2,3;
 4//1;
 5/5=2,38=5,53=147/2;
 6/7=2,8=2,9=2,10=2,28=1/1;
 7/30=1/1,2,3,16;
 1/14=-1,18=20,19=15,26=4/3(2);
 2/9=110,15=1/2;
 99//99;
 2/9=110,15=1/2;
 3/5=44,7=101,11=2,16=1,25=1,30=1,70=32205,71=1,72=147,74=-54,75=-5/1,2,3;
 4/5=5,16=3,69=1/1;
 5/5=2,38=5,53=147/2;
 7/30=1/1,2,3,16;
 1/14=-1,18=20,19=15,26=4/3(-5);
 2/9=110,15=1/2;
 6/7=2,8=2,9=2,10=2,19=2,28=1/1;
 99/9=1/99;
 Leave Link    1 at Sun Feb 21 00:56:07 2021, MaxMem=           0 cpu:         7.6
 (Enter /opt/nce/packages/global/g09/l101.exe)
 -----
 Title
 -----
 Symbolic Z-matrix:
 Charge =  0 Multiplicity = 1
 C                    -1.96587   3.55795  -0.4129 
 C                    -2.25317   2.51937   0.47414 
 C                    -1.48663   1.34851   0.44676 
 C                    -0.43397   1.21038  -0.4751 
 C                    -0.19289   2.23549  -1.39782 
 C                    -0.94181   3.41256  -1.35496 
 C                    -0.41788  -1.18962  -0.46937 
 C                    -1.46858  -1.33736   0.45319 
 C                    -2.2193   -2.51831   0.48617 
 H                    -3.04103  -2.61356   1.19921 
 C                    -1.91804  -3.55714  -0.3959 
 C                    -0.89595  -3.40257  -1.33867 
 C                    -0.16293  -2.21576  -1.3872 
 H                    -3.07615   2.60689   1.18673 
 H                     0.6013    2.10304  -2.1345 
 H                    -0.73315   4.21395  -2.06703 
 H                    -2.49871  -4.48164  -0.36173 
 H                    -0.67663  -4.20452  -2.04689 
 C                     1.69233   0.02568  -0.05102 
 C                     2.39141  -1.17681   0.17752 
 C                     3.72533  -1.15866   0.58458 
 C                     3.70905   1.24034   0.57914 
 C                     4.40315   0.04598   0.7834 
 H                     4.23691  -2.1097    0.7538 
 H                     4.20757   2.19906   0.74396 
 H                     1.88953  -2.13416   0.05174 
 H                     5.4481    0.05373   1.09974 
 H                    -2.55887   4.47474  -0.38311 
 N                     0.34006   0.01558  -0.46695 
 H                     0.62945  -2.07607  -2.12447 
 S                    -1.83371   0.00584   1.56436 
 C                     2.37499   1.23851   0.172 
 H                     1.86023   2.18843   0.04196 
 
 NAtoms=     33 NQM=       33 NQMF=       0 NMMI=      0 NMMIF=      0
                NMic=       0 NMicF=      0.
                    Isotopes and Nuclear Properties:
 (Nuclear quadrupole moments (NQMom) in fm**2, nuclear magnetic moments (NMagM)
  in nuclear magnetons)

  Atom         1           2           3           4           5           6           7           8           9          10
 IAtWgt=          12          12          12          12          12          12          12          12          12           1
 AtmWgt=  12.0000000  12.0000000  12.0000000  12.0000000  12.0000000  12.0000000  12.0000000  12.0000000  12.0000000   1.0078250
 NucSpn=           0           0           0           0           0           0           0           0           0           1
 AtZEff=   0.0000000   0.0000000   0.0000000   0.0000000   0.0000000   0.0000000   0.0000000   0.0000000   0.0000000   0.0000000
 NQMom=    0.0000000   0.0000000   0.0000000   0.0000000   0.0000000   0.0000000   0.0000000   0.0000000   0.0000000   0.0000000
 NMagM=    0.0000000   0.0000000   0.0000000   0.0000000   0.0000000   0.0000000   0.0000000   0.0000000   0.0000000   2.7928460
 AtZNuc=   6.0000000   6.0000000   6.0000000   6.0000000   6.0000000   6.0000000   6.0000000   6.0000000   6.0000000   1.0000000

  Atom        11          12          13          14          15          16          17          18          19          20
 IAtWgt=          12          12          12           1           1           1           1           1          12          12
 AtmWgt=  12.0000000  12.0000000  12.0000000   1.0078250   1.0078250   1.0078250   1.0078250   1.0078250  12.0000000  12.0000000
 NucSpn=           0           0           0           1           1           1           1           1           0           0
 AtZEff=   0.0000000   0.0000000   0.0000000   0.0000000   0.0000000   0.0000000   0.0000000   0.0000000   0.0000000   0.0000000
 NQMom=    0.0000000   0.0000000   0.0000000   0.0000000   0.0000000   0.0000000   0.0000000   0.0000000   0.0000000   0.0000000
 NMagM=    0.0000000   0.0000000   0.0000000   2.7928460   2.7928460   2.7928460   2.7928460   2.7928460   0.0000000   0.0000000
 AtZNuc=   6.0000000   6.0000000   6.0000000   1.0000000   1.0000000   1.0000000   1.0000000   1.0000000   6.0000000   6.0000000

  Atom        21          22          23          24          25          26          27          28          29          30
 IAtWgt=          12          12          12           1           1           1           1           1          14           1
 AtmWgt=  12.0000000  12.0000000  12.0000000   1.0078250   1.0078250   1.0078250   1.0078250   1.0078250  14.0030740   1.0078250
 NucSpn=           0           0           0           1           1           1           1           1           2           1
 AtZEff=   0.0000000   0.0000000   0.0000000   0.0000000   0.0000000   0.0000000   0.0000000   0.0000000   0.0000000   0.0000000
 NQMom=    0.0000000   0.0000000   0.0000000   0.0000000   0.0000000   0.0000000   0.0000000   0.0000000   2.0440000   0.0000000
 NMagM=    0.0000000   0.0000000   0.0000000   2.7928460   2.7928460   2.7928460   2.7928460   2.7928460   0.4037610   2.7928460
 AtZNuc=   6.0000000   6.0000000   6.0000000   1.0000000   1.0000000   1.0000000   1.0000000   1.0000000   7.0000000   1.0000000

  Atom        31          32          33
 IAtWgt=          32          12           1
 AtmWgt=  31.9720718  12.0000000   1.0078250
 NucSpn=           0           0           1
 AtZEff=   0.0000000   0.0000000   0.0000000
 NQMom=    0.0000000   0.0000000   0.0000000
 NMagM=    0.0000000   0.0000000   2.7928460
 AtZNuc=  16.0000000   6.0000000   1.0000000
 Leave Link  101 at Sun Feb 21 00:56:08 2021, MaxMem=  5242880000 cpu:         8.2
 (Enter /opt/nce/packages/global/g09/l103.exe)

 GradGradGradGradGradGradGradGradGradGradGradGradGradGradGradGradGradGrad
 Berny optimization.
 Initialization pass.
                           ----------------------------
                           !    Initial Parameters    !
                           ! (Angstroms and Degrees)  !
 --------------------------                            --------------------------
 ! Name  Definition              Value          Derivative Info.                !
 --------------------------------------------------------------------------------
 ! R1    R(1,2)                  1.3957         estimate D2E/DX2                !
 ! R2    R(1,6)                  1.399          estimate D2E/DX2                !
 ! R3    R(1,28)                 1.0923         estimate D2E/DX2                !
 ! R4    R(2,3)                  1.3997         estimate D2E/DX2                !
 ! R5    R(2,14)                 1.0921         estimate D2E/DX2                !
 ! R6    R(3,4)                  1.4061         estimate D2E/DX2                !
 ! R7    R(3,31)                 1.7811         estimate D2E/DX2                !
 ! R8    R(4,5)                  1.4001         estimate D2E/DX2                !
 ! R9    R(4,29)                 1.4236         estimate D2E/DX2                !
 ! R10   R(5,6)                  1.3958         estimate D2E/DX2                !
 ! R11   R(5,15)                 1.0913         estimate D2E/DX2                !
 ! R12   R(6,16)                 1.0922         estimate D2E/DX2                !
 ! R13   R(7,8)                  1.406          estimate D2E/DX2                !
 ! R14   R(7,13)                 1.4001         estimate D2E/DX2                !
 ! R15   R(7,29)                 1.4237         estimate D2E/DX2                !
 ! R16   R(8,9)                  1.3997         estimate D2E/DX2                !
 ! R17   R(8,31)                 1.7811         estimate D2E/DX2                !
 ! R18   R(9,10)                 1.0921         estimate D2E/DX2                !
 ! R19   R(9,11)                 1.3957         estimate D2E/DX2                !
 ! R20   R(11,12)                1.3991         estimate D2E/DX2                !
 ! R21   R(11,17)                1.0923         estimate D2E/DX2                !
 ! R22   R(12,13)                1.3958         estimate D2E/DX2                !
 ! R23   R(12,18)                1.0922         estimate D2E/DX2                !
 ! R24   R(13,30)                1.0913         estimate D2E/DX2                !
 ! R25   R(19,20)                1.4096         estimate D2E/DX2                !
 ! R26   R(19,29)                1.4148         estimate D2E/DX2                !
 ! R27   R(19,32)                1.4095         estimate D2E/DX2                !
 ! R28   R(20,21)                1.3948         estimate D2E/DX2                !
 ! R29   R(20,26)                1.0882         estimate D2E/DX2                !
 ! R30   R(21,23)                1.3965         estimate D2E/DX2                !
 ! R31   R(21,24)                1.0931         estimate D2E/DX2                !
 ! R32   R(22,23)                1.3964         estimate D2E/DX2                !
 ! R33   R(22,25)                1.0931         estimate D2E/DX2                !
 ! R34   R(22,32)                1.3948         estimate D2E/DX2                !
 ! R35   R(23,27)                1.0918         estimate D2E/DX2                !
 ! R36   R(32,33)                1.0882         estimate D2E/DX2                !
 ! A1    A(2,1,6)              120.0857         estimate D2E/DX2                !
 ! A2    A(2,1,28)             119.7018         estimate D2E/DX2                !
 ! A3    A(6,1,28)             120.1977         estimate D2E/DX2                !
 ! A4    A(1,2,3)              119.8206         estimate D2E/DX2                !
 ! A5    A(1,2,14)             120.6744         estimate D2E/DX2                !
 ! A6    A(3,2,14)             119.5036         estimate D2E/DX2                !
 ! A7    A(2,3,4)              120.3311         estimate D2E/DX2                !
 ! A8    A(2,3,31)             120.7702         estimate D2E/DX2                !
 ! A9    A(4,3,31)             118.8966         estimate D2E/DX2                !
 ! A10   A(3,4,5)              119.2789         estimate D2E/DX2                !
 ! A11   A(3,4,29)             119.0612         estimate D2E/DX2                !
 ! A12   A(5,4,29)             121.6424         estimate D2E/DX2                !
 ! A13   A(4,5,6)              120.3184         estimate D2E/DX2                !
 ! A14   A(4,5,15)             118.7713         estimate D2E/DX2                !
 ! A15   A(6,5,15)             120.8999         estimate D2E/DX2                !
 ! A16   A(1,6,5)              120.0697         estimate D2E/DX2                !
 ! A17   A(1,6,16)             120.1732         estimate D2E/DX2                !
 ! A18   A(5,6,16)             119.753          estimate D2E/DX2                !
 ! A19   A(8,7,13)             119.2868         estimate D2E/DX2                !
 ! A20   A(8,7,29)             119.0563         estimate D2E/DX2                !
 ! A21   A(13,7,29)            121.6395         estimate D2E/DX2                !
 ! A22   A(7,8,9)              120.3249         estimate D2E/DX2                !
 ! A23   A(7,8,31)             118.9012         estimate D2E/DX2                !
 ! A24   A(9,8,31)             120.7717         estimate D2E/DX2                !
 ! A25   A(8,9,10)             119.5055         estimate D2E/DX2                !
 ! A26   A(8,9,11)             119.8216         estimate D2E/DX2                !
 ! A27   A(10,9,11)            120.6715         estimate D2E/DX2                !
 ! A28   A(9,11,12)            120.0883         estimate D2E/DX2                !
 ! A29   A(9,11,17)            119.7            estimate D2E/DX2                !
 ! A30   A(12,11,17)           120.1968         estimate D2E/DX2                !
 ! A31   A(11,12,13)           120.0684         estimate D2E/DX2                !
 ! A32   A(11,12,18)           120.1693         estimate D2E/DX2                !
 ! A33   A(13,12,18)           119.7582         estimate D2E/DX2                !
 ! A34   A(7,13,12)            120.3144         estimate D2E/DX2                !
 ! A35   A(7,13,30)            118.7682         estimate D2E/DX2                !
 ! A36   A(12,13,30)           120.907          estimate D2E/DX2                !
 ! A37   A(20,19,29)           121.0375         estimate D2E/DX2                !
 ! A38   A(20,19,32)           117.9168         estimate D2E/DX2                !
 ! A39   A(29,19,32)           121.0352         estimate D2E/DX2                !
 ! A40   A(19,20,21)           120.6992         estimate D2E/DX2                !
 ! A41   A(19,20,26)           120.1999         estimate D2E/DX2                !
 ! A42   A(21,20,26)           119.0949         estimate D2E/DX2                !
 ! A43   A(20,21,23)           121.1302         estimate D2E/DX2                !
 ! A44   A(20,21,24)           118.7801         estimate D2E/DX2                !
 ! A45   A(23,21,24)           120.0886         estimate D2E/DX2                !
 ! A46   A(23,22,25)           120.0941         estimate D2E/DX2                !
 ! A47   A(23,22,32)           121.13           estimate D2E/DX2                !
 ! A48   A(25,22,32)           118.7748         estimate D2E/DX2                !
 ! A49   A(21,23,22)           118.4067         estimate D2E/DX2                !
 ! A50   A(21,23,27)           120.7921         estimate D2E/DX2                !
 ! A51   A(22,23,27)           120.799          estimate D2E/DX2                !
 ! A52   A(4,29,7)             114.8971         estimate D2E/DX2                !
 ! A53   A(4,29,19)            121.021          estimate D2E/DX2                !
 ! A54   A(7,29,19)            121.0219         estimate D2E/DX2                !
 ! A55   A(3,31,8)              97.8802         estimate D2E/DX2                !
 ! A56   A(19,32,22)           120.7001         estimate D2E/DX2                !
 ! A57   A(19,32,33)           120.2054         estimate D2E/DX2                !
 ! A58   A(22,32,33)           119.0884         estimate D2E/DX2                !
 ! D1    D(6,1,2,3)              2.0071         estimate D2E/DX2                !
 ! D2    D(6,1,2,14)          -177.5489         estimate D2E/DX2                !
 ! D3    D(28,1,2,3)          -179.389          estimate D2E/DX2                !
 ! D4    D(28,1,2,14)            1.0549         estimate D2E/DX2                !
 ! D5    D(2,1,6,5)             -0.8782         estimate D2E/DX2                !
 ! D6    D(2,1,6,16)           178.3857         estimate D2E/DX2                !
 ! D7    D(28,1,6,5)          -179.4751         estimate D2E/DX2                !
 ! D8    D(28,1,6,16)           -0.2111         estimate D2E/DX2                !
 ! D9    D(1,2,3,4)             -0.3788         estimate D2E/DX2                !
 ! D10   D(1,2,3,31)          -179.8438         estimate D2E/DX2                !
 ! D11   D(14,2,3,4)           179.1825         estimate D2E/DX2                !
 ! D12   D(14,2,3,31)           -0.2825         estimate D2E/DX2                !
 ! D13   D(2,3,4,5)             -2.3602         estimate D2E/DX2                !
 ! D14   D(2,3,4,29)           179.1366         estimate D2E/DX2                !
 ! D15   D(31,3,4,5)           177.1148         estimate D2E/DX2                !
 ! D16   D(31,3,4,29)           -1.3884         estimate D2E/DX2                !
 ! D17   D(2,3,31,8)           143.6135         estimate D2E/DX2                !
 ! D18   D(4,3,31,8)           -35.8591         estimate D2E/DX2                !
 ! D19   D(3,4,5,6)              3.497          estimate D2E/DX2                !
 ! D20   D(3,4,5,15)          -177.6641         estimate D2E/DX2                !
 ! D21   D(29,4,5,6)          -178.0398         estimate D2E/DX2                !
 ! D22   D(29,4,5,15)            0.7991         estimate D2E/DX2                !
 ! D23   D(3,4,29,7)            49.1325         estimate D2E/DX2                !
 ! D24   D(3,4,29,19)         -111.2738         estimate D2E/DX2                !
 ! D25   D(5,4,29,7)          -129.334          estimate D2E/DX2                !
 ! D26   D(5,4,29,19)           70.2597         estimate D2E/DX2                !
 ! D27   D(4,5,6,1)             -1.8997         estimate D2E/DX2                !
 ! D28   D(4,5,6,16)           178.8333         estimate D2E/DX2                !
 ! D29   D(15,5,6,1)           179.2865         estimate D2E/DX2                !
 ! D30   D(15,5,6,16)            0.0194         estimate D2E/DX2                !
 ! D31   D(13,7,8,9)             2.3599         estimate D2E/DX2                !
 ! D32   D(13,7,8,31)         -177.1164         estimate D2E/DX2                !
 ! D33   D(29,7,8,9)          -179.1361         estimate D2E/DX2                !
 ! D34   D(29,7,8,31)            1.3876         estimate D2E/DX2                !
 ! D35   D(8,7,13,12)           -3.4968         estimate D2E/DX2                !
 ! D36   D(8,7,13,30)          177.6635         estimate D2E/DX2                !
 ! D37   D(29,7,13,12)         178.0393         estimate D2E/DX2                !
 ! D38   D(29,7,13,30)          -0.8005         estimate D2E/DX2                !
 ! D39   D(8,7,29,4)           -49.1317         estimate D2E/DX2                !
 ! D40   D(8,7,29,19)          111.2745         estimate D2E/DX2                !
 ! D41   D(13,7,29,4)          129.3357         estimate D2E/DX2                !
 ! D42   D(13,7,29,19)         -70.2581         estimate D2E/DX2                !
 ! D43   D(7,8,9,10)          -179.1868         estimate D2E/DX2                !
 ! D44   D(7,8,9,11)             0.3775         estimate D2E/DX2                !
 ! D45   D(31,8,9,10)            0.2797         estimate D2E/DX2                !
 ! D46   D(31,8,9,11)          179.8439         estimate D2E/DX2                !
 ! D47   D(7,8,31,3)            35.8597         estimate D2E/DX2                !
 ! D48   D(9,8,31,3)          -143.6142         estimate D2E/DX2                !
 ! D49   D(8,9,11,12)           -2.004          estimate D2E/DX2                !
 ! D50   D(8,9,11,17)          179.3929         estimate D2E/DX2                !
 ! D51   D(10,9,11,12)         177.5551         estimate D2E/DX2                !
 ! D52   D(10,9,11,17)          -1.0481         estimate D2E/DX2                !
 ! D53   D(9,11,12,13)           0.8749         estimate D2E/DX2                !
 ! D54   D(9,11,12,18)        -178.383          estimate D2E/DX2                !
 ! D55   D(17,11,12,13)        179.4711         estimate D2E/DX2                !
 ! D56   D(17,11,12,18)          0.2132         estimate D2E/DX2                !
 ! D57   D(11,12,13,7)           1.901          estimate D2E/DX2                !
 ! D58   D(11,12,13,30)       -179.2844         estimate D2E/DX2                !
 ! D59   D(18,12,13,7)        -178.838          estimate D2E/DX2                !
 ! D60   D(18,12,13,30)         -0.0234         estimate D2E/DX2                !
 ! D61   D(29,19,20,21)        179.8571         estimate D2E/DX2                !
 ! D62   D(29,19,20,26)         -1.0437         estimate D2E/DX2                !
 ! D63   D(32,19,20,21)         -1.3109         estimate D2E/DX2                !
 ! D64   D(32,19,20,26)        177.7883         estimate D2E/DX2                !
 ! D65   D(20,19,29,4)         169.0096         estimate D2E/DX2                !
 ! D66   D(20,19,29,7)           9.8            estimate D2E/DX2                !
 ! D67   D(32,19,29,4)          -9.7859         estimate D2E/DX2                !
 ! D68   D(32,19,29,7)        -168.9955         estimate D2E/DX2                !
 ! D69   D(20,19,32,22)          1.3097         estimate D2E/DX2                !
 ! D70   D(20,19,32,33)       -177.7849         estimate D2E/DX2                !
 ! D71   D(29,19,32,22)       -179.8583         estimate D2E/DX2                !
 ! D72   D(29,19,32,33)          1.0471         estimate D2E/DX2                !
 ! D73   D(19,20,21,23)          0.3197         estimate D2E/DX2                !
 ! D74   D(19,20,21,24)        179.9379         estimate D2E/DX2                !
 ! D75   D(26,20,21,23)       -178.7893         estimate D2E/DX2                !
 ! D76   D(26,20,21,24)          0.8289         estimate D2E/DX2                !
 ! D77   D(20,21,23,22)          0.6969         estimate D2E/DX2                !
 ! D78   D(20,21,23,27)       -179.8487         estimate D2E/DX2                !
 ! D79   D(24,21,23,22)       -178.9163         estimate D2E/DX2                !
 ! D80   D(24,21,23,27)          0.5381         estimate D2E/DX2                !
 ! D81   D(25,22,23,21)        178.918          estimate D2E/DX2                !
 ! D82   D(25,22,23,27)         -0.5363         estimate D2E/DX2                !
 ! D83   D(32,22,23,21)         -0.6981         estimate D2E/DX2                !
 ! D84   D(32,22,23,27)        179.8475         estimate D2E/DX2                !
 ! D85   D(23,22,32,19)         -0.3173         estimate D2E/DX2                !
 ! D86   D(23,22,32,33)        178.7872         estimate D2E/DX2                !
 ! D87   D(25,22,32,19)       -179.9384         estimate D2E/DX2                !
 ! D88   D(25,22,32,33)         -0.8338         estimate D2E/DX2                !
 --------------------------------------------------------------------------------
 Trust Radius=3.00D-01 FncErr=1.00D-07 GrdErr=1.00D-06
 Number of steps in this run=    192 maximum allowed number of steps=    198.
 GradGradGradGradGradGradGradGradGradGradGradGradGradGradGradGradGradGrad

 Leave Link  103 at Sun Feb 21 00:56:08 2021, MaxMem=  5242880000 cpu:         4.0
 (Enter /opt/nce/packages/global/g09/l202.exe)
                          Input orientation:                          
 ---------------------------------------------------------------------
 Center     Atomic      Atomic             Coordinates (Angstroms)
 Number     Number       Type             X           Y           Z
 ---------------------------------------------------------------------
      1          6           0       -1.965872    3.557948   -0.412902
      2          6           0       -2.253168    2.519367    0.474144
      3          6           0       -1.486629    1.348512    0.446759
      4          6           0       -0.433970    1.210384   -0.475097
      5          6           0       -0.192888    2.235487   -1.397816
      6          6           0       -0.941805    3.412564   -1.354961
      7          6           0       -0.417880   -1.189617   -0.469365
      8          6           0       -1.468582   -1.337363    0.453187
      9          6           0       -2.219298   -2.518310    0.486174
     10          1           0       -3.041027   -2.613564    1.199214
     11          6           0       -1.918035   -3.557138   -0.395900
     12          6           0       -0.895948   -3.402570   -1.338669
     13          6           0       -0.162927   -2.215764   -1.387196
     14          1           0       -3.076148    2.606890    1.186728
     15          1           0        0.601304    2.103043   -2.134497
     16          1           0       -0.733145    4.213953   -2.067033
     17          1           0       -2.498707   -4.481636   -0.361725
     18          1           0       -0.676625   -4.204520   -2.046893
     19          6           0        1.692326    0.025680   -0.051024
     20          6           0        2.391414   -1.176811    0.177515
     21          6           0        3.725331   -1.158657    0.584578
     22          6           0        3.709052    1.240343    0.579135
     23          6           0        4.403146    0.045981    0.783403
     24          1           0        4.236905   -2.109705    0.753795
     25          1           0        4.207568    2.199061    0.743959
     26          1           0        1.889530   -2.134165    0.051743
     27          1           0        5.448104    0.053734    1.099740
     28          1           0       -2.558872    4.474739   -0.383109
     29          7           0        0.340059    0.015583   -0.466952
     30          1           0        0.629453   -2.076072   -2.124470
     31         16           0       -1.833705    0.005836    1.564355
     32          6           0        2.374986    1.238513    0.171997
     33          1           0        1.860230    2.188433    0.041957
 ---------------------------------------------------------------------
                    Distance matrix (angstroms):
                    1          2          3          4          5
     1  C    0.000000
     2  C    1.395722   0.000000
     3  C    2.418739   1.399726   0.000000
     4  C    2.803863   2.433922   1.406054   0.000000
     5  C    2.421246   2.798138   2.421352   1.400131   0.000000
     6  C    1.399044   2.421384   2.793446   2.425212   1.395788
     7  C    4.993880   4.244414   2.902345   2.400062   3.555837
     8  C    4.996146   3.935782   2.685943   2.902266   4.221240
     9  C    6.147640   5.037805   3.935819   4.244361   5.500395
    10  H    6.468573   5.243418   4.322081   4.921650   6.194333
    11  C    7.115267   6.147618   4.996157   4.993795   6.126538
    12  C    7.102858   6.340164   5.109739   4.715774   5.682031
    13  C    6.126631   5.500469   4.221332   3.555823   4.451364
    14  H    2.167035   1.092123   2.158157   3.419502   3.889858
    15  H    3.416289   3.889260   3.404653   2.149940   1.091321
    16  H    2.164742   3.411696   3.885568   3.412505   2.157326
    17  H    8.057384   7.054999   5.972317   6.055996   7.177049
    18  H    8.036666   7.351991   6.140893   5.643634   6.490685
    19  C    5.098067   4.696935   3.478998   2.470728   3.201738
    20  C    6.461616   5.943220   4.635619   3.755982   4.561147
    21  C    7.458627   7.020150   5.785276   4.902556   5.550004
    22  C    6.209685   6.098770   5.198493   4.275153   4.485954
    23  C    7.370851   7.107728   6.041470   5.131993   5.538518
    24  H    8.482801   7.976689   6.694205   5.860908   6.567586
    25  H    6.426217   6.474296   5.765036   4.899740   4.894133
    26  H    6.890586   6.244656   4.866572   4.106363   5.052875
    27  H    8.338743   8.110506   7.084727   6.198124   6.543594
    28  H    1.092265   2.156807   3.407592   3.896111   3.412002
    29  N    4.227125   3.725510   2.438925   1.423635   2.465464
    30  H    6.434855   6.015011   4.776693   3.827805   4.449024
    31  S    4.067495   2.771705   1.781084   2.751283   4.054390
    32  C    4.956302   4.811620   3.872940   2.882665   3.170528
    33  H    4.089196   4.149258   3.474305   2.547014   2.508078
                    6          7          8          9         10
     6  C    0.000000
     7  C    4.715808   0.000000
     8  C    5.109667   1.406025   0.000000
     9  C    6.340113   2.433842   1.399749   0.000000
    10  H    6.873482   3.419456   2.158200   1.092125   0.000000
    11  C    7.102786   2.803751   2.418751   1.395700   2.166987
    12  C    6.815308   2.425160   2.793517   2.421409   3.415369
    13  C    5.682057   1.400140   2.421432   2.798162   3.889887
    14  H    3.415364   4.921636   4.321977   5.243343   5.220587
    15  H    2.168803   3.827925   4.776707   6.015032   6.828366
    16  H    1.092158   5.643625   6.140805   7.351930   7.912628
    17  H    8.107333   3.896000   3.407593   2.156769   2.494060
    18  H    7.653042   3.412504   3.885638   3.411682   4.319577
    19  C    4.484404   2.470815   3.479002   4.696943   5.561774
    20  C    5.875474   2.882837   3.873156   4.811814   5.711352
    21  C    6.814692   4.275272   5.198647   6.098931   6.948247
    22  C    5.485412   4.902614   5.785181   7.020075   7.797478
    23  C    6.668957   5.132097   6.041512   7.107791   7.915920
    24  H    7.858839   4.899970   5.765367   6.474653   7.308937
    25  H    5.691581   5.860893   6.693991   7.976506   8.712677
    26  H    6.384472   2.547129   3.474618   4.149550   5.084969
    27  H    7.624843   6.198208   7.084753   8.110544   8.898861
    28  H    2.165091   6.056089   5.972324   7.055048   7.278754
    29  N    3.737809   1.423722   2.438914   3.725503   4.595679
    30  H    5.760740   2.149903   3.404667   3.889270   4.980783
    31  S    4.574242   2.751306   1.781065   2.771727   2.907269
    32  C    4.249612   3.755963   4.635431   5.943052   6.725092
    33  H    3.361737   4.106392   4.866347   6.244462   6.958501
                   11         12         13         14         15
    11  C    0.000000
    12  C    1.399059   0.000000
    13  C    2.421230   1.395773   0.000000
    14  H    6.468476   6.873464   6.194347   0.000000
    15  H    6.434861   5.760806   4.449112   4.980768   0.000000
    16  H    8.036573   7.653002   6.490654   4.319638   2.498249
    17  H    1.092266   2.165096   3.411984   7.278623   7.490713
    18  H    2.164712   1.092157   2.157368   7.912605   6.436313
    19  C    5.098061   4.484428   3.201779   5.561746   3.137933
    20  C    4.956421   4.249655   3.170552   6.725261   4.394011
    21  C    6.209801   5.485458   4.485969   7.797567   5.271774
    22  C    7.458594   6.814737   5.550077   6.948062   4.214991
    23  C    7.370926   6.669040   5.538593   7.915855   5.215328
    24  H    6.426519   5.691756   4.894243   8.712890   6.269535
    25  H    8.482695   7.858848   6.567627   7.308549   4.615178
    26  H    4.089351   3.361694   2.507944   6.958718   4.938937
    27  H    8.338785   7.624885   6.543634   8.898823   6.176684
    28  H    8.057412   8.107429   7.177156   2.494158   4.321923
    29  N    4.227100   3.737830   2.465513   4.595650   2.684482
    30  H    3.416315   2.168854   1.091308   6.828297   4.179222
    31  S    4.067492   4.574294   4.054462   2.907189   4.899903
    32  C    6.461486   5.875438   4.561153   5.711129   3.035338
    33  H    6.890471   6.384509   5.052979   5.084627   2.515778
                   16         17         18         19         20
    16  H    0.000000
    17  H    9.035406   0.000000
    18  H    8.418687   2.497312   0.000000
    19  C    5.242979   6.162564   5.243092   0.000000
    20  C    6.622779   5.926713   4.850554   1.409588   0.000000
    21  C    7.468198   7.118731   5.964825   2.437161   1.394763
    22  C    5.964702   8.494853   7.468381   2.437148   2.782104
    23  C    7.202670   8.333439   7.202875   2.836411   2.430923
    24  H    8.523328   7.227649   6.031159   3.417965   2.146678
    25  H    6.030930   9.530392   8.523500   3.417898   3.875021
    26  H    7.187923   4.993816   3.908426   2.171263   1.088225
    27  H    8.095907   9.265920   8.096069   3.928220   3.421709
    28  H    2.497376   8.956603   9.035517   6.162556   7.533900
    29  N    4.619344   5.319271   4.619430   1.414823   2.458699
    30  H    6.436178   4.321966   2.498429   3.137872   3.035179
    31  S    5.666256   4.928429   5.666308   3.878497   4.601479
    32  C    4.850462   7.533780   6.622870   1.409513   2.415386
    33  H    3.908473   7.978290   7.188100   2.171253   3.409604
                   21         22         23         24         25
    21  C    0.000000
    22  C    2.399061   0.000000
    23  C    1.396466   1.396421   0.000000
    24  H    1.093085   3.395873   2.162289   0.000000
    25  H    3.395913   1.093081   2.162304   4.308877   0.000000
    26  H    2.146088   3.869898   3.406850   2.450234   4.962793
    27  H    2.168693   2.168726   1.091818   2.503428   2.503585
    28  H    8.494868   7.118574   8.333327   9.530479   7.227289
    29  N    3.734250   3.734227   4.251234   4.603529   4.603423
    30  H    4.214861   5.271814   5.215323   4.615111   6.269574
    31  S    5.763583   5.763404   6.285683   6.479570   6.479218
    32  C    2.782100   1.394811   2.430922   3.875022   2.146660
    33  H    3.869890   2.146061   3.406797   4.962790   2.450085
                   26         27         28         29         30
    26  H    0.000000
    27  H    4.306814   0.000000
    28  H    7.978408   9.265840   0.000000
    29  N    2.700245   5.343042   5.319295   0.000000
    30  H    2.515367   6.176650   7.490720   2.684425   0.000000
    31  S    4.553030   7.296774   4.928446   2.975156   4.899890
    32  C    3.409558   3.421763   5.926572   2.458606   4.393987
    33  H    4.322708   4.306818   4.993630   2.700220   4.939051
                   31         32         33
    31  S    0.000000
    32  C    4.601221   0.000000
    33  H    4.552646   1.088224   0.000000
 Symmetry turned off by external request.
 Stoichiometry    C18H13NS
 Framework group  C1[X(C18H13NS)]
 Deg. of freedom    93
 Full point group                 C1      NOp   1
 Rotational constants (GHZ):      0.3749666      0.3439519      0.2142863
 Leave Link  202 at Sun Feb 21 00:56:08 2021, MaxMem=  5242880000 cpu:         0.1
 (Enter /opt/nce/packages/global/g09/l301.exe)
 Standard basis: def2TZVP (5D, 7F)
 Ernie: Thresh=  0.10000D-02 Tol=  0.10000D-05 Strict=F.
   704 basis functions,  1142 primitive gaussians,   804 cartesian basis functions
    72 alpha electrons       72 beta electrons
       nuclear repulsion energy      1561.5731074347 Hartrees.
 IExCor= 4235 DFT=T Ex+Corr=M06 ExCW=0 ScaHFX=  0.270000
 ScaDFX=  1.000000  1.000000  1.000000  1.000000 ScalE2=  1.000000  1.000000
 IRadAn=      5 IRanWt=     -1 IRanGd=            0 ICorTp=0 IEmpDi=  4
 NAtoms=   33 NActive=   33 NUniq=   33 SFac= 1.00D+00 NAtFMM=   60 NAOKFM=F Big=F
 Integral buffers will be    131072 words long.
 Raffenetti 2 integral format.
 Two-electron integral symmetry is turned off.
 ------------------------------------------------------------------------------
 Polarizable Continuum Model (PCM)
 =================================
 Model                : PCM (using non-symmetric T matrix).
 Atomic radii         : SMD-Coulomb.
 Polarization charges : Total charges.
 Charge compensation  : None.
 Solution method      : On-the-fly selection.
 Cavity type          : VdW (van der Waals Surface) (Alpha=1.000).
 Cavity algorithm     : GePol (No added spheres)
                        Default sphere list used, NSphG=   33.
                        Lebedev-Laikov grids with approx.  5.0 points / Ang**2.
                        Smoothing algorithm: York/Karplus (Gamma=1.0000).
                        Polarization charges: spherical gaussians, with
                                              point-specific exponents (IZeta= 3).
                        Self-potential: point-specific (ISelfS= 7).
                        Self-field    : sphere-specific E.n sum rule (ISelfD= 2).
 1st derivatives      : Analytical E(r).r(x)/FMM algorithm (CHGder, D1EAlg=3).
                        Cavity 1st derivative terms included.
 Solvent              : n,n-DiMethylAcetamide, Eps=  37.781000 Eps(inf)=   2.067844
 ------------------------------------------------------------------------------
 GePol: Number of generator spheres                  =      33
 GePol: Total number of spheres                      =      33
 GePol: Number of exposed spheres                    =      33 (100.00%)
 GePol: Number of points                             =    2567
 GePol: Average weight of points                     =       0.11
 GePol: Minimum weight of points                     =   0.49D-11
 GePol: Maximum weight of points                     =    0.19854
 GePol: Number of points with low weight             =     142
 GePol: Fraction of low-weight points (<1% of avg)   =       5.53%
 GePol: Cavity surface area                          =    292.797 Ang**2
 GePol: Cavity volume                                =    293.541 Ang**3
 ------------------------------------------------------------------------------
 Atomic radii for non-electrostatic terms: SMD-CDS.
 ------------------------------------------------------------------------------
 PCM non-electrostatic energy =        -0.0051021016 Hartrees.
 Nuclear repulsion after PCM non-electrostatic terms =     1561.5680053331 Hartrees.
 Leave Link  301 at Sun Feb 21 00:56:20 2021, MaxMem=  5242880000 cpu:        74.6
 (Enter /opt/nce/packages/global/g09/l302.exe)
 NPDir=0 NMtPBC=     1 NCelOv=     1 NCel=       1 NClECP=     1 NCelD=      1
         NCelK=      1 NCelE2=     1 NClLst=     1 CellRange=     0.0.
 One-electron integrals computed using PRISM.
   1 Symmetry operations used in ECPInt.
 ECPInt:  NShTT=   37675 NPrTT=  118348 LenC2=   34059 LenP2D=   76440.
 LDataN:  DoStor=T MaxTD1= 6 Len=  172
 NBasis=   704 RedAO= T EigKep=  6.14D-06  NBF=   704
 NBsUse=   704 1.00D-06 EigRej= -1.00D+00 NBFU=   704
 Precomputing XC quadrature grid using
 IXCGrd= 4 IRadAn=           5 IRanWt=          -1 IRanGd=           0 AccXCQ= 0.00D+00.
 Generated NRdTot=       0 NPtTot=           0 NUsed=           0 NTot=          32
 NSgBfM=   792   792   792   792   792 MxSgAt=    33 MxSgA2=    33.
 Leave Link  302 at Sun Feb 21 00:56:43 2021, MaxMem=  5242880000 cpu:        97.6
 (Enter /opt/nce/packages/global/g09/l303.exe)
 DipDrv:  MaxL=1.
 Leave Link  303 at Sun Feb 21 00:56:46 2021, MaxMem=  5242880000 cpu:         4.2
 (Enter /opt/nce/packages/global/g09/l401.exe)
 ExpMin= 9.52D-02 ExpMax= 6.07D+04 ExpMxC= 2.07D+03 IAcc=3 IRadAn=         5 AccDes= 0.00D+00
 Harris functional with IExCor= 1009 and IRadAn=       5 diagonalized for initial guess.
 HarFok:  IExCor= 1009 AccDes= 0.00D+00 IRadAn=         5 IDoV= 1 UseB2=F ITyADJ=14
 ICtDFT=  3500011 ScaDFX=  1.000000  1.000000  1.000000  1.000000
 FoFCou: FMM=F IPFlag=           0 FMFlag=      100000 FMFlg1=           0
         NFxFlg=           0 DoJE=T BraDBF=F KetDBF=T FulRan=T
         wScrn=  0.000000 ICntrl=     500 IOpCl=  0 I1Cent=   200000004 NGrid=           0
         NMat0=    1 NMatS0=      1 NMatT0=    0 NMatD0=    1 NMtDS0=    0 NMtDT0=    0
 Symmetry not used in FoFCou.
 Harris En= -1146.11496735093    
 JPrj=0 DoOrth=F DoCkMO=F.
 Leave Link  401 at Sun Feb 21 00:57:01 2021, MaxMem=  5242880000 cpu:        86.3
 (Enter /opt/nce/packages/global/g09/l502.exe)
 Closed shell SCF:
 Using DIIS extrapolation, IDIIS=  1040.
 Two-electron integral symmetry not used.
 IVT=     1972336 IEndB=     1972336 NGot=  5242880000 MDV=  5241571525
 LenX=  5241571525 LenY=  5240924305
 Requested convergence on RMS density matrix=1.00D-08 within 128 cycles.
 Requested convergence on MAX density matrix=1.00D-06.
 Requested convergence on             energy=1.00D-06.
 No special actions if energy rises.
 Fock matrices will be formed incrementally for  20 cycles.

 Cycle   1  Pass 1  IDiag  1:
 FoFJK:  IHMeth= 1 ICntrl=       0 DoSepK=F KAlg= 0 I1Cent=   0 FoldK=F
 IRaf= 810000000 NMat=   1 IRICut=       1 DoRegI=T DoRafI=F ISym2E= 0.
 FoFCou: FMM=F IPFlag=           0 FMFlag=      100000 FMFlg1=           0
         NFxFlg=           0 DoJE=F BraDBF=F KetDBF=F FulRan=T
         wScrn=  0.000000 ICntrl=       0 IOpCl=  0 I1Cent=           0 NGrid=           0
         NMat0=    1 NMatS0=      1 NMatT0=    0 NMatD0=    1 NMtDS0=    0 NMtDT0=    0
 Symmetry not used in FoFCou.
 Inv3:  Mode=1 IEnd=    19768467.
 Iteration    1 A*A^-1 deviation from unit magnitude is 8.33D-15 for   2556.
 Iteration    1 A*A^-1 deviation from orthogonality  is 2.56D-15 for   2563   2447.
 Iteration    1 A^-1*A deviation from unit magnitude is 7.99D-15 for   2556.
 Iteration    1 A^-1*A deviation from orthogonality  is 1.87D-06 for   2449   2284.
 Iteration    2 A*A^-1 deviation from unit magnitude is 2.89D-15 for    268.
 Iteration    2 A*A^-1 deviation from orthogonality  is 3.72D-15 for   2558    661.
 Iteration    2 A^-1*A deviation from unit magnitude is 8.88D-16 for     36.
 Iteration    2 A^-1*A deviation from orthogonality  is 5.78D-16 for   2560   2382.
 E= -1145.94652784852    
 DIIS: error= 1.75D-02 at cycle   1 NSaved=   1.
 NSaved= 1 IEnMin= 1 EnMin= -1145.94652784852     IErMin= 1 ErrMin= 1.75D-02
 ErrMax= 1.75D-02  0.00D+00 EMaxC= 1.00D-01 BMatC= 4.23D-01 BMatP= 4.23D-01
 IDIUse=3 WtCom= 8.25D-01 WtEn= 1.75D-01
 Coeff-Com:  0.100D+01
 Coeff-En:   0.100D+01
 Coeff:      0.100D+01
 Gap=     0.341 Goal=   None    Shift=    0.000
 GapD=    0.341 DampG=1.000 DampE=0.500 DampFc=0.5000 IDamp=-1.
 Damping current iteration by 5.00D-01
 RMSDP=3.33D-03 MaxDP=1.99D-01              OVMax= 2.62D-01

 Cycle   2  Pass 1  IDiag  1:
 RMSU=  1.66D-03    CP:  9.98D-01
 E= -1146.12006081462     Delta-E=       -0.173532966100 Rises=F Damp=T
 DIIS: error= 5.13D-03 at cycle   2 NSaved=   2.
 NSaved= 2 IEnMin= 2 EnMin= -1146.12006081462     IErMin= 2 ErrMin= 5.13D-03
 ErrMax= 5.13D-03  0.00D+00 EMaxC= 1.00D-01 BMatC= 3.50D-02 BMatP= 4.23D-01
 IDIUse=3 WtCom= 9.49D-01 WtEn= 5.13D-02
 Coeff-Com:  0.944D-01 0.906D+00
 Coeff-En:   0.183D+00 0.817D+00
 Coeff:      0.990D-01 0.901D+00
 Gap=     0.241 Goal=   None    Shift=    0.000
 RMSDP=1.16D-03 MaxDP=5.20D-02 DE=-1.74D-01 OVMax= 1.82D-01

 Cycle   3  Pass 1  IDiag  1:
 RMSU=  1.13D-03    CP:  9.86D-01  8.33D-01
 E= -1146.34899806357     Delta-E=       -0.228937248942 Rises=F Damp=F
 DIIS: error= 6.13D-03 at cycle   3 NSaved=   3.
 NSaved= 3 IEnMin= 3 EnMin= -1146.34899806357     IErMin= 2 ErrMin= 5.13D-03
 ErrMax= 6.13D-03  0.00D+00 EMaxC= 1.00D-01 BMatC= 2.61D-02 BMatP= 3.50D-02
 IDIUse=3 WtCom= 9.39D-01 WtEn= 6.13D-02
 Coeff-Com: -0.936D-02 0.458D+00 0.551D+00
 Coeff-En:   0.000D+00 0.000D+00 0.100D+01
 Coeff:     -0.878D-02 0.430D+00 0.579D+00
 Gap=     0.197 Goal=   None    Shift=    0.000
 RMSDP=4.01D-04 MaxDP=2.34D-02 DE=-2.29D-01 OVMax= 7.55D-02

 Cycle   4  Pass 1  IDiag  1:
 RMSU=  3.95D-04    CP:  9.87D-01  8.29D-01  9.37D-01
 E= -1146.36855639307     Delta-E=       -0.019558329502 Rises=F Damp=F
 DIIS: error= 3.36D-03 at cycle   4 NSaved=   4.
 NSaved= 4 IEnMin= 4 EnMin= -1146.36855639307     IErMin= 4 ErrMin= 3.36D-03
 ErrMax= 3.36D-03  0.00D+00 EMaxC= 1.00D-01 BMatC= 7.11D-03 BMatP= 2.61D-02
 IDIUse=3 WtCom= 9.66D-01 WtEn= 3.36D-02
 Coeff-Com: -0.155D-01 0.104D+00 0.363D+00 0.549D+00
 Coeff-En:   0.000D+00 0.000D+00 0.246D+00 0.754D+00
 Coeff:     -0.149D-01 0.100D+00 0.359D+00 0.556D+00
 Gap=     0.190 Goal=   None    Shift=    0.000
 RMSDP=1.58D-04 MaxDP=9.10D-03 DE=-1.96D-02 OVMax= 2.75D-02

 Cycle   5  Pass 1  IDiag  1:
 RMSU=  1.29D-04    CP:  9.87D-01  8.34D-01  9.42D-01  7.70D-01
 E= -1146.37581325406     Delta-E=       -0.007256860988 Rises=F Damp=F
 DIIS: error= 4.17D-04 at cycle   5 NSaved=   5.
 NSaved= 5 IEnMin= 5 EnMin= -1146.37581325406     IErMin= 5 ErrMin= 4.17D-04
 ErrMax= 4.17D-04  0.00D+00 EMaxC= 1.00D-01 BMatC= 2.11D-04 BMatP= 7.11D-03
 IDIUse=3 WtCom= 9.96D-01 WtEn= 4.17D-03
 Coeff-Com: -0.467D-02 0.156D-01 0.121D+00 0.240D+00 0.628D+00
 Coeff-En:   0.000D+00 0.000D+00 0.000D+00 0.000D+00 0.100D+01
 Coeff:     -0.465D-02 0.155D-01 0.120D+00 0.239D+00 0.629D+00
 Gap=     0.188 Goal=   None    Shift=    0.000
 RMSDP=6.79D-05 MaxDP=4.57D-03 DE=-7.26D-03 OVMax= 3.58D-03

 Cycle   6  Pass 1  IDiag  1:
 RMSU=  6.63D-05    CP:  9.89D-01  8.34D-01  9.47D-01  7.61D-01  1.03D+00
 E= -1146.37600308726     Delta-E=       -0.000189833205 Rises=F Damp=F
 DIIS: error= 1.41D-04 at cycle   6 NSaved=   6.
 NSaved= 6 IEnMin= 6 EnMin= -1146.37600308726     IErMin= 6 ErrMin= 1.41D-04
 ErrMax= 1.41D-04  0.00D+00 EMaxC= 1.00D-01 BMatC= 2.14D-05 BMatP= 2.11D-04
 IDIUse=3 WtCom= 9.99D-01 WtEn= 1.41D-03
 Coeff-Com: -0.432D-03-0.134D-02 0.253D-01 0.599D-01 0.278D+00 0.638D+00
 Coeff-En:   0.000D+00 0.000D+00 0.000D+00 0.000D+00 0.000D+00 0.100D+01
 Coeff:     -0.432D-03-0.133D-02 0.252D-01 0.598D-01 0.278D+00 0.639D+00
 Gap=     0.188 Goal=   None    Shift=    0.000
 RMSDP=2.06D-05 MaxDP=1.26D-03 DE=-1.90D-04 OVMax= 1.18D-03

 Cycle   7  Pass 1  IDiag  1:
 RMSU=  1.02D-05    CP:  9.89D-01  8.33D-01  9.48D-01  7.72D-01  1.13D+00
                    CP:  1.16D+00
 E= -1146.37602278494     Delta-E=       -0.000019697679 Rises=F Damp=F
 DIIS: error= 4.35D-05 at cycle   7 NSaved=   7.
 NSaved= 7 IEnMin= 7 EnMin= -1146.37602278494     IErMin= 7 ErrMin= 4.35D-05
 ErrMax= 4.35D-05  0.00D+00 EMaxC= 1.00D-01 BMatC= 1.96D-06 BMatP= 2.14D-05
 IDIUse=1 WtCom= 1.00D+00 WtEn= 0.00D+00
 Coeff-Com:  0.466D-03-0.249D-02-0.324D-02-0.400D-02 0.344D-01 0.244D+00
 Coeff-Com:  0.731D+00
 Coeff:      0.466D-03-0.249D-02-0.324D-02-0.400D-02 0.344D-01 0.244D+00
 Coeff:      0.731D+00
 Gap=     0.188 Goal=   None    Shift=    0.000
 RMSDP=1.20D-05 MaxDP=6.99D-04 DE=-1.97D-05 OVMax= 5.61D-04

 Cycle   8  Pass 1  IDiag  1:
 RMSU=  4.31D-06    CP:  9.89D-01  8.32D-01  9.48D-01  7.81D-01  1.19D+00
                    CP:  1.26D+00  1.24D+00
 E= -1146.37602451704     Delta-E=       -0.000001732099 Rises=F Damp=F
 DIIS: error= 2.59D-05 at cycle   8 NSaved=   8.
 NSaved= 8 IEnMin= 8 EnMin= -1146.37602451704     IErMin= 8 ErrMin= 2.59D-05
 ErrMax= 2.59D-05  0.00D+00 EMaxC= 1.00D-01 BMatC= 4.22D-07 BMatP= 1.96D-06
 IDIUse=1 WtCom= 1.00D+00 WtEn= 0.00D+00
 Coeff-Com:  0.353D-03-0.105D-02-0.506D-02-0.110D-01-0.211D-01 0.313D-01
 Coeff-Com:  0.363D+00 0.643D+00
 Coeff:      0.353D-03-0.105D-02-0.506D-02-0.110D-01-0.211D-01 0.313D-01
 Coeff:      0.363D+00 0.643D+00
 Gap=     0.188 Goal=   None    Shift=    0.000
 RMSDP=5.07D-06 MaxDP=3.02D-04 DE=-1.73D-06 OVMax= 2.05D-04

 Cycle   9  Pass 1  IDiag  1:
 RMSU=  1.51D-06    CP:  9.89D-01  8.32D-01  9.49D-01  7.82D-01  1.21D+00
                    CP:  1.31D+00  1.38D+00  1.15D+00
 E= -1146.37602494709     Delta-E=       -0.000000430050 Rises=F Damp=F
 DIIS: error= 9.73D-06 at cycle   9 NSaved=   9.
 NSaved= 9 IEnMin= 9 EnMin= -1146.37602494709     IErMin= 9 ErrMin= 9.73D-06
 ErrMax= 9.73D-06  0.00D+00 EMaxC= 1.00D-01 BMatC= 4.24D-08 BMatP= 4.22D-07
 IDIUse=1 WtCom= 1.00D+00 WtEn= 0.00D+00
 Coeff-Com:  0.102D-03-0.156D-03-0.163D-02-0.408D-02-0.118D-01-0.158D-01
 Coeff-Com:  0.651D-01 0.281D+00 0.687D+00
 Coeff:      0.102D-03-0.156D-03-0.163D-02-0.408D-02-0.118D-01-0.158D-01
 Coeff:      0.651D-01 0.281D+00 0.687D+00
 Gap=     0.188 Goal=   None    Shift=    0.000
 RMSDP=1.74D-06 MaxDP=1.03D-04 DE=-4.30D-07 OVMax= 8.07D-05

 Cycle  10  Pass 1  IDiag  1:
 RMSU=  4.65D-07    CP:  9.89D-01  8.31D-01  9.49D-01  7.83D-01  1.22D+00
                    CP:  1.33D+00  1.43D+00  1.29D+00  1.13D+00
 E= -1146.37602499095     Delta-E=       -0.000000043865 Rises=F Damp=F
 DIIS: error= 2.83D-06 at cycle  10 NSaved=  10.
 NSaved=10 IEnMin=10 EnMin= -1146.37602499095     IErMin=10 ErrMin= 2.83D-06
 ErrMax= 2.83D-06  0.00D+00 EMaxC= 1.00D-01 BMatC= 7.27D-09 BMatP= 4.24D-08
 IDIUse=1 WtCom= 1.00D+00 WtEn= 0.00D+00
 Coeff-Com: -0.930D-05 0.101D-03 0.568D-04-0.119D-03-0.211D-02-0.135D-01
 Coeff-Com: -0.289D-01 0.335D-01 0.340D+00 0.671D+00
 Coeff:     -0.930D-05 0.101D-03 0.568D-04-0.119D-03-0.211D-02-0.135D-01
 Coeff:     -0.289D-01 0.335D-01 0.340D+00 0.671D+00
 Gap=     0.188 Goal=   None    Shift=    0.000
 RMSDP=7.09D-07 MaxDP=3.75D-05 DE=-4.39D-08 OVMax= 2.22D-05

 Cycle  11  Pass 1  IDiag  1:
 RMSU=  2.03D-07    CP:  9.89D-01  8.31D-01  9.49D-01  7.83D-01  1.22D+00
                    CP:  1.33D+00  1.45D+00  1.35D+00  1.27D+00  1.23D+00
 E= -1146.37602499784     Delta-E=       -0.000000006887 Rises=F Damp=F
 DIIS: error= 6.51D-07 at cycle  11 NSaved=  11.
 NSaved=11 IEnMin=11 EnMin= -1146.37602499784     IErMin=11 ErrMin= 6.51D-07
 ErrMax= 6.51D-07  0.00D+00 EMaxC= 1.00D-01 BMatC= 5.72D-10 BMatP= 7.27D-09
 IDIUse=1 WtCom= 1.00D+00 WtEn= 0.00D+00
 Coeff-Com: -0.112D-04 0.543D-04 0.133D-03 0.257D-03-0.982D-04-0.449D-02
 Coeff-Com: -0.164D-01-0.705D-02 0.944D-01 0.289D+00 0.644D+00
 Coeff:     -0.112D-04 0.543D-04 0.133D-03 0.257D-03-0.982D-04-0.449D-02
 Coeff:     -0.164D-01-0.705D-02 0.944D-01 0.289D+00 0.644D+00
 Gap=     0.188 Goal=   None    Shift=    0.000
 RMSDP=1.75D-07 MaxDP=9.61D-06 DE=-6.89D-09 OVMax= 8.96D-06

 Cycle  12  Pass 1  IDiag  1:
 RMSU=  7.10D-08    CP:  9.89D-01  8.31D-01  9.49D-01  7.84D-01  1.23D+00
                    CP:  1.33D+00  1.46D+00  1.37D+00  1.31D+00  1.37D+00
                    CP:  1.26D+00
 E= -1146.37602499835     Delta-E=       -0.000000000513 Rises=F Damp=F
 DIIS: error= 3.45D-07 at cycle  12 NSaved=  12.
 NSaved=12 IEnMin=12 EnMin= -1146.37602499835     IErMin=12 ErrMin= 3.45D-07
 ErrMax= 3.45D-07  0.00D+00 EMaxC= 1.00D-01 BMatC= 1.29D-10 BMatP= 5.72D-10
 IDIUse=1 WtCom= 1.00D+00 WtEn= 0.00D+00
 Coeff-Com: -0.412D-05 0.102D-04 0.506D-04 0.149D-03 0.322D-03 0.247D-03
 Coeff-Com: -0.267D-02-0.956D-02-0.150D-01 0.175D-01 0.341D+00 0.668D+00
 Coeff:     -0.412D-05 0.102D-04 0.506D-04 0.149D-03 0.322D-03 0.247D-03
 Coeff:     -0.267D-02-0.956D-02-0.150D-01 0.175D-01 0.341D+00 0.668D+00
 Gap=     0.188 Goal=   None    Shift=    0.000
 RMSDP=8.65D-08 MaxDP=4.98D-06 DE=-5.13D-10 OVMax= 4.38D-06

 Cycle  13  Pass 1  IDiag  1:
 RMSU=  3.31D-08    CP:  9.89D-01  8.32D-01  9.49D-01  7.84D-01  1.23D+00
                    CP:  1.33D+00  1.46D+00  1.37D+00  1.33D+00  1.46D+00
                    CP:  1.45D+00  1.14D+00
 E= -1146.37602499851     Delta-E=       -0.000000000161 Rises=F Damp=F
 DIIS: error= 8.08D-08 at cycle  13 NSaved=  13.
 NSaved=13 IEnMin=13 EnMin= -1146.37602499851     IErMin=13 ErrMin= 8.08D-08
 ErrMax= 8.08D-08  0.00D+00 EMaxC= 1.00D-01 BMatC= 9.71D-12 BMatP= 1.29D-10
 IDIUse=1 WtCom= 1.00D+00 WtEn= 0.00D+00
 Coeff-Com: -0.109D-05 0.503D-06 0.923D-05 0.402D-04 0.144D-03 0.480D-03
 Coeff-Com:  0.242D-03-0.332D-02-0.139D-01-0.178D-01 0.955D-01 0.295D+00
 Coeff-Com:  0.644D+00
 Coeff:     -0.109D-05 0.503D-06 0.923D-05 0.402D-04 0.144D-03 0.480D-03
 Coeff:      0.242D-03-0.332D-02-0.139D-01-0.178D-01 0.955D-01 0.295D+00
 Coeff:      0.644D+00
 Gap=     0.188 Goal=   None    Shift=    0.000
 RMSDP=2.62D-08 MaxDP=1.37D-06 DE=-1.61D-10 OVMax= 1.07D-06

 Cycle  14  Pass 1  IDiag  1:
 RMSU=  8.18D-09    CP:  9.89D-01  8.32D-01  9.49D-01  7.84D-01  1.23D+00
                    CP:  1.33D+00  1.46D+00  1.37D+00  1.33D+00  1.48D+00
                    CP:  1.50D+00  1.24D+00  1.18D+00
 E= -1146.37602499850     Delta-E=        0.000000000010 Rises=F Damp=F
 DIIS: error= 3.81D-08 at cycle  14 NSaved=  14.
 NSaved=14 IEnMin=13 EnMin= -1146.37602499851     IErMin=14 ErrMin= 3.81D-08
 ErrMax= 3.81D-08  0.00D+00 EMaxC= 1.00D-01 BMatC= 1.54D-12 BMatP= 9.71D-12
 IDIUse=1 WtCom= 1.00D+00 WtEn= 0.00D+00
 Coeff-Com:  0.151D-06-0.139D-05-0.472D-05-0.850D-05 0.114D-04 0.183D-03
 Coeff-Com:  0.598D-03 0.301D-03-0.352D-02-0.121D-01-0.203D-01 0.120D-01
 Coeff-Com:  0.302D+00 0.721D+00
 Coeff:      0.151D-06-0.139D-05-0.472D-05-0.850D-05 0.114D-04 0.183D-03
 Coeff:      0.598D-03 0.301D-03-0.352D-02-0.121D-01-0.203D-01 0.120D-01
 Coeff:      0.302D+00 0.721D+00
 Gap=     0.188 Goal=   None    Shift=    0.000
 RMSDP=1.41D-08 MaxDP=8.23D-07 DE= 1.05D-11 OVMax= 3.87D-07

 Cycle  15  Pass 1  IDiag  1:
 RMSU=  4.15D-09    CP:  9.89D-01  8.32D-01  9.49D-01  7.84D-01  1.23D+00
                    CP:  1.33D+00  1.46D+00  1.37D+00  1.34D+00  1.49D+00
                    CP:  1.53D+00  1.29D+00  1.30D+00  1.27D+00
 E= -1146.37602499851     Delta-E=       -0.000000000007 Rises=F Damp=F
 DIIS: error= 8.96D-09 at cycle  15 NSaved=  15.
 NSaved=15 IEnMin=13 EnMin= -1146.37602499851     IErMin=15 ErrMin= 8.96D-09
 ErrMax= 8.96D-09  0.00D+00 EMaxC= 1.00D-01 BMatC= 7.56D-14 BMatP= 1.54D-12
 IDIUse=1 WtCom= 1.00D+00 WtEn= 0.00D+00
 Coeff-Com:  0.152D-06-0.559D-06-0.245D-05-0.600D-05-0.115D-04 0.864D-05
 Coeff-Com:  0.124D-03 0.315D-03 0.242D-03-0.174D-02-0.133D-01-0.225D-01
 Coeff-Com:  0.265D-01 0.212D+00 0.798D+00
 Coeff:      0.152D-06-0.559D-06-0.245D-05-0.600D-05-0.115D-04 0.864D-05
 Coeff:      0.124D-03 0.315D-03 0.242D-03-0.174D-02-0.133D-01-0.225D-01
 Coeff:      0.265D-01 0.212D+00 0.798D+00
 Gap=     0.188 Goal=   None    Shift=    0.000
 RMSDP=4.51D-09 MaxDP=2.65D-07 DE=-7.28D-12 OVMax= 1.03D-07

 Error on total polarization charges =  0.05461
 SCF Done:  E(RM06) =  -1146.37602500     A.U. after   15 cycles
            NFock= 15  Conv=0.45D-08     -V/T= 2.0045
 KE= 1.141258976707D+03 PE=-5.807106571052D+03 EE= 1.957903564014D+03
 SMD-CDS (non-electrostatic) energy       (kcal/mol) =      -3.20
 (included in total energy above)
 Leave Link  502 at Sun Feb 21 01:10:42 2021, MaxMem=  5242880000 cpu:      9792.2
 (Enter /opt/nce/packages/global/g09/l601.exe)
 Copying SCF densities to generalized density rwf, IOpCl= 0 IROHF=0.

 **********************************************************************

            Population analysis using the SCF density.

 **********************************************************************

 Alpha  occ. eigenvalues --  -89.05610 -14.42499 -10.29339 -10.29080 -10.29077
 Alpha  occ. eigenvalues --  -10.28095 -10.28093 -10.25175 -10.25174 -10.24929
 Alpha  occ. eigenvalues --  -10.24929 -10.24750 -10.24750 -10.24679 -10.24679
 Alpha  occ. eigenvalues --  -10.24154 -10.24154 -10.23620 -10.23618 -10.23176
 Alpha  occ. eigenvalues --   -8.06938  -5.98641  -5.98287  -5.97679  -0.99024
 Alpha  occ. eigenvalues --   -0.88111  -0.87800  -0.85434  -0.81902  -0.77592
 Alpha  occ. eigenvalues --   -0.76692  -0.76501  -0.75259  -0.73595  -0.69950
 Alpha  occ. eigenvalues --   -0.64343  -0.64283  -0.61555  -0.60808  -0.60782
 Alpha  occ. eigenvalues --   -0.57553  -0.54777  -0.54695  -0.50743  -0.49265
 Alpha  occ. eigenvalues --   -0.49192  -0.47854  -0.47360  -0.45815  -0.45052
 Alpha  occ. eigenvalues --   -0.45015  -0.43843  -0.43365  -0.42724  -0.41940
 Alpha  occ. eigenvalues --   -0.40588  -0.39000  -0.38839  -0.38530  -0.37181
 Alpha  occ. eigenvalues --   -0.36643  -0.35925  -0.35161  -0.34700  -0.33028
 Alpha  occ. eigenvalues --   -0.31534  -0.27783  -0.27724  -0.26979  -0.26703
 Alpha  occ. eigenvalues --   -0.23723  -0.21417
 Alpha virt. eigenvalues --   -0.02615  -0.02213  -0.02027  -0.01974  -0.00189
 Alpha virt. eigenvalues --    0.00677   0.02182   0.04662   0.05766   0.06608
 Alpha virt. eigenvalues --    0.07045   0.07608   0.07871   0.08763   0.09104
 Alpha virt. eigenvalues --    0.09221   0.10170   0.10733   0.11152   0.11276
 Alpha virt. eigenvalues --    0.11469   0.11993   0.12482   0.13577   0.14192
 Alpha virt. eigenvalues --    0.15431   0.16841   0.17134   0.17375   0.18764
 Alpha virt. eigenvalues --    0.19050   0.19380   0.19956   0.20714   0.20974
 Alpha virt. eigenvalues --    0.21322   0.22003   0.22021   0.22764   0.23172
 Alpha virt. eigenvalues --    0.23682   0.23875   0.24120   0.24246   0.24708
 Alpha virt. eigenvalues --    0.25686   0.26076   0.26180   0.26705   0.26893
 Alpha virt. eigenvalues --    0.27658   0.28149   0.28638   0.28849   0.29655
 Alpha virt. eigenvalues --    0.30072   0.30410   0.30947   0.31020   0.31603
 Alpha virt. eigenvalues --    0.31914   0.32224   0.32449   0.33116   0.33861
 Alpha virt. eigenvalues --    0.34191   0.34580   0.34679   0.35323   0.35374
 Alpha virt. eigenvalues --    0.36219   0.36732   0.36905   0.37585   0.37604
 Alpha virt. eigenvalues --    0.37690   0.37956   0.38506   0.39218   0.39399
 Alpha virt. eigenvalues --    0.39479   0.40197   0.40317   0.40754   0.40942
 Alpha virt. eigenvalues --    0.41811   0.42369   0.42687   0.43583   0.44238
 Alpha virt. eigenvalues --    0.45220   0.45329   0.46112   0.46643   0.47009
 Alpha virt. eigenvalues --    0.47152   0.47364   0.47751   0.48214   0.49628
 Alpha virt. eigenvalues --    0.49900   0.50225   0.50575   0.51047   0.52481
 Alpha virt. eigenvalues --    0.52487   0.53493   0.54113   0.54918   0.55982
 Alpha virt. eigenvalues --    0.56228   0.57819   0.58485   0.59041   0.59887
 Alpha virt. eigenvalues --    0.60139   0.62643   0.62738   0.63141   0.63603
 Alpha virt. eigenvalues --    0.64675   0.65274   0.65520   0.65952   0.66999
 Alpha virt. eigenvalues --    0.67130   0.67613   0.67678   0.68089   0.69421
 Alpha virt. eigenvalues --    0.69454   0.69676   0.70850   0.70887   0.71801
 Alpha virt. eigenvalues --    0.72264   0.73090   0.74096   0.74860   0.75665
 Alpha virt. eigenvalues --    0.75993   0.76592   0.77035   0.77996   0.78841
 Alpha virt. eigenvalues --    0.80551   0.81415   0.81625   0.81817   0.82818
 Alpha virt. eigenvalues --    0.83517   0.83808   0.85292   0.86005   0.86052
 Alpha virt. eigenvalues --    0.86454   0.86619   0.86747   0.88686   0.88869
 Alpha virt. eigenvalues --    0.90626   0.90675   0.91608   0.93531   0.93761
 Alpha virt. eigenvalues --    0.94178   0.95225   0.96314   0.97928   0.99050
 Alpha virt. eigenvalues --    1.00893   1.01899   1.02017   1.02995   1.04111
 Alpha virt. eigenvalues --    1.04894   1.05148   1.06369   1.06927   1.07636
 Alpha virt. eigenvalues --    1.09214   1.09402   1.09862   1.11139   1.11624
 Alpha virt. eigenvalues --    1.12426   1.12834   1.14821   1.15732   1.16728
 Alpha virt. eigenvalues --    1.17154   1.17445   1.18966   1.19740   1.20362
 Alpha virt. eigenvalues --    1.20449   1.21865   1.22842   1.22955   1.23667
 Alpha virt. eigenvalues --    1.23910   1.25177   1.26031   1.26634   1.26667
 Alpha virt. eigenvalues --    1.27381   1.27768   1.28218   1.30333   1.30378
 Alpha virt. eigenvalues --    1.30991   1.32142   1.33343   1.34969   1.36220
 Alpha virt. eigenvalues --    1.37103   1.37454   1.39674   1.40041   1.41349
 Alpha virt. eigenvalues --    1.41390   1.42492   1.43413   1.43617   1.44605
 Alpha virt. eigenvalues --    1.45112   1.45740   1.46479   1.46978   1.47175
 Alpha virt. eigenvalues --    1.47621   1.49551   1.50454   1.51123   1.51741
 Alpha virt. eigenvalues --    1.52558   1.53600   1.54303   1.54829   1.55096
 Alpha virt. eigenvalues --    1.56001   1.57135   1.58170   1.58771   1.59377
 Alpha virt. eigenvalues --    1.60110   1.60556   1.61579   1.61655   1.61864
 Alpha virt. eigenvalues --    1.63067   1.63725   1.64134   1.64608   1.65217
 Alpha virt. eigenvalues --    1.65529   1.67208   1.67518   1.68770   1.69497
 Alpha virt. eigenvalues --    1.69662   1.70176   1.70267   1.70551   1.71495
 Alpha virt. eigenvalues --    1.73660   1.74557   1.75171   1.75893   1.76885
 Alpha virt. eigenvalues --    1.77802   1.79098   1.80249   1.81451   1.82361
 Alpha virt. eigenvalues --    1.84283   1.84329   1.85933   1.86553   1.87196
 Alpha virt. eigenvalues --    1.87626   1.89431   1.90592   1.90680   1.92229
 Alpha virt. eigenvalues --    1.92410   1.93474   1.93982   1.96272   1.97954
 Alpha virt. eigenvalues --    1.98973   1.99334   2.00036   2.02245   2.02318
 Alpha virt. eigenvalues --    2.03808   2.04397   2.04887   2.04898   2.06918
 Alpha virt. eigenvalues --    2.06983   2.08593   2.09441   2.09662   2.11046
 Alpha virt. eigenvalues --    2.12013   2.13886   2.14319   2.15036   2.15342
 Alpha virt. eigenvalues --    2.16034   2.17417   2.18132   2.18193   2.18632
 Alpha virt. eigenvalues --    2.19428   2.20683   2.21136   2.21214   2.22614
 Alpha virt. eigenvalues --    2.22893   2.26329   2.27278   2.30024   2.33321
 Alpha virt. eigenvalues --    2.37701   2.38501   2.41018   2.41638   2.41653
 Alpha virt. eigenvalues --    2.42097   2.42405   2.46630   2.47241   2.47788
 Alpha virt. eigenvalues --    2.48261   2.48813   2.49145   2.50516   2.50540
 Alpha virt. eigenvalues --    2.53056   2.54303   2.55821   2.55897   2.56397
 Alpha virt. eigenvalues --    2.57652   2.58185   2.58562   2.59808   2.60598
 Alpha virt. eigenvalues --    2.61417   2.61972   2.62873   2.63079   2.64223
 Alpha virt. eigenvalues --    2.64258   2.65047   2.65808   2.66039   2.67121
 Alpha virt. eigenvalues --    2.67541   2.67620   2.68552   2.69578   2.70140
 Alpha virt. eigenvalues --    2.70467   2.70994   2.71451   2.72022   2.72621
 Alpha virt. eigenvalues --    2.73303   2.73615   2.74380   2.74994   2.75427
 Alpha virt. eigenvalues --    2.76177   2.76811   2.77395   2.78395   2.78446
 Alpha virt. eigenvalues --    2.79688   2.80478   2.80749   2.81375   2.81873
 Alpha virt. eigenvalues --    2.82898   2.83153   2.83443   2.83899   2.84897
 Alpha virt. eigenvalues --    2.85446   2.86467   2.86507   2.87485   2.88267
 Alpha virt. eigenvalues --    2.88443   2.89297   2.90101   2.90786   2.91104
 Alpha virt. eigenvalues --    2.91367   2.92623   2.94043   2.94958   2.95688
 Alpha virt. eigenvalues --    2.98239   3.00132   3.00678   3.01476   3.01738
 Alpha virt. eigenvalues --    3.03254   3.03755   3.04889   3.05756   3.07617
 Alpha virt. eigenvalues --    3.07994   3.08416   3.08787   3.09322   3.09782
 Alpha virt. eigenvalues --    3.09946   3.11278   3.11557   3.12056   3.12514
 Alpha virt. eigenvalues --    3.13055   3.13080   3.13245   3.13811   3.14598
 Alpha virt. eigenvalues --    3.16050   3.16127   3.16539   3.17567   3.18250
 Alpha virt. eigenvalues --    3.20358   3.21577   3.21818   3.22240   3.23600
 Alpha virt. eigenvalues --    3.24785   3.25362   3.26345   3.26714   3.27714
 Alpha virt. eigenvalues --    3.28131   3.28957   3.29031   3.29979   3.30177
 Alpha virt. eigenvalues --    3.30185   3.30458   3.31028   3.33146   3.33572
 Alpha virt. eigenvalues --    3.33801   3.34412   3.34575   3.35969   3.36327
 Alpha virt. eigenvalues --    3.36900   3.37151   3.38150   3.38518   3.39897
 Alpha virt. eigenvalues --    3.41177   3.41193   3.42536   3.42580   3.43330
 Alpha virt. eigenvalues --    3.44689   3.45422   3.46148   3.46877   3.47406
 Alpha virt. eigenvalues --    3.48049   3.48538   3.49940   3.50093   3.50887
 Alpha virt. eigenvalues --    3.51617   3.51687   3.51702   3.52704   3.54077
 Alpha virt. eigenvalues --    3.55686   3.55747   3.57141   3.57509   3.60646
 Alpha virt. eigenvalues --    3.61194   3.63813   3.64688   3.65109   3.66268
 Alpha virt. eigenvalues --    3.66379   3.67656   3.68762   3.68824   3.70341
 Alpha virt. eigenvalues --    3.72182   3.72790   3.75313   3.75541   3.76382
 Alpha virt. eigenvalues --    3.78404   3.79212   3.82413   3.85088   3.85110
 Alpha virt. eigenvalues --    3.86144   3.87624   3.88982   3.89117   3.95073
 Alpha virt. eigenvalues --    3.95590   3.96364   3.97879   3.98014   3.99353
 Alpha virt. eigenvalues --    3.99619   4.01209   4.02049   4.03299   4.04493
 Alpha virt. eigenvalues --    4.04766   4.06398   4.08069   4.11747   4.11976
 Alpha virt. eigenvalues --    4.12972   4.13807   4.14225   4.14562   4.14836
 Alpha virt. eigenvalues --    4.15190   4.16628   4.17165   4.17744   4.18164
 Alpha virt. eigenvalues --    4.19883   4.20033   4.20831   4.22331   4.22983
 Alpha virt. eigenvalues --    4.23298   4.24362   4.26369   4.28125   4.29009
 Alpha virt. eigenvalues --    4.31167   4.32804   4.33506   4.35453   4.37675
 Alpha virt. eigenvalues --    4.42102   4.43486   4.49246   4.52733   4.53925
 Alpha virt. eigenvalues --    4.54069   4.56284   4.57009   4.59616   4.61499
 Alpha virt. eigenvalues --    4.62556   4.69136   4.69359   4.71667   4.72330
 Alpha virt. eigenvalues --    4.72617   4.75280   4.77122   4.79770   4.84095
 Alpha virt. eigenvalues --    4.87345   4.87600   4.88994   4.90673   4.92622
 Alpha virt. eigenvalues --    4.93650   4.96213   4.98807   5.00406   5.04182
 Alpha virt. eigenvalues --    5.04285   5.06924   5.10088   5.14409   5.16641
 Alpha virt. eigenvalues --    5.18284   5.21944   5.25750   5.30636   5.36228
 Alpha virt. eigenvalues --    5.38073   5.42841   5.43426   5.47346   5.48355
 Alpha virt. eigenvalues --    5.54904   5.58946   5.65259   5.73742   5.74901
 Alpha virt. eigenvalues --    5.80619   5.98455   5.99160   6.01604   9.06261
 Alpha virt. eigenvalues --    9.49693   9.65676  20.31599  22.05352  22.12387
 Alpha virt. eigenvalues --   22.22511  22.54862  22.55887  22.56091  22.56889
 Alpha virt. eigenvalues --   22.60705  22.61611  22.68211  22.74437  22.80061
 Alpha virt. eigenvalues --   22.80438  22.81772  22.84606  23.15538  23.22065
 Alpha virt. eigenvalues --   23.26599  33.17977
          Condensed to atoms (all electrons):
               1          2          3          4          5          6
     1  C    5.224116   0.221968   0.177521  -0.197820   0.130353   0.253667
     2  C    0.221968   5.406328   0.063338   0.124138  -0.173596   0.090773
     3  C    0.177521   0.063338   5.602181   0.074671   0.190414  -0.163989
     4  C   -0.197820   0.124138   0.074671   5.917634   0.017072   0.105620
     5  C    0.130353  -0.173596   0.190414   0.017072   5.607485   0.195728
     6  C    0.253667   0.090773  -0.163989   0.105620   0.195728   5.183020
     7  C    0.001245  -0.001470  -0.009562  -0.127143   0.017529  -0.002848
     8  C   -0.001462   0.004476  -0.072049  -0.009613  -0.000652   0.000780
     9  C   -0.000130   0.003208   0.004478  -0.001479  -0.000613  -0.000004
    10  H    0.000001  -0.000001  -0.000268   0.000266  -0.000003   0.000001
    11  C   -0.000014  -0.000130  -0.001463   0.001246  -0.000150   0.000034
    12  C    0.000034  -0.000004   0.000783  -0.002855   0.000542  -0.000067
    13  C   -0.000150  -0.000613  -0.000647   0.017532   0.001906   0.000543
    14  H   -0.059791   0.454341  -0.083350   0.030232  -0.006987   0.012446
    15  H    0.011739  -0.005233   0.017215  -0.080344   0.469786  -0.048146
    16  H   -0.078225   0.017359  -0.006909   0.021817  -0.079286   0.477656
    17  H   -0.000000  -0.000000   0.000012   0.000006  -0.000000  -0.000000
    18  H   -0.000000   0.000001   0.000005  -0.000060   0.000000  -0.000000
    19  C   -0.000982   0.002084  -0.028691  -0.115108   0.009359   0.002111
    20  C    0.000039  -0.000308   0.000509   0.015299  -0.000651  -0.000301
    21  C   -0.000000   0.000022  -0.000014  -0.000757  -0.000046   0.000026
    22  C    0.000072  -0.000047  -0.000815  -0.004305   0.007172   0.000017
    23  C   -0.000004   0.000005   0.000040  -0.000504  -0.000450  -0.000013
    24  H   -0.000000   0.000000   0.000000   0.000024  -0.000002   0.000000
    25  H    0.000004  -0.000003   0.000004   0.000123   0.000211   0.000006
    26  H    0.000003  -0.000018  -0.000129  -0.001292   0.000172  -0.000009
    27  H   -0.000000  -0.000000  -0.000000  -0.000005   0.000002  -0.000000
    28  H    0.477756  -0.077372   0.018185  -0.007060   0.017755  -0.075005
    29  N   -0.001111   0.015826  -0.090245   0.208209  -0.024050   0.006354
    30  H    0.000001  -0.000022  -0.000377   0.000229   0.000026   0.000045
    31  S    0.008950  -0.077675   0.368174  -0.105578   0.012743  -0.002285
    32  C   -0.001094   0.001393  -0.003011  -0.022794  -0.016155   0.003201
    33  H   -0.002089   0.001415  -0.001743   0.012146  -0.032611   0.000953
               7          8          9         10         11         12
     1  C    0.001245  -0.001462  -0.000130   0.000001  -0.000014   0.000034
     2  C   -0.001470   0.004476   0.003208  -0.000001  -0.000130  -0.000004
     3  C   -0.009562  -0.072049   0.004478  -0.000268  -0.001463   0.000783
     4  C   -0.127143  -0.009613  -0.001479   0.000266   0.001246  -0.002855
     5  C    0.017529  -0.000652  -0.000613  -0.000003  -0.000150   0.000542
     6  C   -0.002848   0.000780  -0.000004   0.000001   0.000034  -0.000067
     7  C    5.917866   0.074420   0.124225   0.030234  -0.197897   0.105740
     8  C    0.074420   5.602537   0.063130  -0.083352   0.177610  -0.164096
     9  C    0.124225   0.063130   5.406589   0.454309   0.221954   0.090844
    10  H    0.030234  -0.083352   0.454309   0.514962  -0.059759   0.012443
    11  C   -0.197897   0.177610   0.221954  -0.059759   5.224203   0.253537
    12  C    0.105740  -0.164096   0.090844   0.012443   0.253537   5.183228
    13  C    0.016826   0.190538  -0.173713  -0.006985   0.130425   0.195538
    14  H    0.000267  -0.000269  -0.000002   0.000026   0.000001   0.000001
    15  H    0.000231  -0.000378  -0.000022   0.000001   0.000001   0.000045
    16  H   -0.000060   0.000005   0.000001  -0.000000  -0.000000  -0.000000
    17  H   -0.007063   0.018186  -0.077360  -0.005803   0.477749  -0.075007
    18  H    0.021820  -0.006910   0.017361  -0.000043  -0.078230   0.477671
    19  C   -0.115194  -0.028614   0.002088   0.000051  -0.000983   0.002111
    20  C   -0.022790  -0.003001   0.001397   0.000007  -0.001095   0.003205
    21  C   -0.004306  -0.000820  -0.000047  -0.000001   0.000072   0.000017
    22  C   -0.000757  -0.000016   0.000022  -0.000000  -0.000000   0.000026
    23  C   -0.000504   0.000041   0.000005  -0.000000  -0.000004  -0.000013
    24  H    0.000122   0.000004  -0.000003   0.000000   0.000004   0.000006
    25  H    0.000024   0.000000   0.000000  -0.000000  -0.000000   0.000000
    26  H    0.012163  -0.001733   0.001417   0.000006  -0.002091   0.000952
    27  H   -0.000005  -0.000000  -0.000000   0.000000  -0.000000  -0.000000
    28  H    0.000006   0.000012  -0.000000  -0.000000  -0.000000  -0.000000
    29  N    0.208201  -0.090251   0.015854  -0.000279  -0.001113   0.006363
    30  H   -0.080381   0.017219  -0.005238   0.000010   0.011746  -0.048162
    31  S   -0.105656   0.368373  -0.077691   0.001621   0.008946  -0.002282
    32  C    0.015321   0.000516  -0.000309  -0.000003   0.000039  -0.000301
    33  H   -0.001291  -0.000127  -0.000018  -0.000000   0.000003  -0.000009
              13         14         15         16         17         18
     1  C   -0.000150  -0.059791   0.011739  -0.078225  -0.000000  -0.000000
     2  C   -0.000613   0.454341  -0.005233   0.017359  -0.000000   0.000001
     3  C   -0.000647  -0.083350   0.017215  -0.006909   0.000012   0.000005
     4  C    0.017532   0.030232  -0.080344   0.021817   0.000006  -0.000060
     5  C    0.001906  -0.006987   0.469786  -0.079286  -0.000000   0.000000
     6  C    0.000543   0.012446  -0.048146   0.477656  -0.000000  -0.000000
     7  C    0.016826   0.000267   0.000231  -0.000060  -0.007063   0.021820
     8  C    0.190538  -0.000269  -0.000378   0.000005   0.018186  -0.006910
     9  C   -0.173713  -0.000002  -0.000022   0.000001  -0.077360   0.017361
    10  H   -0.006985   0.000026   0.000001  -0.000000  -0.005803  -0.000043
    11  C    0.130425   0.000001   0.000001  -0.000000   0.477749  -0.078230
    12  C    0.195538   0.000001   0.000045  -0.000000  -0.075007   0.477671
    13  C    5.607864  -0.000003   0.000026   0.000000   0.017759  -0.079299
    14  H   -0.000003   0.514999   0.000010  -0.000043  -0.000000  -0.000000
    15  H    0.000026   0.000010   0.484673  -0.006265  -0.000000  -0.000001
    16  H    0.000000  -0.000043  -0.006265   0.520393   0.000000  -0.000000
    17  H    0.017759  -0.000000  -0.000000   0.000000   0.518994  -0.006699
    18  H   -0.079299  -0.000000  -0.000001  -0.000000  -0.006699   0.520385
    19  C    0.009360   0.000051  -0.001722   0.000062   0.000010   0.000062
    20  C   -0.016184  -0.000003  -0.000562  -0.000000  -0.000011   0.000105
    21  C    0.007169  -0.000000  -0.000001   0.000001  -0.000000  -0.000004
    22  C   -0.000046  -0.000001   0.000222  -0.000004  -0.000000   0.000001
    23  C   -0.000450  -0.000000   0.000005  -0.000000   0.000000  -0.000000
    24  H    0.000211  -0.000000  -0.000000   0.000000   0.000000   0.000000
    25  H   -0.000002   0.000000   0.000019   0.000000   0.000000   0.000000
    26  H   -0.032653  -0.000000   0.000002  -0.000000  -0.000010   0.000091
    27  H    0.000002   0.000000  -0.000000  -0.000000   0.000000  -0.000000
    28  H   -0.000000  -0.005803   0.000005  -0.006699   0.000000   0.000000
    29  N   -0.024038  -0.000279   0.004992  -0.000207   0.000018  -0.000207
    30  H    0.469845   0.000001   0.000069  -0.000001   0.000005  -0.006265
    31  S    0.012735   0.001616  -0.000250   0.000023  -0.000276   0.000023
    32  C   -0.000652   0.000007  -0.004627   0.000105   0.000000  -0.000000
    33  H    0.000171   0.000006  -0.003661   0.000091   0.000000  -0.000000
              19         20         21         22         23         24
     1  C   -0.000982   0.000039  -0.000000   0.000072  -0.000004  -0.000000
     2  C    0.002084  -0.000308   0.000022  -0.000047   0.000005   0.000000
     3  C   -0.028691   0.000509  -0.000014  -0.000815   0.000040   0.000000
     4  C   -0.115108   0.015299  -0.000757  -0.004305  -0.000504   0.000024
     5  C    0.009359  -0.000651  -0.000046   0.007172  -0.000450  -0.000002
     6  C    0.002111  -0.000301   0.000026   0.000017  -0.000013   0.000000
     7  C   -0.115194  -0.022790  -0.004306  -0.000757  -0.000504   0.000122
     8  C   -0.028614  -0.003001  -0.000820  -0.000016   0.000041   0.000004
     9  C    0.002088   0.001397  -0.000047   0.000022   0.000005  -0.000003
    10  H    0.000051   0.000007  -0.000001  -0.000000  -0.000000   0.000000
    11  C   -0.000983  -0.001095   0.000072  -0.000000  -0.000004   0.000004
    12  C    0.002111   0.003205   0.000017   0.000026  -0.000013   0.000006
    13  C    0.009360  -0.016184   0.007169  -0.000046  -0.000450   0.000211
    14  H    0.000051  -0.000003  -0.000000  -0.000001  -0.000000  -0.000000
    15  H   -0.001722  -0.000562  -0.000001   0.000222   0.000005  -0.000000
    16  H    0.000062  -0.000000   0.000001  -0.000004  -0.000000   0.000000
    17  H    0.000010  -0.000011  -0.000000  -0.000000   0.000000   0.000000
    18  H    0.000062   0.000105  -0.000004   0.000001  -0.000000   0.000000
    19  C    5.217782   0.238329   0.047193   0.047211  -0.101324   0.017370
    20  C    0.238329   5.419061   0.302022  -0.113741   0.054250  -0.067683
    21  C    0.047193   0.302022   5.141645   0.043980   0.320095   0.464086
    22  C    0.047211  -0.113741   0.043980   5.141616   0.320111   0.013025
    23  C   -0.101324   0.054250   0.320095   0.320111   5.183467  -0.066728
    24  H    0.017370  -0.067683   0.464086   0.013025  -0.066728   0.522649
    25  H    0.017373  -0.005338   0.013022   0.464089  -0.066719  -0.000074
    26  H   -0.050173   0.424293  -0.017341  -0.002412   0.005654  -0.004635
    27  H   -0.006539   0.018205  -0.078604  -0.078603   0.481095  -0.006231
    28  H    0.000010   0.000000  -0.000000  -0.000000   0.000000   0.000000
    29  N    0.397203  -0.086294   0.005857   0.005852  -0.000844  -0.000096
    30  H   -0.001722  -0.004628   0.000222  -0.000001   0.000005   0.000019
    31  S    0.013359   0.002152  -0.000457  -0.000457   0.000198  -0.000001
    32  C    0.238243   0.117800  -0.113790   0.301931   0.054293  -0.005338
    33  H   -0.050177   0.006966  -0.002410  -0.017326   0.005652   0.000010
              25         26         27         28         29         30
     1  C    0.000004   0.000003  -0.000000   0.477756  -0.001111   0.000001
     2  C   -0.000003  -0.000018  -0.000000  -0.077372   0.015826  -0.000022
     3  C    0.000004  -0.000129  -0.000000   0.018185  -0.090245  -0.000377
     4  C    0.000123  -0.001292  -0.000005  -0.007060   0.208209   0.000229
     5  C    0.000211   0.000172   0.000002   0.017755  -0.024050   0.000026
     6  C    0.000006  -0.000009  -0.000000  -0.075005   0.006354   0.000045
     7  C    0.000024   0.012163  -0.000005   0.000006   0.208201  -0.080381
     8  C    0.000000  -0.001733  -0.000000   0.000012  -0.090251   0.017219
     9  C    0.000000   0.001417  -0.000000  -0.000000   0.015854  -0.005238
    10  H   -0.000000   0.000006   0.000000  -0.000000  -0.000279   0.000010
    11  C   -0.000000  -0.002091  -0.000000  -0.000000  -0.001113   0.011746
    12  C    0.000000   0.000952  -0.000000  -0.000000   0.006363  -0.048162
    13  C   -0.000002  -0.032653   0.000002  -0.000000  -0.024038   0.469845
    14  H    0.000000  -0.000000   0.000000  -0.005803  -0.000279   0.000001
[...]
 Alpha virt. eigenvalues --   23.33633  33.18886
          Condensed to atoms (all electrons):
               1          2          3          4          5          6
     1  C    5.276015   0.166529   0.228928  -0.240505   0.169136   0.205839
     2  C    0.166529   5.485263  -0.016237   0.165570  -0.214082   0.129099
     3  C    0.228928  -0.016237   5.718419  -0.011085   0.241901  -0.206449
     4  C   -0.240505   0.165570  -0.011085   6.055119  -0.044345   0.143792
     5  C    0.169136  -0.214082   0.241901  -0.044345   5.646838   0.149619
     6  C    0.205839   0.129099  -0.206449   0.143792   0.149619   5.227579
     7  C    0.002159  -0.005000  -0.010166  -0.111101   0.023056  -0.004181
     8  C   -0.001998   0.006622  -0.079918  -0.010113  -0.003292   0.001400
     9  C   -0.000181   0.004496   0.006659  -0.005045  -0.000997   0.000012
    10  H    0.000002  -0.000020  -0.000265   0.000292   0.000006  -0.000000
    11  C   -0.000020  -0.000182  -0.002002   0.002163  -0.000188   0.000047
    12  C    0.000047   0.000013   0.001400  -0.004181   0.000768  -0.000102
    13  C   -0.000189  -0.000998  -0.003298   0.023061   0.002723   0.000772
    14  H   -0.065026   0.461838  -0.088631   0.033919  -0.007707   0.013678
    15  H    0.014181  -0.006721   0.020668  -0.086222   0.479291  -0.054706
    16  H   -0.085344   0.019911  -0.008365   0.025371  -0.086787   0.488887
    17  H   -0.000000  -0.000000   0.000011   0.000012  -0.000000   0.000000
    18  H   -0.000000   0.000001   0.000010  -0.000083  -0.000001  -0.000000
    19  C   -0.000759   0.000906  -0.033238  -0.113878   0.015555   0.001919
    20  C    0.000102  -0.000615   0.001236   0.016421   0.000634  -0.000427
    21  C   -0.000003   0.000053   0.000133  -0.001736  -0.000187   0.000032
    22  C    0.000048   0.000058  -0.000852  -0.005393   0.005978  -0.000037
    23  C   -0.000006   0.000002  -0.000001  -0.000187  -0.000373  -0.000007
    24  H   -0.000000   0.000000   0.000001   0.000026  -0.000003   0.000000
    25  H    0.000007  -0.000007   0.000015   0.000104   0.000216   0.000002
    26  H    0.000005  -0.000033  -0.000170  -0.001164   0.000245  -0.000014
    27  H   -0.000000  -0.000000  -0.000000  -0.000003   0.000002  -0.000000
    28  H    0.487303  -0.083597   0.020818  -0.008327   0.019779  -0.080291
    29  N   -0.001868   0.021122  -0.085267   0.170693  -0.026576   0.007816
    30  H    0.000002  -0.000032  -0.000514   0.000115   0.000110   0.000056
    31  S    0.009735  -0.079240   0.378084  -0.118267   0.012293  -0.002538
    32  C   -0.002066   0.002356  -0.011369  -0.004301  -0.027178   0.004944
    33  H   -0.002530   0.001570  -0.002625   0.017041  -0.032691   0.001348
               7          8          9         10         11         12
     1  C    0.002159  -0.001998  -0.000181   0.000002  -0.000020   0.000047
     2  C   -0.005000   0.006622   0.004496  -0.000020  -0.000182   0.000013
     3  C   -0.010166  -0.079918   0.006659  -0.000265  -0.002002   0.001400
     4  C   -0.111101  -0.010113  -0.005045   0.000292   0.002163  -0.004181
     5  C    0.023056  -0.003292  -0.000997   0.000006  -0.000188   0.000768
     6  C   -0.004181   0.001400   0.000012  -0.000000   0.000047  -0.000102
     7  C    6.054905  -0.011146   0.166047   0.033915  -0.240840   0.144314
     8  C   -0.011146   5.718453  -0.016352  -0.088634   0.229144  -0.206612
     9  C    0.166047  -0.016352   5.485284   0.461855   0.166277   0.129316
    10  H    0.033915  -0.088634   0.461855   0.519590  -0.065035   0.013679
    11  C   -0.240840   0.229144   0.166277  -0.065035   5.276362   0.205559
    12  C    0.144314  -0.206612   0.129316   0.013679   0.205559   5.227722
    13  C   -0.046255   0.242265  -0.214434  -0.007706   0.169579   0.148895
    14  H    0.000292  -0.000265  -0.000020   0.000027   0.000002  -0.000000
    15  H    0.000113  -0.000512  -0.000032   0.000001   0.000002   0.000056
    16  H   -0.000083   0.000010   0.000001  -0.000000  -0.000000  -0.000000
    17  H   -0.008336   0.020826  -0.083608  -0.006402   0.487321  -0.080311
    18  H    0.025401  -0.008372   0.019921  -0.000031  -0.085380   0.488937
    19  C   -0.113557  -0.033348   0.000900   0.000064  -0.000769   0.001943
    20  C   -0.004564  -0.011308   0.002366   0.000035  -0.002064   0.004963
    21  C   -0.005344  -0.000844   0.000055  -0.000003   0.000048  -0.000040
    22  C   -0.001716   0.000132   0.000053  -0.000000  -0.000003   0.000032
    23  C   -0.000198  -0.000002   0.000002   0.000000  -0.000006  -0.000007
    24  H    0.000103   0.000015  -0.000007  -0.000000   0.000007   0.000002
    25  H    0.000026   0.000001   0.000000  -0.000000  -0.000000   0.000000
    26  H    0.017112  -0.002617   0.001583   0.000011  -0.002540   0.001348
    27  H   -0.000003  -0.000000  -0.000000   0.000000  -0.000000  -0.000000
    28  H    0.000012   0.000011  -0.000000  -0.000000  -0.000000   0.000000
    29  N    0.171252  -0.085402   0.021091  -0.000337  -0.001867   0.007799
    30  H   -0.086491   0.020676  -0.006732   0.000010   0.014201  -0.054756
    31  S   -0.118203   0.377978  -0.079182   0.001340   0.009727  -0.002533
    32  C    0.016428   0.001222  -0.000617  -0.000004   0.000102  -0.000423
    33  H   -0.001168  -0.000170  -0.000033  -0.000000   0.000005  -0.000013
              13         14         15         16         17         18
     1  C   -0.000189  -0.065026   0.014181  -0.085344  -0.000000  -0.000000
     2  C   -0.000998   0.461838  -0.006721   0.019911  -0.000000   0.000001
     3  C   -0.003298  -0.088631   0.020668  -0.008365   0.000011   0.000010
     4  C    0.023061   0.033919  -0.086222   0.025371   0.000012  -0.000083
     5  C    0.002723  -0.007707   0.479291  -0.086787  -0.000000  -0.000001
     6  C    0.000772   0.013678  -0.054706   0.488887   0.000000  -0.000000
     7  C   -0.046255   0.000292   0.000113  -0.000083  -0.008336   0.025401
     8  C    0.242265  -0.000265  -0.000512   0.000010   0.020826  -0.008372
     9  C   -0.214434  -0.000020  -0.000032   0.000001  -0.083608   0.019921
    10  H   -0.007706   0.000027   0.000001  -0.000000  -0.006402  -0.000031
    11  C    0.169579   0.000002   0.000002  -0.000000   0.487321  -0.085380
    12  C    0.148895  -0.000000   0.000056  -0.000000  -0.080311   0.488937
    13  C    5.649904   0.000006   0.000109  -0.000001   0.019791  -0.086849
    14  H    0.000006   0.519590   0.000010  -0.000031  -0.000000  -0.000000
    15  H    0.000109   0.000010   0.491543  -0.007136  -0.000000  -0.000001
    16  H   -0.000001  -0.000031  -0.007136   0.526642   0.000000   0.000000
    17  H    0.019791  -0.000000  -0.000000   0.000000   0.524082  -0.007450
    18  H   -0.086849  -0.000000  -0.000001   0.000000  -0.007450   0.526659
    19  C    0.015468   0.000063  -0.000913   0.000040   0.000014   0.000040
    20  C   -0.027128  -0.000004  -0.000330  -0.000002  -0.000018   0.000140
    21  C    0.006046  -0.000000  -0.000048   0.000001  -0.000001   0.000000
    22  C   -0.000182  -0.000003   0.000076   0.000000  -0.000000   0.000001
    23  C   -0.000382   0.000000   0.000037  -0.000001   0.000000  -0.000001
    24  H    0.000218  -0.000000  -0.000000   0.000000   0.000000  -0.000000
    25  H   -0.000003  -0.000000   0.000016  -0.000000   0.000000   0.000000
    26  H   -0.032945  -0.000000   0.000008  -0.000000  -0.000011   0.000082
    27  H    0.000002   0.000000   0.000000  -0.000000   0.000000  -0.000000
    28  H   -0.000000  -0.006401   0.000029  -0.007447  -0.000000   0.000000
    29  N   -0.026429  -0.000337   0.004999  -0.000235   0.000018  -0.000235
    30  H    0.479584   0.000001   0.000101  -0.000001   0.000029  -0.007140
    31  S    0.012271   0.001343  -0.000295   0.000027  -0.000290   0.000027
    32  C    0.000617   0.000035  -0.003864   0.000140   0.000000  -0.000003
    33  H    0.000243   0.000011  -0.002975   0.000081   0.000000  -0.000000
              19         20         21         22         23         24
     1  C   -0.000759   0.000102  -0.000003   0.000048  -0.000006  -0.000000
     2  C    0.000906  -0.000615   0.000053   0.000058   0.000002   0.000000
     3  C   -0.033238   0.001236   0.000133  -0.000852  -0.000001   0.000001
     4  C   -0.113878   0.016421  -0.001736  -0.005393  -0.000187   0.000026
     5  C    0.015555   0.000634  -0.000187   0.005978  -0.000373  -0.000003
     6  C    0.001919  -0.000427   0.000032  -0.000037  -0.000007   0.000000
     7  C   -0.113557  -0.004564  -0.005344  -0.001716  -0.000198   0.000103
     8  C   -0.033348  -0.011308  -0.000844   0.000132  -0.000002   0.000015
     9  C    0.000900   0.002366   0.000055   0.000053   0.000002  -0.000007
    10  H    0.000064   0.000035  -0.000003  -0.000000   0.000000  -0.000000
    11  C   -0.000769  -0.002064   0.000048  -0.000003  -0.000006   0.000007
    12  C    0.001943   0.004963  -0.000040   0.000032  -0.000007   0.000002
    13  C    0.015468  -0.027128   0.006046  -0.000182  -0.000382   0.000218
    14  H    0.000063  -0.000004  -0.000000  -0.000003   0.000000  -0.000000
    15  H   -0.000913  -0.000330  -0.000048   0.000076   0.000037  -0.000000
    16  H    0.000040  -0.000002   0.000001   0.000000  -0.000001   0.000000
    17  H    0.000014  -0.000018  -0.000001  -0.000000   0.000000   0.000000
    18  H    0.000040   0.000140   0.000000   0.000001  -0.000001  -0.000000
    19  C    5.306080   0.204347   0.067086   0.067033  -0.116039   0.019122
    20  C    0.204347   5.452318   0.270096  -0.128718   0.068413  -0.071326
    21  C    0.067086   0.270096   5.176786   0.061208   0.296076   0.470942
    22  C    0.067033  -0.128718   0.061208   5.176659   0.296130   0.014327
    23  C   -0.116039   0.068413   0.296076   0.296130   5.205461  -0.070784
    24  H    0.019122  -0.071326   0.470942   0.014327  -0.070784   0.527376
    25  H    0.019110  -0.006005   0.014323   0.470907  -0.070777  -0.000067
    26  H   -0.054697   0.429572  -0.020438  -0.003217   0.006963  -0.005159
    27  H   -0.007322   0.020022  -0.083491  -0.083486   0.489311  -0.006789
    28  H    0.000014   0.000000  -0.000000  -0.000001   0.000000   0.000000
    29  N    0.372182  -0.094643   0.009487   0.009487  -0.001732  -0.000105
    30  H   -0.000917  -0.003893   0.000078  -0.000049   0.000037   0.000016
    31  S    0.021199   0.001733  -0.000365  -0.000368   0.000146   0.000003
    32  C    0.204352   0.128829  -0.128736   0.270228   0.068327  -0.006007
    33  H   -0.054810   0.008450  -0.003215  -0.020420   0.006962   0.000009
              25         26         27         28         29         30
     1  C    0.000007   0.000005  -0.000000   0.487303  -0.001868   0.000002
     2  C   -0.000007  -0.000033  -0.000000  -0.083597   0.021122  -0.000032
     3  C    0.000015  -0.000170  -0.000000   0.020818  -0.085267  -0.000514
     4  C    0.000104  -0.001164  -0.000003  -0.008327   0.170693   0.000115
     5  C    0.000216   0.000245   0.000002   0.019779  -0.026576   0.000110
     6  C    0.000002  -0.000014  -0.000000  -0.080291   0.007816   0.000056
     7  C    0.000026   0.017112  -0.000003   0.000012   0.171252  -0.086491
     8  C    0.000001  -0.002617  -0.000000   0.000011  -0.085402   0.020676
     9  C    0.000000   0.001583  -0.000000  -0.000000   0.021091  -0.006732
    10  H   -0.000000   0.000011   0.000000  -0.000000  -0.000337   0.000010
    11  C   -0.000000  -0.002540  -0.000000  -0.000000  -0.001867   0.014201
    12  C    0.000000   0.001348  -0.000000   0.000000   0.007799  -0.054756
    13  C   -0.000003  -0.032945   0.000002  -0.000000  -0.026429   0.479584
    14  H   -0.000000  -0.000000   0.000000  -0.006401  -0.000337   0.000001
    15  H    0.000016   0.000008   0.000000   0.000029   0.004999   0.000101
    16  H   -0.000000  -0.000000  -0.000000  -0.007447  -0.000235  -0.000001
    17  H    0.000000  -0.000011   0.000000  -0.000000   0.000018   0.000029
    18  H    0.000000   0.000082  -0.000000   0.000000  -0.000235  -0.007140
    19  C    0.019110  -0.054697  -0.007322   0.000014   0.372182  -0.000917
    20  C   -0.006005   0.429572   0.020022   0.000000  -0.094643  -0.003893
    21  C    0.014323  -0.020438  -0.083491  -0.000000   0.009487   0.000078
    22  C    0.470907  -0.003217  -0.083486  -0.000001   0.009487  -0.000049
    23  C   -0.070777   0.006963   0.489311   0.000000  -0.001732   0.000037
    24  H   -0.000067  -0.005159  -0.006789   0.000000  -0.000105   0.000016
    25  H    0.527370   0.000009  -0.006789   0.000000  -0.000105  -0.000000
    26  H    0.000009   0.480581  -0.000019   0.000000  -0.010321  -0.003024
    27  H   -0.006789  -0.000019   0.534875   0.000000   0.000013   0.000000
    28  H    0.000000   0.000000   0.000000   0.524073   0.000018  -0.000000
    29  N   -0.000105  -0.010321   0.000013   0.000018   6.707837   0.005034
    30  H   -0.000000  -0.003024   0.000000  -0.000000   0.005034   0.491485
    31  S    0.000003   0.000568   0.000000  -0.000290   0.003047  -0.000295
    32  C   -0.071291   0.008462   0.020021  -0.000018  -0.094850  -0.000329
    33  H   -0.005158   0.000093  -0.000019  -0.000011  -0.010321   0.000008
              31         32         33
     1  C    0.009735  -0.002066  -0.002530
     2  C   -0.079240   0.002356   0.001570
     3  C    0.378084  -0.011369  -0.002625
     4  C   -0.118267  -0.004301   0.017041
     5  C    0.012293  -0.027178  -0.032691
     6  C   -0.002538   0.004944   0.001348
     7  C   -0.118203   0.016428  -0.001168
     8  C    0.377978   0.001222  -0.000170
     9  C   -0.079182  -0.000617  -0.000033
    10  H    0.001340  -0.000004  -0.000000
    11  C    0.009727   0.000102   0.000005
    12  C   -0.002533  -0.000423  -0.000013
    13  C    0.012271   0.000617   0.000243
    14  H    0.001343   0.000035   0.000011
    15  H   -0.000295  -0.003864  -0.002975
    16  H    0.000027   0.000140   0.000081
    17  H   -0.000290   0.000000   0.000000
    18  H    0.000027  -0.000003  -0.000000
    19  C    0.021199   0.204352  -0.054810
    20  C    0.001733   0.128829   0.008450
    21  C   -0.000365  -0.128736  -0.003215
    22  C   -0.000368   0.270228  -0.020420
    23  C    0.000146   0.068327   0.006962
    24  H    0.000003  -0.006007   0.000009
    25  H    0.000003  -0.071291  -0.005158
    26  H    0.000568   0.008462   0.000093
    27  H    0.000000   0.020021  -0.000019
    28  H   -0.000290  -0.000018  -0.000011
    29  N    0.003047  -0.094850  -0.010321
    30  H   -0.000295  -0.000329   0.000008
    31  S   15.606855   0.001682   0.000568
    32  C    0.001682   5.452083   0.429704
    33  H    0.000568   0.429704   0.480564
 Mulliken charges:
               1
     1  C   -0.159543
     2  C   -0.058644
     3  C   -0.057830
     4  C    0.112240
     5  C   -0.323745
     6  C   -0.028088
     7  C    0.113215
     8  C   -0.057848
     9  C   -0.058677
    10  H    0.137611
    11  C   -0.159652
    12  C   -0.027813
    13  C   -0.324759
    14  H    0.137608
    15  H    0.152515
    16  H    0.134323
    17  H    0.134323
    18  H    0.134327
    19  C    0.212809
    20  C   -0.258633
    21  C   -0.127999
    22  C   -0.127912
    23  C   -0.177364
    24  H    0.128082
    25  H    0.128094
    26  H    0.189727
    27  H    0.123674
    28  H    0.134329
    29  N   -0.071265
    30  H    0.152628
    31  S   -0.036761
    32  C   -0.258476
    33  H    0.189503
 Sum of Mulliken charges =  -0.00000
 Mulliken charges with hydrogens summed into heavy atoms:
               1
     1  C   -0.025214
     2  C    0.078964
     3  C   -0.057830
     4  C    0.112240
     5  C   -0.171230
     6  C    0.106235
     7  C    0.113215
     8  C   -0.057848
     9  C    0.078934
    11  C   -0.025329
    12  C    0.106515
    13  C   -0.172131
    19  C    0.212809
    20  C   -0.068907
    21  C    0.000083
    22  C    0.000182
    23  C   -0.053690
    29  N   -0.071265
    31  S   -0.036761
    32  C   -0.068973
 Electronic spatial extent (au):  <R**2>=           5186.2703
 Charge=             -0.0000 electrons
 Dipole moment (field-independent basis, Debye):
    X=             -1.2574    Y=              0.0025    Z=              1.5548  Tot=              1.9996
 Quadrupole moment (field-independent basis, Debye-Ang):
   XX=           -118.4091   YY=           -100.4113   ZZ=           -122.2938
   XY=              0.0338   XZ=              2.5013   YZ=              0.0042
 Traceless Quadrupole moment (field-independent basis, Debye-Ang):
   XX=             -4.7043   YY=             13.2934   ZZ=             -8.5891
   XY=              0.0338   XZ=              2.5013   YZ=              0.0042
 Octapole moment (field-independent basis, Debye-Ang**2):
  XXX=             11.6256  YYY=              0.1784  ZZZ=             13.1624  XYY=            -32.1681
  XXY=             -0.1168  XXZ=            -26.1075  XZZ=             -7.9772  YZZ=              0.0063
  YYZ=             20.7120  XYZ=              0.1217
 Hexadecapole moment (field-independent basis, Debye-Ang**3):
 XXXX=          -3202.6967 YYYY=          -2795.3911 ZZZZ=           -779.0917 XXXY=              0.6964
 XXXZ=            -31.2464 YYYX=             -0.1093 YYYZ=             -0.0222 ZZZX=             36.2208
 ZZZY=             -0.0831 XXYY=           -930.4485 XXZZ=           -720.1416 YYZZ=           -599.9591
 XXYZ=              0.1840 YYXZ=             10.3663 ZZXY=              0.1085
 N-N= 1.576319878172D+03 E-N=-5.837294221555D+03  KE= 1.142023335030D+03
 Leave Link  601 at Sun Feb 21 07:28:58 2021, MaxMem=  5242880000 cpu:         2.8
 (Enter /opt/nce/packages/global/g09/l9999.exe)
 1\1\GINC-CN069\SP\RM06 TD-FC\Gen\C18H13N1S1\PNG4RJV\21-Feb-2021\0\\#p 
 m06 chkbasis geom=allcheck Guess=Read int=ultrafine scrf=(SMD,solvent=
 n,n-DiMethylAcetamide) td=(NStates=30)\\Title\\0,1\C,0,-1.9289352141,3
 .5294199313,-0.3916176745\C,0,-2.1636950379,2.5026474225,0.5049979612\
 C,0,-1.4068461139,1.3412972761,0.4335168964\C,0,-0.420348713,1.2038868
 568,-0.5385325316\C,0,-0.2253308399,2.2202520458,-1.4619619616\C,0,-0.
 9667418755,3.3854298569,-1.3803858296\C,0,-0.4044207424,-1.1829889284,
 -0.5325264397\C,0,-1.3888628628,-1.3287937077,0.4404129264\C,0,-2.1298
 437268,-2.4999473374,0.5179209696\H,0,-2.9027664129,-2.5990254593,1.27
 25728586\C,0,-1.8813118732,-3.5279696251,-0.3735548757\C,0,-0.92138080
 63,-3.3759358884,-1.3632966456\C,0,-0.1958747729,-2.2012149144,-1.4509
 303713\H,0,-2.9380847098,2.5949800336,1.2590045607\H,0,0.5300179744,2.
 0913888706,-2.229901171\H,0,-0.7982854425,4.1816408033,-2.0958822797\H
 ,0,-2.4558304016,-4.4446330834,-0.308168978\H,0,-0.742270531,-4.173394
 1049,-2.0747981673\C,0,1.6772243993,0.0254812045,-0.0863263736\C,0,2.3
 611764678,-1.1672954128,0.1670458634\C,0,3.6624517225,-1.1492011053,0.
 6359560554\C,0,3.6454939641,1.2299875705,0.6333190248\C,0,4.322338055,
 0.0454209284,0.8709395748\H,0,4.1629798998,-2.0931851746,0.8230101321\
 H,0,4.1325199234,2.181418821,0.8182883472\H,0,1.8752854399,-2.12059524
 69,0.0046006207\H,0,5.3421266913,0.053097899,1.2367338183\H,0,-2.51585
 91449,4.4385259148,-0.331060167\N,0,0.3579339131,0.0155103671,-0.57342
 79063\H,0,0.5574703447,-2.0660332788,-2.2197378551\S,0,-1.6947623886,0
 .0071481953,1.5598064539\C,0,2.3440569062,1.2284529058,0.1645001525\H,
 0,1.8445529085,2.174385364,0.0002570115\\Version=ES64L-G09RevE.01\Stat
 e=1-A\HF=-1146.379343\RMSD=6.999e-09\PG=C01 [X(C18H13N1S1)]\\@


 SCIENCE IS A VERY HUMAN FORM OF KNOWLEDGE.
 WE ARE ALWAYS AT THE BRINK OF THE KNOWN,
 WE ALWAYS FEEL FORWARD FOR WHAT IS HOPED.
 EVERY JUDGEMENT IN SCIENCE STANDS ON THE EDGE OF ERROR, AND IS PERSONAL.
 SCIENCE IS A TRIBUTE TO WHAT WE CAN KNOW ALTHOUGH WE ARE FALLIBLE.

                     -- J. BRONOWSKI
 Job cpu time:       1 days  0 hours 21 minutes  5.3 seconds.
 File lengths (MBytes):  RWF=   2449 Int=      0 D2E=      0 Chk=    444 Scr=      1
 Normal termination of Gaussian 09 at Sun Feb 21 07:28:59 2021.
