
                                 *****************
                                 * O   R   C   A *
                                 *****************

                                            #,                                       
                                            ###                                      
                                            ####                                     
                                            #####                                    
                                            ######                                   
                                           ########,                                 
                                     ,,################,,,,,                         
                               ,,#################################,,                 
                          ,,##########################################,,             
                       ,#########################################, ''#####,          
                    ,#############################################,,   '####,        
                  ,##################################################,,,,####,       
                ,###########''''           ''''###############################       
              ,#####''   ,,,,##########,,,,          '''####'''          '####       
            ,##' ,,,,###########################,,,                        '##       
           ' ,,###''''                  '''############,,,                           
         ,,##''                                '''############,,,,        ,,,,,,###''
      ,#''                                            '''#######################'''  
     '                                                          ''''####''''         
             ,#######,   #######,   ,#######,      ##                                
            ,#'     '#,  ##    ##  ,#'     '#,    #''#        ######   ,####,        
            ##       ##  ##   ,#'  ##            #'  '#       #        #'  '#        
            ##       ##  #######   ##           ,######,      #####,   #    #        
            '#,     ,#'  ##    ##  '#,     ,#' ,#      #,         ##   #,  ,#        
             '#######'   ##     ##  '#######'  #'      '#     #####' # '####'        



                  #######################################################
                  #                        -***-                        #
                  #          Department of theory and spectroscopy      #
                  #    Directorship and core code : Frank Neese         #
                  #        Max Planck Institute fuer Kohlenforschung    #
                  #                Kaiser Wilhelm Platz 1               #
                  #                 D-45470 Muelheim/Ruhr               #
                  #                      Germany                        #
                  #                                                     #
                  #                  All rights reserved                #
                  #                        -***-                        #
                  #######################################################


                         Program Version 5.0.2 -  RELEASE  -


 With contributions from (in alphabetic order):
   Daniel Aravena         : Magnetic Suceptibility
   Michael Atanasov       : Ab Initio Ligand Field Theory (pilot matlab implementation)
   Alexander A. Auer      : GIAO ZORA, VPT2 properties, NMR spectrum
   Ute Becker             : Parallelization
   Giovanni Bistoni       : ED, misc. LED, open-shell LED, HFLD
   Martin Brehm           : Molecular dynamics
   Dmytro Bykov           : SCF Hessian
   Vijay G. Chilkuri      : MRCI spin determinant printing, contributions to CSF-ICE
   Dipayan Datta          : RHF DLPNO-CCSD density
   Achintya Kumar Dutta   : EOM-CC, STEOM-CC
   Dmitry Ganyushin       : Spin-Orbit,Spin-Spin,Magnetic field MRCI
   Miquel Garcia          : C-PCM and meta-GGA Hessian, CC/C-PCM, Gaussian charge scheme
   Yang Guo               : DLPNO-NEVPT2, F12-NEVPT2, CIM, IAO-localization
   Andreas Hansen         : Spin unrestricted coupled pair/coupled cluster methods
   Benjamin Helmich-Paris : MC-RPA, TRAH-SCF, COSX integrals
   Lee Huntington         : MR-EOM, pCC
   Robert Izsak           : Overlap fitted RIJCOSX, COSX-SCS-MP3, EOM
   Marcus Kettner         : VPT2
   Christian Kollmar      : KDIIS, OOCD, Brueckner-CCSD(T), CCSD density, CASPT2, CASPT2-K
   Simone Kossmann        : Meta GGA functionals, TD-DFT gradient, OOMP2, MP2 Hessian
   Martin Krupicka        : Initial AUTO-CI
   Lucas Lang             : DCDCAS
   Marvin Lechner         : AUTO-CI (C++ implementation), FIC-MRCC
   Dagmar Lenk            : GEPOL surface, SMD
   Dimitrios Liakos       : Extrapolation schemes; Compound Job, initial MDCI parallelization
   Dimitrios Manganas     : Further ROCIS development; embedding schemes
   Dimitrios Pantazis     : SARC Basis sets
   Anastasios Papadopoulos: AUTO-CI, single reference methods and gradients
   Taras Petrenko         : DFT Hessian,TD-DFT gradient, ASA, ECA, R-Raman, ABS, FL, XAS/XES, NRVS
   Peter Pinski           : DLPNO-MP2, DLPNO-MP2 Gradient
   Christoph Reimann      : Effective Core Potentials
   Marius Retegan         : Local ZFS, SOC
   Christoph Riplinger    : Optimizer, TS searches, QM/MM, DLPNO-CCSD(T), (RO)-DLPNO pert. Triples
   Tobias Risthaus        : Range-separated hybrids, TD-DFT gradient, RPA, STAB
   Michael Roemelt        : Original ROCIS implementation
   Masaaki Saitow         : Open-shell DLPNO-CCSD energy and density
   Barbara Sandhoefer     : DKH picture change effects
   Avijit Sen             : IP-ROCIS
   Kantharuban Sivalingam : CASSCF convergence, NEVPT2, FIC-MRCI
   Bernardo de Souza      : ESD, SOC TD-DFT
   Georgi Stoychev        : AutoAux, RI-MP2 NMR, DLPNO-MP2 response
   Willem Van den Heuvel  : Paramagnetic NMR
   Boris Wezisla          : Elementary symmetry handling
   Frank Wennmohs         : Technical directorship


 We gratefully acknowledge several colleagues who have allowed us to
 interface, adapt or use parts of their codes:
   Stefan Grimme, W. Hujo, H. Kruse, P. Pracht,  : VdW corrections, initial TS optimization,
                  C. Bannwarth, S. Ehlert          DFT functionals, gCP, sTDA/sTD-DF
   Ed Valeev, F. Pavosevic, A. Kumar             : LibInt (2-el integral package), F12 methods
   Garnet Chan, S. Sharma, J. Yang, R. Olivares  : DMRG
   Ulf Ekstrom                                   : XCFun DFT Library
   Mihaly Kallay                                 : mrcc  (arbitrary order and MRCC methods)
   Jiri Pittner, Ondrej Demel                    : Mk-CCSD
   Frank Weinhold                                : gennbo (NPA and NBO analysis)
   Christopher J. Cramer and Donald G. Truhlar   : smd solvation model
   Lars Goerigk                                  : TD-DFT with DH, B97 family of functionals
   V. Asgeirsson, H. Jonsson                     : NEB implementation
   FAccTs GmbH                                   : IRC, NEB, NEB-TS, DLPNO-Multilevel, CI-OPT
                                                   MM, QMMM, 2- and 3-layer-ONIOM, Crystal-QMMM,
                                                   LR-CPCM, SF, NACMEs, symmetry and pop. for TD-DFT,
                                                   nearIR, NL-DFT gradient (VV10), updates on ESD,
                                                   ML-optimized integration grids
   S Lehtola, MJT Oliveira, MAL Marques          : LibXC Library
   Liviu Ungur et al                             : ANISO software


 Your calculation uses the libint2 library for the computation of 2-el integrals
 For citations please refer to: http://libint.valeyev.net

 Your ORCA version has been built with support for libXC version: 5.1.0
 For citations please refer to: https://tddft.org/programs/libxc/

 This ORCA versions uses:
   CBLAS   interface :  Fast vector & matrix operations
   LAPACKE interface :  Fast linear algebra routines
   SCALAPACK package :  Parallel linear algebra routines
   Shared memory     :  Shared parallel matrices
   BLAS/LAPACK       :  OpenBLAS 0.3.15  USE64BITINT DYNAMIC_ARCH NO_AFFINITY Zen SINGLE_THREADED
        Core in use  :  Zen
   Copyright (c) 2011-2014, The OpenBLAS Project


Your calculation utilizes the SMD solvation module
Please cite in your paper:
A.V. Marenich, C.J. Cramer, D.G. Truhlar J. Phys. Chem. B, 113, (2009), 6378 

================================================================================

----- Orbital basis set information -----
Your calculation utilizes the basis: def2-TZVP
   F. Weigend and R. Ahlrichs, Phys. Chem. Chem. Phys. 7, 3297 (2005).

----- AuxJ basis set information -----
Your calculation utilizes the auxiliary basis: def2/J
   F. Weigend, Phys. Chem. Chem. Phys. 8, 1057 (2006).

----- AuxC basis set information -----
Your calculation utilizes the auxiliary basis: def2-TZVP/C
  H-La, Hf-Rn : A. Hellweg, C. Hattig, S. Hofener and W. Klopper, Theor. Chem. Acc. 117, 587 (2007).
        Ce-Lu : J. Chmela and M. E. Harding, Mol. Phys. (2018).

================================================================================
                                        WARNINGS
                       Please study these warnings very carefully!
================================================================================

INFO   : Checking CIS options ...
  ===> : (D) CORRECTION FOUND - SETTING MODE=3
  ===> : JK MODE FOUND - ACTIVATING RI-MP2 CODE
  ===> : MP2 AND CIS FOUND - CHECKING
WARNING: CIS(D) and MP2 runs must have the same orbital window
  ===> : adjusting orbital windows

WARNING: No MP2 level density has been requested!
         To caclulate MP2 level properties use
         %mp2 Density relaxed end
         or
         %mp2 Density unrelaxed end
         Otherwise for double-hybrid DFT only the energy is correct!

WARNING: The frozen-core approximation is turned on by default for 
         the MP2 part of double-hybrid DFT.

WARNING:  You are using a Range-Separated Double Hybrid functional with Doubles Correction 
          Changing Mode to RPA_AOINTS 


WARNING: CIS/ROCIS methods need fully converged wavefunctions
  ===> : Setting SCFConvForced true
         You can overwrite this default with %scf ConvForced false 


INFO   : the flag for use of the SHARK integral package has been found!

================================================================================
                                       INPUT FILE
================================================================================
NAME = PTZ_1_M06L_def2TZVP_coords.inp
|  1> %maxcore 3200
|  2> %pal
|  3>  nprocs= 8
|  4> end
|  5> ! RI-wB2PLYP def2-TZVP def2/J def2-TZVP/C RIJCOSX CPCM TightSCF
|  6> %TDDFT DCORR 1
|  7>    NROOTS   30
|  8> 
|  9>    TDA      FALSE
| 10> END
| 11> 
| 12> %CPCM
| 13>    SMD          TRUE
| 14>    SMDsolvent   "N,N-DIMETHYLACETAMIDE"
| 15> END
| 16>    
| 17> 
| 18> * xyz 0 1
| 19> C                  -1.98589800   -3.51504200    0.40705300
| 20> C                  -2.31200200   -2.48851100   -0.46337400
| 21> C                  -1.54247500   -1.33041800   -0.48678600
| 22> C                  -0.44503300   -1.19499400    0.36625500
| 23> C                  -0.16507700   -2.20792500    1.27822400
| 24> C                  -0.92043200   -3.36871700    1.28559100
| 25> C                  -0.44145600    1.19547900    0.36664600
| 26> C                  -1.53847900    1.33474300   -0.48627200
| 27> C                  -2.30428000    2.49531300   -0.46230800
| 28> H                  -3.15501300    2.58856900   -1.12552100
| 29> C                  -1.97479200    3.52043000    0.40852000
| 30> C                  -0.90964500    3.37037900    1.28685000
| 31> C                  -0.15806600    2.20718300    1.27889800
| 32> H                  -3.16304600   -2.57866500   -1.12662700
| 33> H                   0.65940400   -2.08237300    1.96828700
| 34> H                  -0.68155100   -4.15715700    1.98746100
| 35> H                  -2.56561700    4.42717700    0.41647300
| 36> H                  -0.66811400    4.15786700    1.98887300
| 37> C                   1.69426700   -0.00255600    0.03223200
| 38> C                   2.40135600    1.19602700   -0.14061700
| 39> C                   3.75393700    1.18574800   -0.43602500
| 40> C                   3.75216800   -1.19487200   -0.43319400
| 41> C                   4.45068100   -0.00525400   -0.57565400
| 42> H                   4.26428400    2.13287000   -0.56325800
| 43> H                   4.26120800   -2.14300500   -0.55808500
| 44> H                   1.89362500    2.14573600   -0.06318200
| 45> H                   5.50890500   -0.00630200   -0.80086200
| 46> H                  -2.57953900   -4.41995300    0.41461000
| 47> N                   0.31932000   -0.00088800    0.31069100
| 48> H                   0.66632000    2.07877000    1.96855300
| 49> S                  -1.94327000    0.00297700   -1.57207900
| 50> C                   2.39952400   -1.20260300   -0.13774400
| 51> H                   1.89042200   -2.15141900   -0.05805500
| 52> *
| 53> 
| 54> 
| 55>                          ****END OF INPUT****
================================================================================

                       ****************************
                       * Single Point Calculation *
                       ****************************

---------------------------------
CARTESIAN COORDINATES (ANGSTROEM)
---------------------------------
  C     -1.985898   -3.515042    0.407053
  C     -2.312002   -2.488511   -0.463374
  C     -1.542475   -1.330418   -0.486786
  C     -0.445033   -1.194994    0.366255
  C     -0.165077   -2.207925    1.278224
  C     -0.920432   -3.368717    1.285591
  C     -0.441456    1.195479    0.366646
  C     -1.538479    1.334743   -0.486272
  C     -2.304280    2.495313   -0.462308
  H     -3.155013    2.588569   -1.125521
  C     -1.974792    3.520430    0.408520
  C     -0.909645    3.370379    1.286850
  C     -0.158066    2.207183    1.278898
  H     -3.163046   -2.578665   -1.126627
  H      0.659404   -2.082373    1.968287
  H     -0.681551   -4.157157    1.987461
  H     -2.565617    4.427177    0.416473
  H     -0.668114    4.157867    1.988873
  C      1.694267   -0.002556    0.032232
  C      2.401356    1.196027   -0.140617
  C      3.753937    1.185748   -0.436025
  C      3.752168   -1.194872   -0.433194
  C      4.450681   -0.005254   -0.575654
  H      4.264284    2.132870   -0.563258
  H      4.261208   -2.143005   -0.558085
  H      1.893625    2.145736   -0.063182
  H      5.508905   -0.006302   -0.800862
  H     -2.579539   -4.419953    0.414610
  N      0.319320   -0.000888    0.310691
  H      0.666320    2.078770    1.968553
  S     -1.943270    0.002977   -1.572079
  C      2.399524   -1.202603   -0.137744
  H      1.890422   -2.151419   -0.058055

----------------------------
CARTESIAN COORDINATES (A.U.)
----------------------------
  NO LB      ZA    FRAG     MASS         X           Y           Z
   0 C     6.0000    0    12.011   -3.752803   -6.642467    0.769219
   1 C     6.0000    0    12.011   -4.369051   -4.702604   -0.875650
   2 C     6.0000    0    12.011   -2.914855   -2.514126   -0.919892
   3 C     6.0000    0    12.011   -0.840990   -2.258211    0.692122
   4 C     6.0000    0    12.011   -0.311950   -4.172374    2.415493
   5 C     6.0000    0    12.011   -1.739364   -6.365953    2.429415
   6 C     6.0000    0    12.011   -0.834231    2.259128    0.692861
   7 C     6.0000    0    12.011   -2.907304    2.522299   -0.918921
   8 C     6.0000    0    12.011   -4.354458    4.715458   -0.873636
   9 H     1.0000    0     1.008   -5.962111    4.891686   -2.126926
  10 C     6.0000    0    12.011   -3.731816    6.652649    0.771991
  11 C     6.0000    0    12.011   -1.718980    6.369093    2.431794
  12 C     6.0000    0    12.011   -0.298701    4.170971    2.416767
  13 H     1.0000    0     1.008   -5.977291   -4.872971   -2.129016
  14 H     1.0000    0     1.008    1.246093   -3.935115    3.719523
  15 H     1.0000    0     1.008   -1.287945   -7.855888    3.755757
  16 H     1.0000    0     1.008   -4.848313    8.366152    0.787020
  17 H     1.0000    0     1.008   -1.262552    7.857230    3.758425
  18 C     6.0000    0    12.011    3.201701   -0.004830    0.060910
  19 C     6.0000    0    12.011    4.537905    2.260163   -0.265728
  20 C     6.0000    0    12.011    7.093913    2.240739   -0.823968
  21 C     6.0000    0    12.011    7.090570   -2.257981   -0.818618
  22 C     6.0000    0    12.011    8.410568   -0.009929   -1.087828
  23 H     1.0000    0     1.008    8.058329    4.030540   -1.064403
  24 H     1.0000    0     1.008    8.052516   -4.049693   -1.054628
  25 H     1.0000    0     1.008    3.578433    4.054853   -0.119397
  26 H     1.0000    0     1.008   10.410322   -0.011909   -1.513410
  27 H     1.0000    0     1.008   -4.874622   -8.352501    0.783499
  28 N     7.0000    0    14.007    0.603427   -0.001678    0.587121
  29 H     1.0000    0     1.008    1.259162    3.928306    3.720026
  30 S    16.0000    0    32.060   -3.672248    0.005626   -2.970799
  31 C     6.0000    0    12.011    4.534443   -2.272590   -0.260298
  32 H     1.0000    0     1.008    3.572380   -4.065593   -0.109708

--------------------------------
INTERNAL COORDINATES (ANGSTROEM)
--------------------------------
 C      0   0   0     0.000000000000     0.00000000     0.00000000
 C      1   0   0     1.384829547311     0.00000000     0.00000000
 C      2   1   0     1.390647087554   119.84025741     0.00000000
 C      3   2   1     1.396566343151   120.35177119   359.77600912
 C      4   3   2     1.391435240914   119.19942355   357.30790688
 C      5   4   3     1.384938091027   120.25881271     3.67620306
 C      4   3   2     2.390475708209    95.63811365   204.09289846
 C      7   4   3     1.396539666085    95.64965228     0.00000000
 C      8   7   4     1.390664650373   120.34905386   155.91049878
 H      9   8   7     1.082725635696   119.60423246   180.28828474
 C      9   8   7     1.384835228977   119.84023395     0.22566569
 C     11   9   8     1.388710561316   120.01513891   357.82294155
 C     12  11   9     1.384904026264   120.22319686     1.19886989
 H      2   1   3     1.082731811512   120.55739494   180.07131778
 H      5   4   3     1.082459776636   119.11976253   182.66899294
 H      6   5   4     1.082276888167   119.58165916   178.87548184
 H     11   9   8     1.082278870182   119.66458738   179.27201740
 H     12  11   9     1.082271161324   120.18636966   181.82714058
 C      7   4   3     2.471524492565    61.08812844   226.74906183
 C     19   7   4     1.402302691508    92.18278683   177.46358823
 C     20  19   7     1.384502403705   120.83467400   182.58330887
 C     21  20  19     2.380622340549    90.36925305     0.79879938
 C     22  21  20     1.386869225519    30.87734791   180.89066983
 H     21  20  19     1.083366225974   118.60586668   179.92803968
 H     22  21  20     1.083363128951   151.00813332   178.43437329
 H     20  19   7     1.079691683893   120.38889021     1.44234293
 H     23  22  21     1.081923183846   120.87589191   180.68095835
 H      1   2   3     1.082280307061   119.67042353   180.73189749
 N     19   7   4     1.402861878345    29.02940773   354.71429835
 H     13  12  11     1.082463022274   120.61637759   180.71479406
 S      8   7   4     1.765342253980   118.72049548   336.80037110
 C     22  21  20     1.384556341070    90.37606058     0.00000000
 H     32  22  21     1.079716159452   118.77053394   178.07848171

---------------------------
INTERNAL COORDINATES (A.U.)
---------------------------
 C      0   0   0     0.000000000000     0.00000000     0.00000000
 C      1   0   0     2.616948586580     0.00000000     0.00000000
 C      2   1   0     2.627942144412   119.84025741     0.00000000
 C      3   2   1     2.639127916406   120.35177119   359.77600912
 C      4   3   2     2.629431538415   119.19942355   357.30790688
 C      5   4   3     2.617153704477   120.25881271     3.67620306
 C      4   3   2     4.517344418307    95.63811365   204.09289846
 C      7   4   3     2.639077504059    95.64965228     0.00000000
 C      8   7   4     2.627975333330   120.34905386   155.91049878
 H      9   8   7     2.046054929642   119.60423246   180.28828474
 C      9   8   7     2.616959323373   119.84023395     0.22566569
 C     11   9   8     2.624282640171   120.01513891   357.82294155
 C     12  11   9     2.617089331403   120.22319686     1.19886989
 H      2   1   3     2.046066600243   120.55739494   180.07131778
 H      5   4   3     2.045552528827   119.11976253   182.66899294
 H      6   5   4     2.045206919709   119.58165916   178.87548184
 H     11   9   8     2.045210665174   119.66458738   179.27201740
 H     12  11   9     2.045196097544   120.18636966   181.82714058
 C      7   4   3     4.670504424227    61.08812844   226.74906183
 C     19   7   4     2.649968043811    92.18278683   177.46358823
 C     20  19   7     2.616330374759   120.83467400   182.58330887
 C     21  20  19     4.498724251933    90.36925305     0.79879938
 C     22  21  20     2.620803019795    30.87734791   180.89066983
 H     21  20  19     2.047265469831   118.60586668   179.92803968
 H     22  21  20     2.047259617305   151.00813332   178.43437329
 H     20  19   7     2.040321591629   120.38889021     1.44234293
 H     23  22  21     2.044538515410   120.87589191   180.68095835
 H      1   2   3     2.045213380481   119.67042353   180.73189749
 N     19   7   4     2.651024753791    29.02940773   354.71429835
 H     13  12  11     2.045558662194   120.61637759   180.71479406
 S      8   7   4     3.336013392661   118.72049548   336.80037110
 C     22  21  20     2.616432301606    90.37606058     0.00000000
 H     32  22  21     2.040367843733   118.77053394   178.07848171

---------------------
BASIS SET INFORMATION
---------------------
There are 4 groups of distinct atoms

 Group   1 Type C   : 11s6p2d1f contracted to 5s3p2d1f pattern {62111/411/11/1}
 Group   2 Type H   : 5s1p contracted to 3s1p pattern {311/1}
 Group   3 Type N   : 11s6p2d1f contracted to 5s3p2d1f pattern {62111/411/11/1}
 Group   4 Type S   : 14s9p3d1f contracted to 5s5p2d1f pattern {73211/51111/21/1}

Atom   0C    basis set group =>   1
Atom   1C    basis set group =>   1
Atom   2C    basis set group =>   1
Atom   3C    basis set group =>   1
Atom   4C    basis set group =>   1
Atom   5C    basis set group =>   1
Atom   6C    basis set group =>   1
Atom   7C    basis set group =>   1
Atom   8C    basis set group =>   1
Atom   9H    basis set group =>   2
Atom  10C    basis set group =>   1
Atom  11C    basis set group =>   1
Atom  12C    basis set group =>   1
Atom  13H    basis set group =>   2
Atom  14H    basis set group =>   2
Atom  15H    basis set group =>   2
Atom  16H    basis set group =>   2
Atom  17H    basis set group =>   2
Atom  18C    basis set group =>   1
Atom  19C    basis set group =>   1
Atom  20C    basis set group =>   1
Atom  21C    basis set group =>   1
Atom  22C    basis set group =>   1
Atom  23H    basis set group =>   2
Atom  24H    basis set group =>   2
Atom  25H    basis set group =>   2
Atom  26H    basis set group =>   2
Atom  27H    basis set group =>   2
Atom  28N    basis set group =>   3
Atom  29H    basis set group =>   2
Atom  30S    basis set group =>   4
Atom  31C    basis set group =>   1
Atom  32H    basis set group =>   2
---------------------------------
AUXILIARY/J BASIS SET INFORMATION
---------------------------------
There are 4 groups of distinct atoms

 Group   1 Type C   : 12s5p4d2f1g contracted to 6s4p3d1f1g pattern {711111/2111/211/2/1}
 Group   2 Type H   : 5s2p1d contracted to 3s1p1d pattern {311/2/1}
 Group   3 Type N   : 12s5p4d2f1g contracted to 6s4p3d1f1g pattern {711111/2111/211/2/1}
 Group   4 Type S   : 14s5p5d2f1g contracted to 8s4p3d1f1g pattern {71111111/2111/311/2/1}

Atom   0C    basis set group =>   1
Atom   1C    basis set group =>   1
Atom   2C    basis set group =>   1
Atom   3C    basis set group =>   1
Atom   4C    basis set group =>   1
Atom   5C    basis set group =>   1
Atom   6C    basis set group =>   1
Atom   7C    basis set group =>   1
Atom   8C    basis set group =>   1
Atom   9H    basis set group =>   2
Atom  10C    basis set group =>   1
Atom  11C    basis set group =>   1
Atom  12C    basis set group =>   1
Atom  13H    basis set group =>   2
Atom  14H    basis set group =>   2
Atom  15H    basis set group =>   2
Atom  16H    basis set group =>   2
Atom  17H    basis set group =>   2
Atom  18C    basis set group =>   1
Atom  19C    basis set group =>   1
Atom  20C    basis set group =>   1
Atom  21C    basis set group =>   1
Atom  22C    basis set group =>   1
Atom  23H    basis set group =>   2
Atom  24H    basis set group =>   2
Atom  25H    basis set group =>   2
Atom  26H    basis set group =>   2
Atom  27H    basis set group =>   2
Atom  28N    basis set group =>   3
Atom  29H    basis set group =>   2
Atom  30S    basis set group =>   4
Atom  31C    basis set group =>   1
Atom  32H    basis set group =>   2
---------------------------------
AUXILIARY/C BASIS SET INFORMATION
---------------------------------
There are 4 groups of distinct atoms

 Group   1 Type C   : 8s6p5d3f1g contracted to 8s6p4d3f1g pattern {11111111/111111/2111/111/1}
 Group   2 Type H   : 4s3p2d contracted to 4s2p1d pattern {1111/21/2}
 Group   3 Type N   : 8s6p5d3f1g contracted to 8s6p4d3f1g pattern {11111111/111111/2111/111/1}
 Group   4 Type S   : 10s7p7d5f2g contracted to 9s7p6d5f2g pattern {211111111/1111111/211111/11111/11}

Atom   0C    basis set group =>   1
Atom   1C    basis set group =>   1
Atom   2C    basis set group =>   1
Atom   3C    basis set group =>   1
Atom   4C    basis set group =>   1
Atom   5C    basis set group =>   1
Atom   6C    basis set group =>   1
Atom   7C    basis set group =>   1
Atom   8C    basis set group =>   1
Atom   9H    basis set group =>   2
Atom  10C    basis set group =>   1
Atom  11C    basis set group =>   1
Atom  12C    basis set group =>   1
Atom  13H    basis set group =>   2
Atom  14H    basis set group =>   2
Atom  15H    basis set group =>   2
Atom  16H    basis set group =>   2
Atom  17H    basis set group =>   2
Atom  18C    basis set group =>   1
Atom  19C    basis set group =>   1
Atom  20C    basis set group =>   1
Atom  21C    basis set group =>   1
Atom  22C    basis set group =>   1
Atom  23H    basis set group =>   2
Atom  24H    basis set group =>   2
Atom  25H    basis set group =>   2
Atom  26H    basis set group =>   2
Atom  27H    basis set group =>   2
Atom  28N    basis set group =>   3
Atom  29H    basis set group =>   2
Atom  30S    basis set group =>   4
Atom  31C    basis set group =>   1
Atom  32H    basis set group =>   2


           ************************************************************
           *        Program running with 8 parallel MPI-processes     *
           *              working on a common directory               *
           ************************************************************
------------------------------------------------------------------------------
                           ORCA GTO INTEGRAL CALCULATION
                           -- RI-GTO INTEGRALS CHOSEN --
------------------------------------------------------------------------------
------------------------------------------------------------------------------
                   ___                                                        
                  /   \      - P O W E R E D   B Y -                         
                 /     \                                                     
                 |  |  |   _    _      __       _____    __    __             
                 |  |  |  | |  | |    /  \     |  _  \  |  |  /  |          
                  \  \/   | |  | |   /    \    | | | |  |  | /  /          
                 / \  \   | |__| |  /  /\  \   | |_| |  |  |/  /          
                |  |  |   |  __  | /  /__\  \  |    /   |      \           
                |  |  |   | |  | | |   __   |  |    \   |  |\   \          
                \     /   | |  | | |  |  |  |  | |\  \  |  | \   \       
                 \___/    |_|  |_| |__|  |__|  |_| \__\ |__|  \__/        
                                                                              
                      - O R C A' S   B I G   F R I E N D -                    
                                      &                                       
                       - I N T E G R A L  F E E D E R -                       
                                                                              
 v1 FN, 2020, v2 2021                                                         
------------------------------------------------------------------------------


Reading SHARK input file PTZ_1_M06L_def2TZVP_coords.SHARKINP.tmp ... ok
----------------------
SHARK INTEGRAL PACKAGE
----------------------

Number of atoms                             ...     33
Number of basis functions                   ...    704
Number of shells                            ...    274
Maximum angular momentum                    ...      3
Integral batch strategy                     ... SHARK/LIBINT Hybrid
RI-J (if used) integral strategy            ... SPLIT-RIJ (Revised 2003 algorithm where possible)
Printlevel                                  ...      1
Contraction scheme used                     ... SEGMENTED contraction
Coulomb Range Separation                    ... NOT USED
Exchange Range Separation                   ... Long Range
   Mu parameter                             ...  0.300000
   Scaling (regular/separated)              ...  0.530000  0.470000
Finite Nucleus Model                        ... NOT USED
Auxiliary Coulomb fitting basis             ... AVAILABLE
   # of basis functions in Aux-J            ...   1125
   # of shells in Aux-J                     ...    367
   Maximum angular momentum in Aux-J        ...      4
Auxiliary J/K fitting basis                 ... NOT available
Auxiliary Correlation fitting basis         ... AVAILABLE
   # of basis functions in Aux-C            ...   1752
   # of shells in Aux-C                     ...    538
   Maximum angular momentum in Aux-C        ...      4
Auxiliary 'external' fitting basis          ... NOT available
Integral threshold                          ...     2.500000e-11
Primitive cut-off                           ...     2.500000e-12
Primitive pair pre-selection threshold      ...     2.500000e-12

Calculating pre-screening integrals         ... done (  0.1 sec) Dimension = 274
Organizing shell pair data                  ... done (  0.2 sec)
Shell pair information
Total number of shell pairs                 ...     37675
Shell pairs after pre-screening             ...     28934
Total number of primitive shell pairs       ...    118348
Primitive shell pairs kept                  ...     61078
          la=0 lb=0:   7049 shell pairs
          la=1 lb=0:   8209 shell pairs
          la=1 lb=1:   2396 shell pairs
          la=2 lb=0:   4224 shell pairs
          la=2 lb=1:   2475 shell pairs
          la=2 lb=2:    671 shell pairs
          la=3 lb=0:   1961 shell pairs
          la=3 lb=1:   1172 shell pairs
          la=3 lb=2:    620 shell pairs
          la=3 lb=3:    157 shell pairs

Calculating one electron integrals          ... done (  0.0 sec)
Calculating RI/J V-Matrix + Cholesky decomp.... done (  0.0 sec)
Calculating RI/C V-Matrix + Cholesky decomp.... done (  0.1 sec)
Calculating Nuclear repulsion               ... done (  0.0 sec) ENN=   1568.655499052253 Eh

SHARK setup successfully completed in   0.8 seconds

Maximum memory used throughout the entire GTOINT-calculation: 46.8 MB


           ************************************************************
           *        Program running with 8 parallel MPI-processes     *
           *              working on a common directory               *
           ************************************************************
-------------------------------------------------------------------------------
                                 ORCA SCF
-------------------------------------------------------------------------------

------------
SCF SETTINGS
------------
Hamiltonian:
 Density Functional     Method          .... DFT(GTOs)
 Exchange Functional    Exchange        .... WB88
 Correlation Functional Correlation     .... LYP
 LDA part of GGA corr.  LDAOpt          .... VWN-3
 Gradients option       PostSCFGGA      .... off
 Hybrid DFT is turned on
   Fraction HF Exchange ScalHFX         ....  0.530000
   Scaling of DF-GGA-X  ScalDFX         ....  0.000000
   Scaling of DF-GGA-C  ScalDFC         ....  0.730000
   Scaling of DF-LDA-C  ScalLDAC        ....  0.730000
   Perturbative correction              ....  0.270000
   Density functional embedding theory  .... OFF
 Long-range corrected/Screened/Range-Separated Hybrid DFT is turned on
   Amount of maximum screened exact exchange              ....  0.470000
   Range separation parameter mu (erf(mu*r12)/r12)        ....  0.300000
 RI-approximation to the Coulomb term is turned on
   Number of AuxJ basis functions       .... 1125
   RIJ-COSX (HFX calculated with COS-X)).... on


General Settings:
 Integral files         IntName         .... PTZ_1_M06L_def2TZVP_coords
 Hartree-Fock type      HFTyp           .... RHF
 Total Charge           Charge          ....    0
 Multiplicity           Mult            ....    1
 Number of Electrons    NEL             ....  144
 Basis Dimension        Dim             ....  704
 Nuclear Repulsion      ENuc            ....   1568.6554990523 Eh

Convergence Acceleration:
 DIIS                   CNVDIIS         .... on
   Start iteration      DIISMaxIt       ....    12
   Startup error        DIISStart       ....  0.200000
   # of expansion vecs  DIISMaxEq       ....     5
   Bias factor          DIISBfac        ....   1.050
   Max. coefficient     DIISMaxC        ....  10.000
 Trust-Rad. Augm. Hess. CNVTRAH         .... auto
   Auto Start mean grad. ratio tolernc. ....  1.125000
   Auto Start start iteration           ....    20
   Auto Start num. interpolation iter.  ....    10
   Max. Number of Micro iterations      ....    16
   Max. Number of Macro iterations      .... Maxiter - #DIIS iter
   Number of Davidson start vectors     ....     2
   Converg. threshold I  (grad. norm)   ....   1.000e-05
   Converg. threshold II (energy diff.) ....   1.000e-08
   Grad. Scal. Fac. for Micro threshold ....   0.100
   Minimum threshold for Micro iter.    ....   0.010
   NR start threshold (gradient norm)   ....   0.001
   Initial trust radius                 ....   0.400
   Minimum AH scaling param. (alpha)    ....   1.000
   Maximum AH scaling param. (alpha)    .... 1000.000
   Orbital update algorithm             .... Taylor
   White noise on init. David. guess    .... on
   Maximum white noise                  ....   0.010
   Quad. conv. algorithm                .... NR
 SOSCF                  CNVSOSCF        .... on
   Start iteration      SOSCFMaxIt      ....   150
   Startup grad/error   SOSCFStart      ....  0.003300
 Level Shifting         CNVShift        .... on
   Level shift para.    LevelShift      ....    0.2500
   Turn off err/grad.   ShiftErr        ....    0.0010
 Zerner damping         CNVZerner       .... off
 Static damping         CNVDamp         .... on
   Fraction old density DampFac         ....    0.7000
   Max. Damping (<1)    DampMax         ....    0.9800
   Min. Damping (>=0)   DampMin         ....    0.0000
   Turn off err/grad.   DampErr         ....    0.1000
 Fernandez-Rico         CNVRico         .... off

SCF Procedure:
 Maximum # iterations   MaxIter         ....   125
 SCF integral mode      SCFMode         .... Direct
   Integral package                     .... SHARK and LIBINT hybrid scheme
 Reset frequency        DirectResetFreq ....    20
 Integral Threshold     Thresh          ....  2.500e-11 Eh
 Primitive CutOff       TCut            ....  2.500e-12 Eh

Convergence Tolerance:
 Convergence Check Mode ConvCheckMode   .... Total+1el-Energy
 Convergence forced     ConvForced      .... 1
 Energy Change          TolE            ....  1.000e-08 Eh
 1-El. energy change                    ....  1.000e-05 Eh
 Orbital Gradient       TolG            ....  1.000e-05
 Orbital Rotation angle TolX            ....  1.000e-05
 DIIS Error             TolErr          ....  5.000e-07


Diagonalization of the overlap matrix:
Smallest eigenvalue                        ... 5.454e-06
Time for diagonalization                   ...    0.081 sec
Threshold for overlap eigenvalues          ... 1.000e-08
Number of eigenvalues below threshold      ... 0
Time for construction of square roots      ...    0.067 sec
Total time needed                          ...    0.150 sec

Time for model grid setup =    0.167 sec

------------------------------
INITIAL GUESS: MODEL POTENTIAL
------------------------------
Loading Hartree-Fock densities                     ... done
Calculating cut-offs                               ... done
Initializing the effective Hamiltonian             ... done
Setting up the integral package (SHARK)            ... done
Starting the Coulomb interaction                   ... done (   0.3 sec)
Reading the grid                                   ... done
Mapping shells                                     ... done
Starting the XC term evaluation                    ... done (   0.2 sec)
  promolecular density results
     # of electrons  =    144.016232153
     EX              =   -127.442856472
     EC              =     -1.689065744
     EX+EC           =   -129.131922216
Transforming the Hamiltonian                       ... done (   0.0 sec)
Diagonalizing the Hamiltonian                      ... done (   0.1 sec)
Back transforming the eigenvectors                 ... done (   0.0 sec)
Now organizing SCF variables                       ... done
                      ------------------
                      INITIAL GUESS DONE (   0.7 sec)
                      ------------------
-------------------
DFT GRID GENERATION
-------------------

General Integration Accuracy     IntAcc      ... 4.388
Radial Grid Type                 RadialGrid  ... OptM3 with GC (2021)
Angular Grid (max. ang.)         AngularGrid ... 4 (Lebedev-302)
Angular grid pruning method      GridPruning ... 4 (adaptive)
Weight generation scheme         WeightScheme... Becke
Basis function cutoff            BFCut       ... 1.0000e-11
Integration weight cutoff        WCut        ... 1.0000e-14
Angular grids for H and He will be reduced by one unit
Partially contracted basis set               ... off
Rotationally invariant grid construction     ... off

Total number of grid points                  ...   162079
Total number of batches                      ...     2547
Average number of points per batch           ...       63
Average number of grid points per atom       ...     4911
Time for grid setup =    0.790 sec

--------------------
COSX GRID GENERATION
--------------------

GRIDX 1
-------
General Integration Accuracy     IntAcc      ... 3.816
Radial Grid Type                 RadialGrid  ... OptM3 with GC (2021)
Angular Grid (max. ang.)         AngularGrid ... 1 (Lebedev-50)
Angular grid pruning method      GridPruning ... 4 (adaptive)
Weight generation scheme         WeightScheme... Becke
Basis function cutoff            BFCut       ... 1.0000e-11
Integration weight cutoff        WCut        ... 1.0000e-14
Angular grids for H and He will be reduced by one unit
Partially contracted basis set               ... on
Rotationally invariant grid construction     ... off

Total number of grid points                  ...    20534
Total number of batches                      ...      331
Average number of points per batch           ...       62
Average number of grid points per atom       ...      622
UseSFitting                                  ... on

GRIDX 2
-------
General Integration Accuracy     IntAcc      ... 4.020
Radial Grid Type                 RadialGrid  ... OptM3 with GC (2021)
Angular Grid (max. ang.)         AngularGrid ... 2 (Lebedev-110)
Angular grid pruning method      GridPruning ... 4 (adaptive)
Weight generation scheme         WeightScheme... Becke
Basis function cutoff            BFCut       ... 1.0000e-11
Integration weight cutoff        WCut        ... 1.0000e-14
Angular grids for H and He will be reduced by one unit
Partially contracted basis set               ... on
Rotationally invariant grid construction     ... off

Total number of grid points                  ...    44938
Total number of batches                      ...      720
Average number of points per batch           ...       62
Average number of grid points per atom       ...     1362
UseSFitting                                  ... on

GRIDX 3
-------
General Integration Accuracy     IntAcc      ... 4.338
Radial Grid Type                 RadialGrid  ... OptM3 with GC (2021)
Angular Grid (max. ang.)         AngularGrid ... 3 (Lebedev-194)
Angular grid pruning method      GridPruning ... 4 (adaptive)
Weight generation scheme         WeightScheme... Becke
Basis function cutoff            BFCut       ... 1.0000e-11
Integration weight cutoff        WCut        ... 1.0000e-14
Angular grids for H and He will be reduced by one unit
Partially contracted basis set               ... on
Rotationally invariant grid construction     ... off

Total number of grid points                  ...    98915
Total number of batches                      ...     1560
Average number of points per batch           ...       63
Average number of grid points per atom       ...     2997
UseSFitting                                  ... on

Time for X-Grid setup             =    0.920 sec


--------------------
CPCM SOLVATION MODEL
--------------------
CPCM parameters:
  Epsilon                                         ...      37.7810
  Refrac                                          ...       1.4380
  Rsolv                                           ...       1.3000
  Surface type                                    ... GAUSSIAN VDW
  Epsilon function type                           ...         CPCM
Solvent:                                     ... N,N-DIMETHYLACETAMIDE
SMD-CDS solvent descriptors:
  Soln                                       ...    1.4380
  Soln25                                     ...    1.4358
  Sola                                       ...    0.0000
  Solb                                       ...    0.7800
  Solg                                       ...   47.6200
  Solc                                       ...    0.0000
  Solh                                       ...    0.0000
Radii:
 Radius for C  used is    3.4960 Bohr (=   1.8500 Ang.)
 Radius for H  used is    2.2677 Bohr (=   1.2000 Ang.)
 Radius for N  used is    3.5716 Bohr (=   1.8900 Ang.)
 Radius for S  used is    4.7054 Bohr (=   2.4900 Ang.)
Calculating surface                               ...        done! (  0.0s)
GEPOL surface points                              ...         1796
GEPOL Volume                                      ...    1937.0920
GEPOL Surface-area                                ...    1015.9266
Calculating surface distance matrix               ...        done! (  0.0s)
Performing Cholesky decomposition & store         ...        done! (  0.1s)
Overall time for CPCM initialization              ...                 0.1s
--------------
SCF ITERATIONS
--------------
ITER       Energy         Delta-E        Max-DP      RMS-DP      [F,P]     Damp
               ***  Starting incremental Fock matrix formation  ***
  0  -1143.7433736763   0.000000000000 0.04270981  0.00074650  0.1569080 0.7000
  1  -1143.9404532439  -0.197079567551 0.03544888  0.00062272  0.1038138 0.7000
                               ***Turning on DIIS***
  2  -1144.0560999047  -0.115646660856 0.08308084  0.00145075  0.0621912 0.0000
  3  -1144.2679821410  -0.211882236254 0.03216883  0.00030329  0.0316320 0.0000
  4  -1144.2861837338  -0.018201592781 0.01494305  0.00019542  0.0065331 0.0000
                      *** Initiating the SOSCF procedure ***
                           *** Shutting down DIIS ***
                      *** Re-Reading the Fockian *** 
                      *** Removing any level shift *** 
ITER      Energy       Delta-E        Grad      Rot      Max-DP    RMS-DP
  5  -1144.28704861  -0.0008648794  0.002909  0.002909  0.007184  0.000115
               *** Restarting incremental Fock matrix formation ***
  6  -1144.28714331  -0.0000946994  0.001886  0.004837  0.006968  0.000112
  7  -1144.28722888  -0.0000855637  0.000747  0.004547  0.005917  0.000096
  8  -1144.28724965  -0.0000207718  0.000237  0.000612  0.002683  0.000034
  9  -1144.28725494  -0.0000052968  0.000054  0.000142  0.000399  0.000005
 10  -1144.28725521  -0.0000002646  0.000029  0.000116  0.000121  0.000002
 11  -1144.28725529  -0.0000000814  0.000011  0.000072  0.000163  0.000002
 12  -1144.28725529  -0.0000000012  0.000003  0.000015  0.000141  0.000001
                  ***Gradient check signals convergence***
              ***Rediagonalizing the Fockian in SOSCF/NRSCF***

               *****************************************************
               *                     SUCCESS                       *
               *           SCF CONVERGED AFTER  13 CYCLES          *
               *****************************************************

Old exchange energy                            =    -79.388838015 Eh
New exchange energy                            =    -79.388957316 Eh
Exchange energy change after final integration =     -0.000119301 Eh
Total energy after final integration           =  -1144.287374623 Eh
Final COS-X integration done in                =    30.460 sec

SMD CDS free energy correction energy :                -3.45220     Kcal/mol
Total Energy after SMD CDS correction =             -1144.292876054 Eh

----------------
TOTAL SCF ENERGY
----------------

Total Energy       :        -1144.29287605 Eh          -31137.79217 eV

Components:
Nuclear Repulsion  :         1568.65549905 Eh           42685.28621 eV
Electronic Energy  :        -2712.94837511 Eh          -73823.07838 eV
One Electron Energy:        -4678.46126620 Eh         -127307.40324 eV
Two Electron Energy:         1965.51289109 Eh           53484.32486 eV
Max COSX asymmetry :            0.00000775 Eh               0.00021 eV
CPCM Dielectric    :           -0.01814206 Eh              -0.49367 eV
SMD CDS (Gcds)     :           -0.00550143 Eh              -0.14970 eV

Virial components:
Potential Energy   :        -2285.68851463 Eh          -62196.74650 eV
Kinetic Energy     :         1141.39563858 Eh           31058.95433 eV
Virial Ratio       :            2.00253833


DFT components:
N(Alpha)           :       71.999977877372 electrons
N(Beta)            :       71.999977877372 electrons
N(Total)           :      143.999955754744 electrons
E(X)               :      -49.638987787047 Eh       
E(C)               :       -3.662881454303 Eh       
E(XC)              :      -53.301869241350 Eh       
DFET-embed. en.    :        0.000000000000 Eh       
CPCM Solvation Model Properties:
Surface-charge          :           -0.05914632
Charge-correction       :            0.00024829 Eh               0.00676 eV
Free-energy (cav+disp)  :           -0.00550143 Eh              -0.14970 eV

---------------
SCF CONVERGENCE
---------------

  Last Energy change         ...   -3.0313e-08  Tolerance :   1.0000e-08
  Last MAX-Density change    ...    3.1086e-15  Tolerance :   1.0000e-07
  Last RMS-Density change    ...    1.4063e-17  Tolerance :   5.0000e-09
  Last Orbital Gradient      ...    1.9069e-06  Tolerance :   1.0000e-05
  Last Orbital Rotation      ...    5.5751e-06  Tolerance :   1.0000e-05

             **** THE GBW FILE WAS UPDATED (PTZ_1_M06L_def2TZVP_coords.gbw) ****
             **** DENSITY PTZ_1_M06L_def2TZVP_coords.scfp WAS UPDATED ****
             **** ENERGY FILE WAS UPDATED (PTZ_1_M06L_def2TZVP_coords.en.tmp) ****
             **** THE GBW FILE WAS UPDATED (PTZ_1_M06L_def2TZVP_coords.gbw) ****
             **** DENSITY PTZ_1_M06L_def2TZVP_coords.scfp WAS UPDATED ****
----------------
ORBITAL ENERGIES
----------------

  NO   OCC          E(Eh)            E(eV) 
   0   2.0000     -90.239768     -2455.5489 
   1   2.0000     -14.942270      -406.5998 
   2   2.0000     -10.743084      -292.3342 
   3   2.0000     -10.739187      -292.2281 
   4   2.0000     -10.739159      -292.2274 
   5   2.0000     -10.727451      -291.9088 
   6   2.0000     -10.727439      -291.9085 
   7   2.0000     -10.696582      -291.0688 
   8   2.0000     -10.696581      -291.0688 
   9   2.0000     -10.693153      -290.9755 
  10   2.0000     -10.693139      -290.9751 
  11   2.0000     -10.691330      -290.9259 
  12   2.0000     -10.691326      -290.9258 
  13   2.0000     -10.690306      -290.8980 
  14   2.0000     -10.690306      -290.8980 
  15   2.0000     -10.686751      -290.8013 
  16   2.0000     -10.686733      -290.8008 
  17   2.0000     -10.680035      -290.6185 
  18   2.0000     -10.680013      -290.6179 
  19   2.0000     -10.675063      -290.4832 
  20   2.0000      -8.450702      -229.9553 
  21   2.0000      -6.297389      -171.3607 
  22   2.0000      -6.294832      -171.2911 
  23   2.0000      -6.291762      -171.2075 
  24   2.0000      -1.197491       -32.5854 
  25   2.0000      -1.082009       -29.4430 
  26   2.0000      -1.079171       -29.3657 
  27   2.0000      -1.051510       -28.6130 
  28   2.0000      -1.007500       -27.4155 
  29   2.0000      -0.962162       -26.1818 
  30   2.0000      -0.951927       -25.9032 
  31   2.0000      -0.949574       -25.8392 
  32   2.0000      -0.936814       -25.4920 
  33   2.0000      -0.914268       -24.8785 
  34   2.0000      -0.868114       -23.6226 
  35   2.0000      -0.807083       -21.9618 
  36   2.0000      -0.805348       -21.9146 
  37   2.0000      -0.775806       -21.1108 
  38   2.0000      -0.765467       -20.8294 
  39   2.0000      -0.762915       -20.7600 
  40   2.0000      -0.726600       -19.7718 
  41   2.0000      -0.691645       -18.8206 
  42   2.0000      -0.691383       -18.8135 
  43   2.0000      -0.648084       -17.6353 
  44   2.0000      -0.629907       -17.1407 
  45   2.0000      -0.628955       -17.1147 
  46   2.0000      -0.612942       -16.6790 
  47   2.0000      -0.607260       -16.5244 
  48   2.0000      -0.591032       -16.0828 
  49   2.0000      -0.584196       -15.8968 
  50   2.0000      -0.582134       -15.8407 
  51   2.0000      -0.566623       -15.4186 
  52   2.0000      -0.559441       -15.2232 
  53   2.0000      -0.555044       -15.1035 
  54   2.0000      -0.545070       -14.8321 
  55   2.0000      -0.528885       -14.3917 
  56   2.0000      -0.511229       -13.9113 
  57   2.0000      -0.507900       -13.8207 
  58   2.0000      -0.505512       -13.7557 
  59   2.0000      -0.490508       -13.3474 
  60   2.0000      -0.484015       -13.1707 
  61   2.0000      -0.472717       -12.8633 
  62   2.0000      -0.461382       -12.5548 
  63   2.0000      -0.460846       -12.5403 
  64   2.0000      -0.440770       -11.9940 
  65   2.0000      -0.415947       -11.3185 
  66   2.0000      -0.362564        -9.8659 
  67   2.0000      -0.360808        -9.8181 
  68   2.0000      -0.352540        -9.5931 
  69   2.0000      -0.349085        -9.4991 
  70   2.0000      -0.316846        -8.6218 
  71   2.0000      -0.287887        -7.8338 
  72   0.0000       0.067021         1.8237 
  73   0.0000       0.073373         1.9966 
  74   0.0000       0.075073         2.0428 
  75   0.0000       0.076135         2.0717 
  76   0.0000       0.098284         2.6744 
  77   0.0000       0.108471         2.9517 
  78   0.0000       0.125212         3.4072 
  79   0.0000       0.135686         3.6922 
  80   0.0000       0.146801         3.9947 
  81   0.0000       0.156448         4.2572 
  82   0.0000       0.157606         4.2887 
  83   0.0000       0.158712         4.3188 
  84   0.0000       0.166911         4.5419 
  85   0.0000       0.177562         4.8317 
  86   0.0000       0.180682         4.9166 
  87   0.0000       0.190287         5.1780 
  88   0.0000       0.192186         5.2297 
  89   0.0000       0.197076         5.3627 
  90   0.0000       0.209981         5.7139 
  91   0.0000       0.210664         5.7325 
  92   0.0000       0.214168         5.8278 
  93   0.0000       0.216388         5.8882 
  94   0.0000       0.228699         6.2232 
  95   0.0000       0.243394         6.6231 
  96   0.0000       0.256224         6.9722 
  97   0.0000       0.258700         7.0396 
  98   0.0000       0.263312         7.1651 
  99   0.0000       0.265116         7.2142 
 100   0.0000       0.274728         7.4757 
 101   0.0000       0.280395         7.6299 
 102   0.0000       0.286788         7.8039 
 103   0.0000       0.291865         7.9421 
 104   0.0000       0.297956         8.1078 
 105   0.0000       0.302484         8.2310 
 106   0.0000       0.304561         8.2875 
 107   0.0000       0.308703         8.4002 
 108   0.0000       0.315245         8.5783 
 109   0.0000       0.317243         8.6326 
 110   0.0000       0.323143         8.7932 
 111   0.0000       0.325177         8.8485 
 112   0.0000       0.330192         8.9850 
 113   0.0000       0.334544         9.1034 
 114   0.0000       0.342184         9.3113 
 115   0.0000       0.349329         9.5057 
 116   0.0000       0.353155         9.6098 
 117   0.0000       0.361619         9.8402 
 118   0.0000       0.362125         9.8539 
 119   0.0000       0.372334        10.1317 
 120   0.0000       0.372860        10.1460 
 121   0.0000       0.386365        10.5135 
 122   0.0000       0.386765        10.5244 
 123   0.0000       0.394212        10.7271 
 124   0.0000       0.402368        10.9490 
 125   0.0000       0.405031        11.0215 
 126   0.0000       0.407234        11.0814 
 127   0.0000       0.414206        11.2711 
 128   0.0000       0.422732        11.5031 
 129   0.0000       0.425890        11.5890 
 130   0.0000       0.426354        11.6017 
 131   0.0000       0.436542        11.8789 
 132   0.0000       0.443054        12.0561 
 133   0.0000       0.444404        12.0928 
 134   0.0000       0.449476        12.2309 
 135   0.0000       0.450570        12.2606 
 136   0.0000       0.461318        12.5531 
 137   0.0000       0.466619        12.6974 
 138   0.0000       0.471897        12.8410 
 139   0.0000       0.480311        13.0699 
 140   0.0000       0.484236        13.1767 
 141   0.0000       0.485453        13.2099 
 142   0.0000       0.496828        13.5194 
 143   0.0000       0.497034        13.5250 
 144   0.0000       0.505930        13.7671 
 145   0.0000       0.507121        13.7995 
 146   0.0000       0.512573        13.9478 
 147   0.0000       0.515278        14.0214 
 148   0.0000       0.515420        14.0253 
 149   0.0000       0.523893        14.2559 
 150   0.0000       0.525465        14.2986 
 151   0.0000       0.533575        14.5193 
 152   0.0000       0.535603        14.5745 
 153   0.0000       0.538991        14.6667 
 154   0.0000       0.546130        14.8609 
 155   0.0000       0.550164        14.9707 
 156   0.0000       0.556071        15.1315 
 157   0.0000       0.559378        15.2215 
 158   0.0000       0.563209        15.3257 
 159   0.0000       0.570240        15.5170 
 160   0.0000       0.572250        15.5717 
 161   0.0000       0.574816        15.6415 
 162   0.0000       0.578891        15.7524 
 163   0.0000       0.589597        16.0438 
 164   0.0000       0.593289        16.1442 
 165   0.0000       0.596517        16.2321 
 166   0.0000       0.597484        16.2584 
 167   0.0000       0.603201        16.4139 
 168   0.0000       0.611570        16.6417 
 169   0.0000       0.612982        16.6801 
 170   0.0000       0.616764        16.7830 
 171   0.0000       0.628485        17.1020 
 172   0.0000       0.640926        17.4405 
 173   0.0000       0.647593        17.6219 
 174   0.0000       0.648342        17.6423 
 175   0.0000       0.659436        17.9442 
 176   0.0000       0.667188        18.1551 
 177   0.0000       0.673797        18.3349 
 178   0.0000       0.683375        18.5956 
 179   0.0000       0.685403        18.6508 
 180   0.0000       0.692244        18.8369 
 181   0.0000       0.699813        19.0429 
 182   0.0000       0.705390        19.1946 
 183   0.0000       0.722060        19.6482 
 184   0.0000       0.735350        20.0099 
 185   0.0000       0.735701        20.0195 
 186   0.0000       0.741020        20.1642 
 187   0.0000       0.749436        20.3932 
 188   0.0000       0.771155        20.9842 
 189   0.0000       0.774772        21.0826 
 190   0.0000       0.783706        21.3257 
 191   0.0000       0.784327        21.3426 
 192   0.0000       0.800728        21.7889 
 193   0.0000       0.808528        22.0012 
 194   0.0000       0.811695        22.0874 
 195   0.0000       0.814219        22.1560 
 196   0.0000       0.825805        22.4713 
 197   0.0000       0.826212        22.4824 
 198   0.0000       0.832669        22.6581 
 199   0.0000       0.840257        22.8646 
 200   0.0000       0.846110        23.0238 
 201   0.0000       0.847703        23.0672 
 202   0.0000       0.851849        23.1800 
 203   0.0000       0.863831        23.5060 
 204   0.0000       0.864215        23.5165 
 205   0.0000       0.868966        23.6458 
 206   0.0000       0.873511        23.7695 
 207   0.0000       0.878476        23.9046 
 208   0.0000       0.892240        24.2791 
 209   0.0000       0.894270        24.3343 
 210   0.0000       0.896106        24.3843 
 211   0.0000       0.910276        24.7699 
 212   0.0000       0.921709        25.0810 
 213   0.0000       0.926457        25.2102 
 214   0.0000       0.931040        25.3349 
 215   0.0000       0.933085        25.3905 
 216   0.0000       0.944008        25.6878 
 217   0.0000       0.972190        26.4546 
 218   0.0000       0.975500        26.5447 
 219   0.0000       0.978515        26.6267 
 220   0.0000       0.981601        26.7107 
 221   0.0000       0.985564        26.8186 
 222   0.0000       0.994266        27.0553 
 223   0.0000       1.004992        27.3472 
 224   0.0000       1.007388        27.4124 
 225   0.0000       1.013185        27.5702 
 226   0.0000       1.017810        27.6960 
 227   0.0000       1.022812        27.8321 
 228   0.0000       1.023531        27.8517 
 229   0.0000       1.030977        28.0543 
 230   0.0000       1.039750        28.2930 
 231   0.0000       1.049494        28.5582 
 232   0.0000       1.056290        28.7431 
 233   0.0000       1.058624        28.8066 
 234   0.0000       1.073341        29.2071 
 235   0.0000       1.086810        29.5736 
 236   0.0000       1.088952        29.6319 
 237   0.0000       1.095371        29.8066 
 238   0.0000       1.114082        30.3157 
 239   0.0000       1.115527        30.3550 
 240   0.0000       1.135225        30.8910 
 241   0.0000       1.148555        31.2538 
 242   0.0000       1.156357        31.4661 
 243   0.0000       1.162884        31.6437 
 244   0.0000       1.167505        31.7694 
 245   0.0000       1.185987        32.2723 
 246   0.0000       1.191222        32.4148 
 247   0.0000       1.202847        32.7311 
 248   0.0000       1.211450        32.9652 
 249   0.0000       1.223028        33.2803 
 250   0.0000       1.226757        33.3818 
 251   0.0000       1.234636        33.5962 
 252   0.0000       1.249122        33.9903 
 253   0.0000       1.264179        34.4001 
 254   0.0000       1.273831        34.6627 
 255   0.0000       1.285334        34.9757 
 256   0.0000       1.286638        35.0112 
 257   0.0000       1.294530        35.2260 
 258   0.0000       1.295552        35.2538 
 259   0.0000       1.318249        35.8714 
 260   0.0000       1.326072        36.0842 
 261   0.0000       1.334445        36.3121 
 262   0.0000       1.344701        36.5912 
 263   0.0000       1.352153        36.7940 
 264   0.0000       1.367379        37.2083 
 265   0.0000       1.370685        37.2982 
 266   0.0000       1.376233        37.4492 
 267   0.0000       1.377749        37.4905 
 268   0.0000       1.394031        37.9335 
 269   0.0000       1.403445        38.1897 
 270   0.0000       1.404769        38.2257 
 271   0.0000       1.409734        38.3608 
 272   0.0000       1.411949        38.4211 
 273   0.0000       1.426417        38.8148 
 274   0.0000       1.440251        39.1912 
 275   0.0000       1.444248        39.3000 
 276   0.0000       1.447191        39.3801 
 277   0.0000       1.457417        39.6583 
 278   0.0000       1.462543        39.7978 
 279   0.0000       1.468626        39.9633 
 280   0.0000       1.493470        40.6394 
 281   0.0000       1.494256        40.6608 
 282   0.0000       1.494892        40.6781 
 283   0.0000       1.515861        41.2487 
 284   0.0000       1.520662        41.3793 
 285   0.0000       1.536270        41.8040 
 286   0.0000       1.549901        42.1750 
 287   0.0000       1.558356        42.4050 
 288   0.0000       1.567612        42.6569 
 289   0.0000       1.591048        43.2946 
 290   0.0000       1.592738        43.3406 
 291   0.0000       1.594982        43.4017 
 292   0.0000       1.598211        43.4895 
 293   0.0000       1.614371        43.9293 
 294   0.0000       1.624443        44.2033 
 295   0.0000       1.631090        44.3842 
 296   0.0000       1.634254        44.4703 
 297   0.0000       1.638863        44.5957 
 298   0.0000       1.653070        44.9823 
 299   0.0000       1.655058        45.0364 
 300   0.0000       1.659896        45.1681 
 301   0.0000       1.667462        45.3739 
 302   0.0000       1.673906        45.5493 
 303   0.0000       1.686307        45.8867 
 304   0.0000       1.693945        46.0946 
 305   0.0000       1.700868        46.2830 
 306   0.0000       1.703802        46.3628 
 307   0.0000       1.724987        46.9393 
 308   0.0000       1.730291        47.0836 
 309   0.0000       1.736911        47.2638 
 310   0.0000       1.745670        47.5021 
 311   0.0000       1.750000        47.6199 
 312   0.0000       1.757484        47.8236 
 313   0.0000       1.765727        48.0479 
 314   0.0000       1.775142        48.3041 
 315   0.0000       1.780090        48.4387 
 316   0.0000       1.786732        48.6195 
 317   0.0000       1.790230        48.7146 
 318   0.0000       1.801793        49.0293 
 319   0.0000       1.807591        49.1870 
 320   0.0000       1.812037        49.3080 
 321   0.0000       1.822548        49.5940 
 322   0.0000       1.827873        49.7390 
 323   0.0000       1.843077        50.1527 
 324   0.0000       1.844351        50.1873 
 325   0.0000       1.852227        50.4017 
 326   0.0000       1.856450        50.5166 
 327   0.0000       1.862959        50.6937 
 328   0.0000       1.872659        50.9576 
 329   0.0000       1.882738        51.2319 
 330   0.0000       1.892236        51.4904 
 331   0.0000       1.900449        51.7138 
 332   0.0000       1.903939        51.8088 
 333   0.0000       1.910391        51.9844 
 334   0.0000       1.916687        52.1557 
 335   0.0000       1.917926        52.1894 
 336   0.0000       1.926271        52.4165 
 337   0.0000       1.940109        52.7930 
 338   0.0000       1.948229        53.0140 
 339   0.0000       1.958178        53.2847 
 340   0.0000       1.968725        53.5717 
 341   0.0000       1.982168        53.9375 
 342   0.0000       1.985465        54.0273 
 343   0.0000       2.003203        54.5099 
 344   0.0000       2.005455        54.5712 
 345   0.0000       2.017581        54.9012 
 346   0.0000       2.022575        55.0371 
 347   0.0000       2.050767        55.8042 
 348   0.0000       2.056246        55.9533 
 349   0.0000       2.065020        56.1920 
 350   0.0000       2.074942        56.4620 
 351   0.0000       2.077036        56.5190 
 352   0.0000       2.087650        56.8078 
 353   0.0000       2.096855        57.0583 
 354   0.0000       2.115883        57.5761 
 355   0.0000       2.122873        57.7663 
 356   0.0000       2.130436        57.9721 
 357   0.0000       2.141284        58.2673 
 358   0.0000       2.146514        58.4096 
 359   0.0000       2.152604        58.5753 
 360   0.0000       2.176553        59.2270 
 361   0.0000       2.192496        59.6608 
 362   0.0000       2.202854        59.9427 
 363   0.0000       2.207033        60.0564 
 364   0.0000       2.210373        60.1473 
 365   0.0000       2.231771        60.7296 
 366   0.0000       2.239084        60.9286 
 367   0.0000       2.256874        61.4127 
 368   0.0000       2.258590        61.4593 
 369   0.0000       2.264858        61.6299 
 370   0.0000       2.270141        61.7737 
 371   0.0000       2.288427        62.2713 
 372   0.0000       2.292974        62.3950 
 373   0.0000       2.302122        62.6439 
 374   0.0000       2.308339        62.8131 
 375   0.0000       2.327699        63.3399 
 376   0.0000       2.341648        63.7195 
 377   0.0000       2.343834        63.7790 
 378   0.0000       2.365507        64.3687 
 379   0.0000       2.371140        64.5220 
 380   0.0000       2.375504        64.6408 
 381   0.0000       2.385377        64.9094 
 382   0.0000       2.388674        64.9991 
 383   0.0000       2.406066        65.4724 
 384   0.0000       2.412022        65.6345 
 385   0.0000       2.418958        65.8232 
 386   0.0000       2.431166        66.1554 
 387   0.0000       2.432505        66.1918 
 388   0.0000       2.448871        66.6372 
 389   0.0000       2.450222        66.6739 
 390   0.0000       2.455956        66.8300 
 391   0.0000       2.458922        66.9107 
 392   0.0000       2.467615        67.1472 
 393   0.0000       2.493829        67.8605 
 394   0.0000       2.536041        69.0092 
 395   0.0000       2.536471        69.0209 
 396   0.0000       2.558159        69.6111 
 397   0.0000       2.592490        70.5452 
 398   0.0000       2.593764        70.5799 
 399   0.0000       2.626990        71.4840 
 400   0.0000       2.634122        71.6781 
 401   0.0000       2.643878        71.9436 
 402   0.0000       2.648357        72.0655 
 403   0.0000       2.648967        72.0820 
 404   0.0000       2.689272        73.1788 
 405   0.0000       2.693189        73.2854 
 406   0.0000       2.705304        73.6151 
 407   0.0000       2.713689        73.8432 
 408   0.0000       2.723748        74.1170 
 409   0.0000       2.727145        74.2094 
 410   0.0000       2.731897        74.3387 
 411   0.0000       2.745682        74.7138 
 412   0.0000       2.770328        75.3845 
 413   0.0000       2.781799        75.6966 
 414   0.0000       2.794248        76.0354 
 415   0.0000       2.796168        76.0876 
 416   0.0000       2.801747        76.2394 
 417   0.0000       2.808679        76.4280 
 418   0.0000       2.810771        76.4850 
 419   0.0000       2.825264        76.8793 
 420   0.0000       2.836589        77.1875 
 421   0.0000       2.838905        77.2505 
 422   0.0000       2.839000        77.2531 
 423   0.0000       2.849787        77.5466 
 424   0.0000       2.860232        77.8309 
 425   0.0000       2.861556        77.8669 
 426   0.0000       2.873244        78.1849 
 427   0.0000       2.875757        78.2533 
 428   0.0000       2.878862        78.3378 
 429   0.0000       2.886022        78.5327 
 430   0.0000       2.886759        78.5527 
 431   0.0000       2.892583        78.7112 
 432   0.0000       2.905078        79.0512 
 433   0.0000       2.909043        79.1591 
 434   0.0000       2.913078        79.2689 
 435   0.0000       2.921753        79.5050 
 436   0.0000       2.929128        79.7056 
 437   0.0000       2.938181        79.9520 
 438   0.0000       2.943332        80.0921 
 439   0.0000       2.946236        80.1712 
 440   0.0000       2.948800        80.2409 
 441   0.0000       2.958900        80.5158 
 442   0.0000       2.961634        80.5902 
 443   0.0000       2.961798        80.5946 
 444   0.0000       2.973378        80.9097 
 445   0.0000       2.978571        81.0510 
 446   0.0000       2.979232        81.0690 
 447   0.0000       2.993577        81.4594 
 448   0.0000       2.994711        81.4902 
 449   0.0000       3.007278        81.8322 
 450   0.0000       3.021954        82.2315 
 451   0.0000       3.025746        82.3347 
 452   0.0000       3.036226        82.6199 
 453   0.0000       3.042053        82.7785 
 454   0.0000       3.047195        82.9184 
 455   0.0000       3.050333        83.0038 
 456   0.0000       3.056450        83.1702 
 457   0.0000       3.057228        83.1914 
 458   0.0000       3.072448        83.6055 
 459   0.0000       3.074177        83.6526 
 460   0.0000       3.081413        83.8495 
 461   0.0000       3.088726        84.0485 
 462   0.0000       3.097053        84.2751 
 463   0.0000       3.100210        84.3610 
 464   0.0000       3.106968        84.5449 
 465   0.0000       3.114425        84.7478 
 466   0.0000       3.123222        84.9872 
 467   0.0000       3.131805        85.2207 
 468   0.0000       3.133020        85.2538 
 469   0.0000       3.147394        85.6450 
 470   0.0000       3.147759        85.6549 
 471   0.0000       3.162531        86.0568 
 472   0.0000       3.169624        86.2498 
 473   0.0000       3.174398        86.3798 
 474   0.0000       3.192673        86.8771 
 475   0.0000       3.200829        87.0990 
 476   0.0000       3.202781        87.1521 
 477   0.0000       3.223581        87.7181 
 478   0.0000       3.237002        88.0833 
 479   0.0000       3.248248        88.3893 
 480   0.0000       3.258412        88.6659 
 481   0.0000       3.258893        88.6790 
 482   0.0000       3.273568        89.0783 
 483   0.0000       3.279661        89.2441 
 484   0.0000       3.298369        89.7532 
 485   0.0000       3.299569        89.7858 
 486   0.0000       3.325108        90.4808 
 487   0.0000       3.326520        90.5192 
 488   0.0000       3.328567        90.5749 
 489   0.0000       3.341127        90.9167 
 490   0.0000       3.344180        90.9998 
 491   0.0000       3.348157        91.1080 
 492   0.0000       3.354077        91.2691 
 493   0.0000       3.360026        91.4310 
 494   0.0000       3.363384        91.5223 
 495   0.0000       3.366976        91.6201 
 496   0.0000       3.377449        91.9051 
 497   0.0000       3.380349        91.9840 
 498   0.0000       3.388136        92.1959 
 499   0.0000       3.391567        92.2892 
 500   0.0000       3.400749        92.5391 
 501   0.0000       3.402307        92.5815 
 502   0.0000       3.411407        92.8291 
 503   0.0000       3.418945        93.0342 
 504   0.0000       3.430355        93.3447 
 505   0.0000       3.435421        93.4826 
 506   0.0000       3.440689        93.6259 
 507   0.0000       3.470379        94.4338 
 508   0.0000       3.472195        94.4832 
 509   0.0000       3.474428        94.5440 
 510   0.0000       3.477220        94.6200 
 511   0.0000       3.490081        94.9699 
 512   0.0000       3.503715        95.3409 
 513   0.0000       3.512703        95.5855 
 514   0.0000       3.518381        95.7400 
 515   0.0000       3.525470        95.9329 
 516   0.0000       3.534817        96.1873 
 517   0.0000       3.541251        96.3623 
 518   0.0000       3.545320        96.4731 
 519   0.0000       3.552328        96.6638 
 520   0.0000       3.557599        96.8072 
 521   0.0000       3.560700        96.8916 
 522   0.0000       3.563284        96.9619 
 523   0.0000       3.571152        97.1760 
 524   0.0000       3.575897        97.3051 
 525   0.0000       3.583480        97.5114 
 526   0.0000       3.592070        97.7452 
 527   0.0000       3.594828        97.8202 
 528   0.0000       3.605250        98.1038 
 529   0.0000       3.609224        98.2120 
 530   0.0000       3.622304        98.5679 
 531   0.0000       3.624407        98.6251 
 532   0.0000       3.636836        98.9633 
 533   0.0000       3.641470        99.0894 
 534   0.0000       3.645857        99.2088 
 535   0.0000       3.657539        99.5267 
 536   0.0000       3.668186        99.8164 
 537   0.0000       3.673312        99.9559 
 538   0.0000       3.677673       100.0746 
 539   0.0000       3.693693       100.5105 
 540   0.0000       3.695139       100.5498 
 541   0.0000       3.708408       100.9109 
 542   0.0000       3.711623       100.9984 
 543   0.0000       3.720848       101.2494 
 544   0.0000       3.729489       101.4845 
 545   0.0000       3.730789       101.5199 
 546   0.0000       3.739104       101.7462 
 547   0.0000       3.747674       101.9794 
 548   0.0000       3.748387       101.9988 
 549   0.0000       3.763764       102.4172 
 550   0.0000       3.766394       102.4888 
 551   0.0000       3.772983       102.6681 
 552   0.0000       3.773002       102.6686 
 553   0.0000       3.777364       102.7873 
 554   0.0000       3.780899       102.8835 
 555   0.0000       3.795562       103.2825 
 556   0.0000       3.807150       103.5978 
 557   0.0000       3.824270       104.0637 
 558   0.0000       3.830896       104.2440 
 559   0.0000       3.838556       104.4524 
 560   0.0000       3.844453       104.6129 
 561   0.0000       3.874542       105.4316 
 562   0.0000       3.881592       105.6235 
 563   0.0000       3.913559       106.4934 
 564   0.0000       3.918014       106.6146 
 565   0.0000       3.924620       106.7943 
 566   0.0000       3.934907       107.0743 
 567   0.0000       3.950964       107.5112 
 568   0.0000       3.963166       107.8432 
 569   0.0000       3.963487       107.8520 
 570   0.0000       3.966004       107.9205 
 571   0.0000       4.005252       108.9885 
 572   0.0000       4.007862       109.0595 
 573   0.0000       4.015136       109.2574 
 574   0.0000       4.042597       110.0047 
 575   0.0000       4.047339       110.1337 
 576   0.0000       4.104538       111.6902 
 577   0.0000       4.133005       112.4648 
 578   0.0000       4.142055       112.7111 
 579   0.0000       4.144538       112.7786 
 580   0.0000       4.156503       113.1042 
 581   0.0000       4.175421       113.6190 
 582   0.0000       4.176903       113.6593 
 583   0.0000       4.195083       114.1540 
 584   0.0000       4.205707       114.4431 
 585   0.0000       4.243742       115.4781 
 586   0.0000       4.254601       115.7736 
 587   0.0000       4.279931       116.4628 
 588   0.0000       4.279983       116.4643 
 589   0.0000       4.286284       116.6357 
 590   0.0000       4.295293       116.8809 
 591   0.0000       4.311949       117.3341 
 592   0.0000       4.320922       117.5783 
 593   0.0000       4.329364       117.8080 
 594   0.0000       4.343631       118.1962 
 595   0.0000       4.354220       118.4843 
 596   0.0000       4.355237       118.5120 
 597   0.0000       4.362410       118.7072 
 598   0.0000       4.376547       119.0919 
 599   0.0000       4.384818       119.3170 
 600   0.0000       4.414208       120.1167 
 601   0.0000       4.415764       120.1590 
 602   0.0000       4.428196       120.4973 
 603   0.0000       4.430126       120.5498 
 604   0.0000       4.436201       120.7152 
 605   0.0000       4.443991       120.9271 
 606   0.0000       4.448642       121.0537 
 607   0.0000       4.456608       121.2705 
 608   0.0000       4.464501       121.4852 
 609   0.0000       4.469125       121.6111 
 610   0.0000       4.473798       121.7382 
 611   0.0000       4.476404       121.8092 
 612   0.0000       4.502033       122.5066 
 613   0.0000       4.518960       122.9672 
 614   0.0000       4.523216       123.0830 
 615   0.0000       4.524735       123.1243 
 616   0.0000       4.539159       123.5168 
 617   0.0000       4.541558       123.5821 
 618   0.0000       4.549222       123.7906 
 619   0.0000       4.570791       124.3776 
 620   0.0000       4.594916       125.0340 
 621   0.0000       4.608169       125.3946 
 622   0.0000       4.611271       125.4791 
 623   0.0000       4.640273       126.2682 
 624   0.0000       4.646988       126.4510 
 625   0.0000       4.678800       127.3166 
 626   0.0000       4.689410       127.6053 
 627   0.0000       4.740572       128.9975 
 628   0.0000       4.761829       129.5760 
 629   0.0000       4.815411       131.0340 
 630   0.0000       4.840047       131.7044 
 631   0.0000       4.841195       131.7356 
 632   0.0000       4.858209       132.1986 
 633   0.0000       4.859070       132.2220 
 634   0.0000       4.929147       134.1289 
 635   0.0000       4.930976       134.1787 
 636   0.0000       4.953050       134.7793 
 637   0.0000       4.961620       135.0125 
 638   0.0000       4.978731       135.4782 
 639   0.0000       4.983052       135.5957 
 640   0.0000       4.983915       135.6192 
 641   0.0000       5.014061       136.4395 
 642   0.0000       5.034410       136.9933 
 643   0.0000       5.082293       138.2962 
 644   0.0000       5.086494       138.4105 
 645   0.0000       5.108183       139.0007 
 646   0.0000       5.145457       140.0150 
 647   0.0000       5.157878       140.3530 
 648   0.0000       5.168242       140.6350 
 649   0.0000       5.192869       141.3051 
 650   0.0000       5.196279       141.3980 
 651   0.0000       5.230431       142.3273 
 652   0.0000       5.231880       142.3667 
 653   0.0000       5.330424       145.0482 
 654   0.0000       5.360866       145.8766 
 655   0.0000       5.387635       146.6050 
 656   0.0000       5.393529       146.7654 
 657   0.0000       5.436683       147.9397 
 658   0.0000       5.447478       148.2334 
 659   0.0000       5.458938       148.5453 
 660   0.0000       5.498534       149.6227 
 661   0.0000       5.508880       149.9042 
 662   0.0000       5.537379       150.6797 
 663   0.0000       5.570015       151.5678 
 664   0.0000       5.577046       151.7591 
 665   0.0000       5.611915       152.7080 
 666   0.0000       5.637310       153.3990 
 667   0.0000       5.639725       153.4647 
 668   0.0000       5.679863       154.5569 
 669   0.0000       5.716922       155.5654 
 670   0.0000       5.747742       156.4040 
 671   0.0000       5.772982       157.0908 
 672   0.0000       5.848728       159.1520 
 673   0.0000       5.868137       159.6801 
 674   0.0000       5.998374       163.2240 
 675   0.0000       6.002607       163.3392 
 676   0.0000       6.099306       165.9705 
 677   0.0000       6.138351       167.0330 
 678   0.0000       6.309079       171.6788 
 679   0.0000       6.335021       172.3847 
 680   0.0000       6.442039       175.2968 
 681   0.0000       9.347378       254.3551 
 682   0.0000       9.790976       266.4260 
 683   0.0000       9.952011       270.8080 
 684   0.0000      20.756380       564.8098 
 685   0.0000      22.602414       615.0430 
 686   0.0000      22.687328       617.3536 
 687   0.0000      22.766516       619.5084 
 688   0.0000      23.152572       630.0135 
 689   0.0000      23.158908       630.1859 
 690   0.0000      23.162233       630.2764 
 691   0.0000      23.171141       630.5188 
 692   0.0000      23.211846       631.6264 
 693   0.0000      23.217458       631.7792 
 694   0.0000      23.287437       633.6834 
 695   0.0000      23.340470       635.1265 
 696   0.0000      23.394092       636.5856 
 697   0.0000      23.411540       637.0604 
 698   0.0000      23.420575       637.3063 
[...]
    65a ->  72a  :     0.020979 
    66a ->  72a  :     0.033825 
    66a ->  73a  :     0.106290 
    67a ->  74a  :     0.037399 
    68a ->  74a  :     0.036859 
    68a ->  75a  :     0.035747 
    68a ->  76a  :     0.011142 
    69a ->  74a  :     0.061511 
    69a ->  75a  :     0.097844 
    69a ->  76a  :     0.048653 
    70a ->  72a  :     0.065016 
    70a ->  73a  :     0.175278 
    70a ->  77a  :     0.015597 
    71a ->  72a  :     0.032310 
    71a ->  73a  :     0.065415 
    71a ->  77a  :     0.016794 
    71a ->  79a  :     0.014190 

STATE 18:  E=   0.257780 au      7.015 eV    56576.1 cm**-1 <S**2> =   0.000000
    67a ->  74a  :     0.013695 
    67a ->  75a  :     0.012018 
    69a ->  74a  :     0.011662 
    70a ->  79a  :     0.026234 
    70a ->  80a  :     0.025497 
    70a ->  82a  :     0.041058 
    70a ->  83a  :     0.032862 
    70a ->  87a  :     0.017941 
    71a ->  79a  :     0.215668 
    71a ->  80a  :     0.125723 
    71a ->  83a  :     0.288467 
    71a ->  85a  :     0.024577 
    71a ->  88a  :     0.017604 
    71a ->  91a  :     0.013170 

STATE 19:  E=   0.257921 au      7.018 eV    56607.2 cm**-1 <S**2> =   0.000000
    64a ->  72a  :     0.014024 
    65a ->  73a  :     0.013357 
    66a ->  72a  :     0.071218 
    67a ->  74a  :     0.092808 
    68a ->  75a  :     0.021205 
    69a ->  74a  :     0.032239 
    69a ->  75a  :     0.027703 
    69a ->  76a  :     0.019136 
    69a ->  78a  :     0.016136 
    70a ->  80a  :     0.032385 
    70a ->  83a  :     0.040867 
    70a ->  87a  :     0.011881 
    70a ->  91a  :     0.020046 
    71a ->  79a  :     0.336163 
    71a ->  80a  :     0.014607 
    71a ->  82a  :     0.033752 
    71a ->  87a  :     0.026594 
    71a ->  91a  :     0.014414 
    71a ->  93a  :     0.023432 

STATE 20:  E=   0.253607 au      6.901 eV    55660.4 cm**-1 <S**2> =   0.000000
    64a ->  74a  :     0.020141 
    65a ->  74a  :     0.127434 
    66a ->  74a  :     0.036207 
    67a ->  72a  :     0.016856 
    67a ->  73a  :     0.356521 
    67a ->  77a  :     0.016349 
    69a ->  72a  :     0.014063 
    69a ->  73a  :     0.049123 
    70a ->  74a  :     0.126449 
    71a ->  78a  :     0.118301 

STATE 21:  E=   0.260897 au      7.099 eV    57260.2 cm**-1 <S**2> =   0.000000
    65a ->  73a  :     0.035189 
    66a ->  72a  :     0.093328 
    66a ->  73a  :     0.017959 
    67a ->  74a  :     0.266361 
    68a ->  75a  :     0.032942 
    69a ->  74a  :     0.043629 
    69a ->  75a  :     0.019987 
    70a ->  72a  :     0.025098 
    70a ->  73a  :     0.020886 
    70a ->  79a  :     0.013713 
    70a ->  80a  :     0.015290 
    70a ->  82a  :     0.016929 
    70a ->  83a  :     0.038067 
    71a ->  79a  :     0.072515 
    71a ->  80a  :     0.049977 
    71a ->  82a  :     0.071266 
    71a ->  83a  :     0.019074 

STATE 22:  E=   0.256271 au      6.973 eV    56245.1 cm**-1 <S**2> =   0.000000
    64a ->  76a  :     0.022104 
    65a ->  75a  :     0.017722 
    65a ->  76a  :     0.013075 
    66a ->  75a  :     0.097644 
    67a ->  72a  :     0.277059 
    67a ->  73a  :     0.014967 
    68a ->  73a  :     0.021564 
    69a ->  72a  :     0.029074 
    69a ->  77a  :     0.013336 
    70a ->  75a  :     0.354524 
    71a ->  75a  :     0.017422 
    71a ->  76a  :     0.033672 

STATE 23:  E=   0.260132 au      7.079 eV    57092.4 cm**-1 <S**2> =   0.000000
    64a ->  78a  :     0.014563 
    65a ->  78a  :     0.010035 
    66a ->  74a  :     0.046471 
    66a ->  78a  :     0.053457 
    67a ->  73a  :     0.047155 
    68a ->  79a  :     0.019528 
    69a ->  79a  :     0.011989 
    70a ->  74a  :     0.011935 
    70a ->  78a  :     0.201517 
    71a ->  78a  :     0.436312 

STATE 24:  E=   0.271507 au      7.388 eV    59588.9 cm**-1 <S**2> =   0.000000
    65a ->  72a  :     0.047529 
    65a ->  73a  :     0.019031 
    66a ->  80a  :     0.014747 
    66a ->  83a  :     0.014554 
    67a ->  74a  :     0.010654 
    67a ->  75a  :     0.093906 
    67a ->  76a  :     0.039596 
    68a ->  74a  :     0.018144 
    69a ->  74a  :     0.013061 
    69a ->  75a  :     0.043803 
    69a ->  76a  :     0.032638 
    70a ->  72a  :     0.026558 
    70a ->  80a  :     0.032418 
    71a ->  77a  :     0.012805 
    71a ->  79a  :     0.029636 
    71a ->  80a  :     0.304952 
    71a ->  83a  :     0.083046 
    71a ->  85a  :     0.030891 

STATE 25:  E=   0.270667 au      7.365 eV    59404.5 cm**-1 <S**2> =   0.000000
    64a ->  72a  :     0.010851 
    64a ->  73a  :     0.010475 
    65a ->  72a  :     0.052213 
    65a ->  73a  :     0.017353 
    66a ->  72a  :     0.024557 
    67a ->  74a  :     0.013163 
    67a ->  75a  :     0.141195 
    67a ->  76a  :     0.065252 
    68a ->  74a  :     0.022035 
    69a ->  74a  :     0.041450 
    69a ->  75a  :     0.035058 
    69a ->  76a  :     0.024698 
    70a ->  72a  :     0.049837 
    70a ->  80a  :     0.034391 
    71a ->  79a  :     0.012919 
    71a ->  80a  :     0.123244 
    71a ->  83a  :     0.148497 
    71a ->  85a  :     0.033339 

STATE 26:  E=   0.265591 au      7.227 eV    58290.4 cm**-1 <S**2> =   0.000000
    64a ->  75a  :     0.043770 
    65a ->  75a  :     0.010226 
    66a ->  75a  :     0.091357 
    66a ->  76a  :     0.083382 
    67a ->  72a  :     0.106760 
    68a ->  72a  :     0.032269 
    69a ->  72a  :     0.012575 
    70a ->  76a  :     0.409319 
    71a ->  75a  :     0.027729 
    71a ->  76a  :     0.049322 

STATE 27:  E=   0.278895 au      7.589 eV    61210.4 cm**-1 <S**2> =   0.000000
    66a ->  72a  :     0.035881 
    66a ->  73a  :     0.029653 
    66a ->  77a  :     0.032691 
    67a ->  75a  :     0.023951 
    67a ->  78a  :     0.116295 
    69a ->  78a  :     0.024071 
    70a ->  73a  :     0.014396 
    70a ->  77a  :     0.203847 
    70a ->  79a  :     0.159405 
    70a ->  82a  :     0.033674 
    70a ->  91a  :     0.015706 
    70a ->  94a  :     0.012876 
    71a ->  77a  :     0.020735 
    71a ->  82a  :     0.075819 
    71a ->  83a  :     0.010502 
    71a ->  85a  :     0.010341 
    71a ->  94a  :     0.011960 

STATE 28:  E=   0.282091 au      7.676 eV    61911.9 cm**-1 <S**2> =   0.000000
    62a ->  75a  :     0.012557 
    65a ->  73a  :     0.031648 
    66a ->  72a  :     0.025704 
    66a ->  73a  :     0.017194 
    66a ->  79a  :     0.014028 
    66a ->  80a  :     0.021616 
    67a ->  75a  :     0.014126 
    68a ->  74a  :     0.018308 
    68a ->  75a  :     0.019114 
    68a ->  78a  :     0.024958 
    69a ->  74a  :     0.016399 
    69a ->  75a  :     0.026238 
    69a ->  78a  :     0.080089 
    70a ->  80a  :     0.071413 
    70a ->  82a  :     0.075656 
    70a ->  83a  :     0.117848 
    70a ->  87a  :     0.017811 
    70a ->  91a  :     0.013025 
    71a ->  79a  :     0.038293 
    71a ->  80a  :     0.053190 
    71a ->  83a  :     0.068464 
    71a ->  88a  :     0.035028 

STATE 29:  E=   0.281705 au      7.666 eV    61827.2 cm**-1 <S**2> =   0.000000
    63a ->  77a  :     0.012832 
    64a ->  72a  :     0.031680 
    66a ->  72a  :     0.019091 
    66a ->  73a  :     0.066908 
    66a ->  77a  :     0.121529 
    67a ->  74a  :     0.058695 
    67a ->  75a  :     0.014851 
    67a ->  76a  :     0.016275 
    67a ->  78a  :     0.046102 
    68a ->  74a  :     0.012734 
    69a ->  78a  :     0.025059 
    70a ->  77a  :     0.125643 
    70a ->  79a  :     0.099414 
    70a ->  80a  :     0.022182 
    70a ->  83a  :     0.017380 
    70a ->  91a  :     0.011873 
    71a ->  77a  :     0.045918 
    71a ->  82a  :     0.046393 
    71a ->  83a  :     0.020834 
    71a ->  85a  :     0.015492 
    71a ->  88a  :     0.010039 
    71a ->  93a  :     0.012796 

STATE 30:  E=   0.285266 au      7.762 eV    62608.7 cm**-1 <S**2> =   0.000000
    59a ->  73a  :     0.012637 
    61a ->  73a  :     0.075062 
    63a ->  74a  :     0.093831 
    64a ->  74a  :     0.043662 
    65a ->  74a  :     0.394854 
    65a ->  78a  :     0.049981 
    67a ->  73a  :     0.037421 
    67a ->  79a  :     0.014476 
    69a ->  73a  :     0.031169 
    70a ->  78a  :     0.039703 
    71a ->  81a  :     0.011331 


-------------------------
TD-DFT-EXCITATION SPECTRA
-------------------------

Center of mass = ( -0.0436,  0.0001, -0.0307)
Calculating the Dipole integrals                  ... done
Transforming integrals                            ... done
Calculating the Linear Momentum integrals         ... done
Transforming integrals                            ... done
Calculating angular momentum integrals            ... done
Transforming integrals                            ... done

-----------------------------------------------------------------------------
         ABSORPTION SPECTRUM VIA TRANSITION ELECTRIC DIPOLE MOMENTS
-----------------------------------------------------------------------------
State   Energy    Wavelength  fosc         T2        TX        TY        TZ  
        (cm-1)      (nm)                 (au**2)    (au)      (au)      (au) 
-----------------------------------------------------------------------------
   1   37698.3    265.3   0.287066559   2.50690   1.56677   0.01019  -0.22808
   2   38093.3    262.5   0.023962968   0.20709  -0.04582   0.45273   0.00549
   3   38700.8    258.4   0.001927117   0.01639   0.00571   0.12790   0.00117
   4   39042.4    256.1   0.060693590   0.51178  -0.68137   0.00207  -0.21795
   5   40481.0    247.0   0.006798966   0.05529  -0.00003   0.23514  -0.00034
   6   44606.8    224.2   0.224925930   1.66002  -0.00286   1.28839   0.00736
   7   45480.8    219.9   0.112858547   0.81692  -0.54964  -0.01233   0.71740
   8   45597.3    219.3   0.294198570   2.12411   1.05137  -0.00696   1.00930
   9   47424.5    210.9   0.635107185   4.40879  -0.00635  -2.09970  -0.00330
  10   47742.8    209.5   0.222339328   1.53315  -1.23727   0.00267  -0.04796
  11   48183.7    207.5   0.053882731   0.36815   0.00060   0.60675  -0.00046
  12   52197.2    191.6   0.829119414   5.22932   2.23254  -0.00165  -0.49507
  13   52364.3    191.0   1.058674743   6.65584   0.00425   2.57989   0.00038
  14   53564.6    186.7   0.022283485   0.13696  -0.10140   0.00537  -0.35587
  15   52548.6    190.3   0.088633208   0.55528   0.00136   0.74517   0.00056
  16   52027.7    192.2   0.035365521   0.22378   0.01302  -0.47270   0.01302
  17   52293.0    191.2   0.237132324   1.49287  -0.79070  -0.00356  -0.93148
  18   56576.1    176.8   0.038124828   0.22185   0.38620  -0.00284   0.26960
  19   56607.2    176.7   0.204680026   1.19036  -0.37700  -0.00081  -1.02383
  20   55660.4    179.7   0.235560444   1.39326  -0.00292  -1.18036   0.00040
  21   57260.2    174.6   0.176059379   1.01224  -0.66604   0.00119  -0.75407
  22   56245.1    177.8   0.000161619   0.00095   0.00066   0.03070   0.00179
  23   57092.4    175.2   0.020071270   0.11574  -0.00189  -0.34019   0.00096
  24   59588.9    167.8   0.084426332   0.46643   0.68231  -0.00301   0.02971
  25   59404.5    168.3   0.189442192   1.04986   0.92065   0.00018   0.44973
  26   58290.4    171.6   0.071468193   0.40364   0.00006  -0.63532   0.00204
  27   61210.4    163.4   0.005282871   0.02841   0.16702  -0.00448  -0.02231
  28   61911.9    161.5   0.014992345   0.07972   0.06472  -0.00009  -0.27483
  29   61827.2    161.7   0.039548636   0.21059   0.21396  -0.00239  -0.40596
  30   62608.7    159.7   0.002344305   0.01233  -0.00460  -0.11067   0.00766

-----------------------------------------------------------------------------
         ABSORPTION SPECTRUM VIA TRANSITION VELOCITY DIPOLE MOMENTS
-----------------------------------------------------------------------------
State   Energy    Wavelength   fosc        P2         PX        PY        PZ  
        (cm-1)      (nm)                 (au**2)     (au)      (au)      (au) 
-----------------------------------------------------------------------------
   1   37698.3    265.3   0.336976876   0.08682  -0.29150  -0.00186   0.04296
   2   38093.3    262.5   0.026904421   0.00700   0.00854  -0.08325  -0.00104
   3   38700.8    258.4   0.001896204   0.00050  -0.00106  -0.02237  -0.00022
   4   39042.4    256.1   0.068542447   0.01829   0.12804  -0.00039   0.04352
   5   40481.0    247.0   0.008250229   0.00228   0.00000  -0.04778   0.00007
   6   44606.8    224.2   0.241964140   0.07377   0.00061  -0.27159  -0.00156
   7   45480.8    219.9   0.119116804   0.03703   0.11757   0.00260  -0.15230
   8   45597.3    219.3   0.342014759   0.10658  -0.23653   0.00157  -0.22502
   9   47424.5    210.9   0.702177111   0.22759   0.00144   0.47706   0.00074
  10   47742.8    209.5   0.248995640   0.08125   0.28486  -0.00061   0.01002
  11   48183.7    207.5   0.060174528   0.01982  -0.00014  -0.14077   0.00010
  12   52197.2    191.6   0.892055617   0.31823  -0.55065   0.00040   0.12253
  13   52364.3    191.0   1.157276817   0.41417  -0.00107  -0.64356  -0.00009
  14   53564.6    186.7   0.024161231   0.00885   0.02856  -0.00137   0.08960
  15   52548.6    190.3   0.100909486   0.03624  -0.00037  -0.19037  -0.00014
  16   52027.7    192.2   0.042770209   0.01521  -0.00343   0.12323  -0.00335
  17   52293.0    191.2   0.283300630   0.10125   0.20910   0.00094   0.23985
  18   56576.1    176.8   0.046917663   0.01814  -0.11259   0.00077  -0.07392
  19   56607.2    176.7   0.222164983   0.08595   0.09776   0.00022   0.27639
  20   55660.4    179.7   0.271454421   0.10326   0.00080   0.32135  -0.00011
  21   57260.2    174.6   0.194011844   0.07593   0.18004  -0.00032   0.20859
  22   56245.1    177.8   0.000170837   0.00007  -0.00019  -0.00809  -0.00050
  23   57092.4    175.2   0.024358493   0.00950   0.00054   0.09749  -0.00023
  24   59588.9    167.8   0.092209314   0.03755  -0.19335   0.00086  -0.01294
  25   59404.5    168.3   0.206589096   0.08388  -0.26086  -0.00006  -0.12581
  26   58290.4    171.6   0.084261503   0.03357  -0.00008   0.18322  -0.00056
  27   61210.4    163.4   0.003399403   0.00142  -0.03763   0.00129   0.00205
  28   61911.9    161.5   0.015243254   0.00645  -0.02051   0.00003   0.07765
  29   61827.2    161.7   0.042818191   0.01809  -0.05898   0.00070   0.12089
  30   62608.7    159.7   0.002545177   0.00109   0.00127   0.03290  -0.00228

-------------------------------------------------------------------
                             CD SPECTRUM
-------------------------------------------------------------------
State  Energy     Wavelength     R         MX        MY        MZ   
       (cm-1)       (nm)     (1e40*cgs)   (au)      (au)      (au)  
-------------------------------------------------------------------
   1   37698.3    265.3      8.69879   0.01301  -0.00679   0.00817
   2   38093.3    262.5     -9.67191   0.47227  -0.00014   0.21588
   3   38700.8    258.4      0.48483   0.40128  -0.00087  -0.98562
   4   39042.4    256.1      0.09022   0.00065  -0.03654  -0.00324
   5   40481.0    247.0      0.00633  -0.04246   0.00029   0.16311
   6   44606.8    224.2      1.64617  -0.02848   0.00113   0.26566
   7   45480.8    219.9     -1.62105   0.00037   0.08705  -0.00302
   8   45597.3    219.3     -1.07937   0.00139   0.50390  -0.00024
   9   47424.5    210.9      0.97779  -0.01949  -0.00147   0.34498
  10   47742.8    209.5      0.29611  -0.00097  -0.19412   0.00110
  11   48183.7    207.5      0.11362   0.85047  -0.00157  -1.49863
  12   52197.2    191.6     -0.42232  -0.00013   0.21315   0.00049
  13   52364.3    191.0      2.75322   0.05422   0.00201   1.13438
  14   53564.6    186.7     -0.56226   0.00623  -0.22839  -0.00187
  15   52548.6    190.3      0.69920   0.89478   0.00066  -0.41281
  16   52027.7    192.2      1.91557  -0.16004   0.01010   0.83904
  17   52293.0    191.2     -3.60388  -0.00343  -0.54463   0.01320
  18   56576.1    176.8     -0.51249   0.00013   0.39002  -0.00011
  19   56607.2    176.7      0.70231  -0.00074  -0.26165  -0.00098
  20   55660.4    179.7      0.32187  -0.20378   0.00003   0.29976
  21   57260.2    174.6     -0.08706  -0.00058  -0.38672   0.00015
  22   56245.1    177.8     -0.16147  -0.34080   0.00071  -0.07888
  23   57092.4    175.2      0.19764  -0.06839  -0.00167  -0.28853
  24   59588.9    167.8     -0.42592  -0.00020   0.23959  -0.00155
  25   59404.5    168.3      0.38121   0.00005  -0.03384   0.00171
  26   58290.4    171.6     -0.86846   0.05702   0.00080  -0.65498
  27   61210.4    163.4      0.35467  -0.00046  -0.16627  -0.00377
  28   61911.9    161.5      0.04893   0.00005  -0.13616  -0.00032
  29   61827.2    161.7     -1.21297  -0.00427  -0.12377   0.00481
  30   62608.7    159.7      1.33857  -0.21805   0.00201   0.26881

Total run time:     1118.422 sec

           *** ORCA-CIS/TD-DFT FINISHED WITHOUT ERROR ***

Maximum memory used throughout the entire CIS-calculation: 2895.1 MB

-----------------------
CIS/TD-DFT TOTAL ENERGY
-----------------------

    E(SCF)  =  -1144.292876054 Eh
    DE(CIS) =      0.171766023 Eh (Root  1)
    ----------------------------- ---------
    E(tot)  =  -1144.121110031 Eh


-------------------------   --------------------
FINAL SINGLE POINT ENERGY     -1144.121110031039
-------------------------   --------------------


                            ***************************************
                            *     ORCA property calculations      *
                            ***************************************


  WARNING: The energy has been calculated at the MP2 level but the densities
           used in the property calculations are still SCF densities
           MP2 response densities have not been calculated 
           use %mp2 Density relaxed end
           or  %mp2 Density unrelaxed end

                                    ---------------------
                                    Active property flags
                                    ---------------------
   (+) Dipole Moment


------------------------------------------------------------------------------
                       ORCA ELECTRIC PROPERTIES CALCULATION
------------------------------------------------------------------------------

Dipole Moment Calculation                       ... on
Quadrupole Moment Calculation                   ... off
Polarizability Calculation                      ... off
GBWName                                         ... PTZ_1_M06L_def2TZVP_coords.gbw
Electron density                                ... PTZ_1_M06L_def2TZVP_coords.scfp
The origin for moment calculation is the CENTER OF MASS  = (-0.043602,  0.000054 -0.030684)

-------------
DIPOLE MOMENT
-------------
                                X             Y             Z
Electronic contribution:     -6.48538       0.00799      -3.57854
Nuclear contribution   :      6.27875      -0.00784       4.41851
                        -----------------------------------------
Total Dipole Moment    :     -0.20663       0.00015       0.83997
                        -----------------------------------------
Magnitude (a.u.)       :      0.86502
Magnitude (Debye)      :      2.19870



--------------------
Rotational spectrum 
--------------------
 
Rotational constants in cm-1:     0.012934     0.011295     0.007075 
Rotational constants in MHz :   387.761121   338.628638   212.103272 

 Dipole components along the rotational axes: 
x,y,z [a.u.] :    -0.203143    -0.000128     0.840824 
x,y,z [Debye]:    -0.516349    -0.000325     2.137205 

 

Timings for individual modules:

Sum of individual times         ...     1365.536 sec (=  22.759 min)
GTO integral calculation        ...        1.060 sec (=   0.018 min)   0.1 %
SCF iterations                  ...      187.308 sec (=   3.122 min)  13.7 %
MP2 module                      ...       58.246 sec (=   0.971 min)   4.3 %
CIS module                      ...     1118.922 sec (=  18.649 min)  81.9 %
                             ****ORCA TERMINATED NORMALLY****
TOTAL RUN TIME: 0 days 0 hours 22 minutes 46 seconds 806 msec
