
                                 *****************
                                 * O   R   C   A *
                                 *****************

                                            #,                                       
                                            ###                                      
                                            ####                                     
                                            #####                                    
                                            ######                                   
                                           ########,                                 
                                     ,,################,,,,,                         
                               ,,#################################,,                 
                          ,,##########################################,,             
                       ,#########################################, ''#####,          
                    ,#############################################,,   '####,        
                  ,##################################################,,,,####,       
                ,###########''''           ''''###############################       
              ,#####''   ,,,,##########,,,,          '''####'''          '####       
            ,##' ,,,,###########################,,,                        '##       
           ' ,,###''''                  '''############,,,                           
         ,,##''                                '''############,,,,        ,,,,,,###''
      ,#''                                            '''#######################'''  
     '                                                          ''''####''''         
             ,#######,   #######,   ,#######,      ##                                
            ,#'     '#,  ##    ##  ,#'     '#,    #''#        ######   ,####,        
            ##       ##  ##   ,#'  ##            #'  '#       #        #'  '#        
            ##       ##  #######   ##           ,######,      #####,   #    #        
            '#,     ,#'  ##    ##  '#,     ,#' ,#      #,         ##   #,  ,#        
             '#######'   ##     ##  '#######'  #'      '#     #####' # '####'        



                  #######################################################
                  #                        -***-                        #
                  #          Department of theory and spectroscopy      #
                  #    Directorship and core code : Frank Neese         #
                  #        Max Planck Institute fuer Kohlenforschung    #
                  #                Kaiser Wilhelm Platz 1               #
                  #                 D-45470 Muelheim/Ruhr               #
                  #                      Germany                        #
                  #                                                     #
                  #                  All rights reserved                #
                  #                        -***-                        #
                  #######################################################


                         Program Version 5.0.2 -  RELEASE  -


 With contributions from (in alphabetic order):
   Daniel Aravena         : Magnetic Suceptibility
   Michael Atanasov       : Ab Initio Ligand Field Theory (pilot matlab implementation)
   Alexander A. Auer      : GIAO ZORA, VPT2 properties, NMR spectrum
   Ute Becker             : Parallelization
   Giovanni Bistoni       : ED, misc. LED, open-shell LED, HFLD
   Martin Brehm           : Molecular dynamics
   Dmytro Bykov           : SCF Hessian
   Vijay G. Chilkuri      : MRCI spin determinant printing, contributions to CSF-ICE
   Dipayan Datta          : RHF DLPNO-CCSD density
   Achintya Kumar Dutta   : EOM-CC, STEOM-CC
   Dmitry Ganyushin       : Spin-Orbit,Spin-Spin,Magnetic field MRCI
   Miquel Garcia          : C-PCM and meta-GGA Hessian, CC/C-PCM, Gaussian charge scheme
   Yang Guo               : DLPNO-NEVPT2, F12-NEVPT2, CIM, IAO-localization
   Andreas Hansen         : Spin unrestricted coupled pair/coupled cluster methods
   Benjamin Helmich-Paris : MC-RPA, TRAH-SCF, COSX integrals
   Lee Huntington         : MR-EOM, pCC
   Robert Izsak           : Overlap fitted RIJCOSX, COSX-SCS-MP3, EOM
   Marcus Kettner         : VPT2
   Christian Kollmar      : KDIIS, OOCD, Brueckner-CCSD(T), CCSD density, CASPT2, CASPT2-K
   Simone Kossmann        : Meta GGA functionals, TD-DFT gradient, OOMP2, MP2 Hessian
   Martin Krupicka        : Initial AUTO-CI
   Lucas Lang             : DCDCAS
   Marvin Lechner         : AUTO-CI (C++ implementation), FIC-MRCC
   Dagmar Lenk            : GEPOL surface, SMD
   Dimitrios Liakos       : Extrapolation schemes; Compound Job, initial MDCI parallelization
   Dimitrios Manganas     : Further ROCIS development; embedding schemes
   Dimitrios Pantazis     : SARC Basis sets
   Anastasios Papadopoulos: AUTO-CI, single reference methods and gradients
   Taras Petrenko         : DFT Hessian,TD-DFT gradient, ASA, ECA, R-Raman, ABS, FL, XAS/XES, NRVS
   Peter Pinski           : DLPNO-MP2, DLPNO-MP2 Gradient
   Christoph Reimann      : Effective Core Potentials
   Marius Retegan         : Local ZFS, SOC
   Christoph Riplinger    : Optimizer, TS searches, QM/MM, DLPNO-CCSD(T), (RO)-DLPNO pert. Triples
   Tobias Risthaus        : Range-separated hybrids, TD-DFT gradient, RPA, STAB
   Michael Roemelt        : Original ROCIS implementation
   Masaaki Saitow         : Open-shell DLPNO-CCSD energy and density
   Barbara Sandhoefer     : DKH picture change effects
   Avijit Sen             : IP-ROCIS
   Kantharuban Sivalingam : CASSCF convergence, NEVPT2, FIC-MRCI
   Bernardo de Souza      : ESD, SOC TD-DFT
   Georgi Stoychev        : AutoAux, RI-MP2 NMR, DLPNO-MP2 response
   Willem Van den Heuvel  : Paramagnetic NMR
   Boris Wezisla          : Elementary symmetry handling
   Frank Wennmohs         : Technical directorship


 We gratefully acknowledge several colleagues who have allowed us to
 interface, adapt or use parts of their codes:
   Stefan Grimme, W. Hujo, H. Kruse, P. Pracht,  : VdW corrections, initial TS optimization,
                  C. Bannwarth, S. Ehlert          DFT functionals, gCP, sTDA/sTD-DF
   Ed Valeev, F. Pavosevic, A. Kumar             : LibInt (2-el integral package), F12 methods
   Garnet Chan, S. Sharma, J. Yang, R. Olivares  : DMRG
   Ulf Ekstrom                                   : XCFun DFT Library
   Mihaly Kallay                                 : mrcc  (arbitrary order and MRCC methods)
   Jiri Pittner, Ondrej Demel                    : Mk-CCSD
   Frank Weinhold                                : gennbo (NPA and NBO analysis)
   Christopher J. Cramer and Donald G. Truhlar   : smd solvation model
   Lars Goerigk                                  : TD-DFT with DH, B97 family of functionals
   V. Asgeirsson, H. Jonsson                     : NEB implementation
   FAccTs GmbH                                   : IRC, NEB, NEB-TS, DLPNO-Multilevel, CI-OPT
                                                   MM, QMMM, 2- and 3-layer-ONIOM, Crystal-QMMM,
                                                   LR-CPCM, SF, NACMEs, symmetry and pop. for TD-DFT,
                                                   nearIR, NL-DFT gradient (VV10), updates on ESD,
                                                   ML-optimized integration grids
   S Lehtola, MJT Oliveira, MAL Marques          : LibXC Library
   Liviu Ungur et al                             : ANISO software


 Your calculation uses the libint2 library for the computation of 2-el integrals
 For citations please refer to: http://libint.valeyev.net

 Your ORCA version has been built with support for libXC version: 5.1.0
 For citations please refer to: https://tddft.org/programs/libxc/

 This ORCA versions uses:
   CBLAS   interface :  Fast vector & matrix operations
   LAPACKE interface :  Fast linear algebra routines
   SCALAPACK package :  Parallel linear algebra routines
   Shared memory     :  Shared parallel matrices
   BLAS/LAPACK       :  OpenBLAS 0.3.15  USE64BITINT DYNAMIC_ARCH NO_AFFINITY Prescott SINGLE_THREADED
        Core in use  :  Prescott
   Copyright (c) 2011-2014, The OpenBLAS Project


Your calculation utilizes the SMD solvation module
Please cite in your paper:
A.V. Marenich, C.J. Cramer, D.G. Truhlar J. Phys. Chem. B, 113, (2009), 6378 

================================================================================

----- Orbital basis set information -----
Your calculation utilizes the basis: def2-TZVP
   F. Weigend and R. Ahlrichs, Phys. Chem. Chem. Phys. 7, 3297 (2005).

----- AuxJ basis set information -----
Your calculation utilizes the auxiliary basis: def2/J
   F. Weigend, Phys. Chem. Chem. Phys. 8, 1057 (2006).

----- AuxC basis set information -----
Your calculation utilizes the auxiliary basis: def2-TZVP/C
  H-La, Hf-Rn : A. Hellweg, C. Hattig, S. Hofener and W. Klopper, Theor. Chem. Acc. 117, 587 (2007).
        Ce-Lu : J. Chmela and M. E. Harding, Mol. Phys. (2018).

================================================================================
                                        WARNINGS
                       Please study these warnings very carefully!
================================================================================

INFO   : Checking CIS options ...
  ===> : (D) CORRECTION FOUND - SETTING MODE=3
  ===> : JK MODE FOUND - ACTIVATING RI-MP2 CODE
  ===> : MP2 AND CIS FOUND - CHECKING
WARNING: CIS(D) and MP2 runs must have the same orbital window
  ===> : adjusting orbital windows

WARNING: No MP2 level density has been requested!
         To caclulate MP2 level properties use
         %mp2 Density relaxed end
         or
         %mp2 Density unrelaxed end
         Otherwise for double-hybrid DFT only the energy is correct!

WARNING: The frozen-core approximation is turned on by default for 
         the MP2 part of double-hybrid DFT.

WARNING: CIS/ROCIS methods need fully converged wavefunctions
  ===> : Setting SCFConvForced true
         You can overwrite this default with %scf ConvForced false 


INFO   : the flag for use of the SHARK integral package has been found!

================================================================================
                                       INPUT FILE
================================================================================
NAME = PTZ_1_M06L_def2TZVP_coords.inp
|  1> %maxcore 20000
|  2> %pal
|  3>  nprocs= 4
|  4> end
|  5> ! RI-B2GP-PLYP   def2-TZVP def2/J def2-TZVP/C RIJCOSX CPCM TightSCF
|  6> %TDDFT  
|  7>    NROOTS   30
|  8>    dcorr 4
|  9>    TDA      FALSE
| 10> END
| 11> 
| 12> %CPCM
| 13>    SMD          TRUE
| 14>    SMDsolvent   "N,N-DIMETHYLACETAMIDE"
| 15> END
| 16>    
| 17> 
| 18> * xyz 0 1
| 19> C                  -1.98589800   -3.51504200    0.40705300
| 20> C                  -2.31200200   -2.48851100   -0.46337400
| 21> C                  -1.54247500   -1.33041800   -0.48678600
| 22> C                  -0.44503300   -1.19499400    0.36625500
| 23> C                  -0.16507700   -2.20792500    1.27822400
| 24> C                  -0.92043200   -3.36871700    1.28559100
| 25> C                  -0.44145600    1.19547900    0.36664600
| 26> C                  -1.53847900    1.33474300   -0.48627200
| 27> C                  -2.30428000    2.49531300   -0.46230800
| 28> H                  -3.15501300    2.58856900   -1.12552100
| 29> C                  -1.97479200    3.52043000    0.40852000
| 30> C                  -0.90964500    3.37037900    1.28685000
| 31> C                  -0.15806600    2.20718300    1.27889800
| 32> H                  -3.16304600   -2.57866500   -1.12662700
| 33> H                   0.65940400   -2.08237300    1.96828700
| 34> H                  -0.68155100   -4.15715700    1.98746100
| 35> H                  -2.56561700    4.42717700    0.41647300
| 36> H                  -0.66811400    4.15786700    1.98887300
| 37> C                   1.69426700   -0.00255600    0.03223200
| 38> C                   2.40135600    1.19602700   -0.14061700
| 39> C                   3.75393700    1.18574800   -0.43602500
| 40> C                   3.75216800   -1.19487200   -0.43319400
| 41> C                   4.45068100   -0.00525400   -0.57565400
| 42> H                   4.26428400    2.13287000   -0.56325800
| 43> H                   4.26120800   -2.14300500   -0.55808500
| 44> H                   1.89362500    2.14573600   -0.06318200
| 45> H                   5.50890500   -0.00630200   -0.80086200
| 46> H                  -2.57953900   -4.41995300    0.41461000
| 47> N                   0.31932000   -0.00088800    0.31069100
| 48> H                   0.66632000    2.07877000    1.96855300
| 49> S                  -1.94327000    0.00297700   -1.57207900
| 50> C                   2.39952400   -1.20260300   -0.13774400
| 51> H                   1.89042200   -2.15141900   -0.05805500
| 52> *
| 53> 
| 54> 
| 55>                          ****END OF INPUT****
================================================================================

                       ****************************
                       * Single Point Calculation *
                       ****************************

---------------------------------
CARTESIAN COORDINATES (ANGSTROEM)
---------------------------------
  C     -1.985898   -3.515042    0.407053
  C     -2.312002   -2.488511   -0.463374
  C     -1.542475   -1.330418   -0.486786
  C     -0.445033   -1.194994    0.366255
  C     -0.165077   -2.207925    1.278224
  C     -0.920432   -3.368717    1.285591
  C     -0.441456    1.195479    0.366646
  C     -1.538479    1.334743   -0.486272
  C     -2.304280    2.495313   -0.462308
  H     -3.155013    2.588569   -1.125521
  C     -1.974792    3.520430    0.408520
  C     -0.909645    3.370379    1.286850
  C     -0.158066    2.207183    1.278898
  H     -3.163046   -2.578665   -1.126627
  H      0.659404   -2.082373    1.968287
  H     -0.681551   -4.157157    1.987461
  H     -2.565617    4.427177    0.416473
  H     -0.668114    4.157867    1.988873
  C      1.694267   -0.002556    0.032232
  C      2.401356    1.196027   -0.140617
  C      3.753937    1.185748   -0.436025
  C      3.752168   -1.194872   -0.433194
  C      4.450681   -0.005254   -0.575654
  H      4.264284    2.132870   -0.563258
  H      4.261208   -2.143005   -0.558085
  H      1.893625    2.145736   -0.063182
  H      5.508905   -0.006302   -0.800862
  H     -2.579539   -4.419953    0.414610
  N      0.319320   -0.000888    0.310691
  H      0.666320    2.078770    1.968553
  S     -1.943270    0.002977   -1.572079
  C      2.399524   -1.202603   -0.137744
  H      1.890422   -2.151419   -0.058055

----------------------------
CARTESIAN COORDINATES (A.U.)
----------------------------
  NO LB      ZA    FRAG     MASS         X           Y           Z
   0 C     6.0000    0    12.011   -3.752803   -6.642467    0.769219
   1 C     6.0000    0    12.011   -4.369051   -4.702604   -0.875650
   2 C     6.0000    0    12.011   -2.914855   -2.514126   -0.919892
   3 C     6.0000    0    12.011   -0.840990   -2.258211    0.692122
   4 C     6.0000    0    12.011   -0.311950   -4.172374    2.415493
   5 C     6.0000    0    12.011   -1.739364   -6.365953    2.429415
   6 C     6.0000    0    12.011   -0.834231    2.259128    0.692861
   7 C     6.0000    0    12.011   -2.907304    2.522299   -0.918921
   8 C     6.0000    0    12.011   -4.354458    4.715458   -0.873636
   9 H     1.0000    0     1.008   -5.962111    4.891686   -2.126926
  10 C     6.0000    0    12.011   -3.731816    6.652649    0.771991
  11 C     6.0000    0    12.011   -1.718980    6.369093    2.431794
  12 C     6.0000    0    12.011   -0.298701    4.170971    2.416767
  13 H     1.0000    0     1.008   -5.977291   -4.872971   -2.129016
  14 H     1.0000    0     1.008    1.246093   -3.935115    3.719523
  15 H     1.0000    0     1.008   -1.287945   -7.855888    3.755757
  16 H     1.0000    0     1.008   -4.848313    8.366152    0.787020
  17 H     1.0000    0     1.008   -1.262552    7.857230    3.758425
  18 C     6.0000    0    12.011    3.201701   -0.004830    0.060910
  19 C     6.0000    0    12.011    4.537905    2.260163   -0.265728
  20 C     6.0000    0    12.011    7.093913    2.240739   -0.823968
  21 C     6.0000    0    12.011    7.090570   -2.257981   -0.818618
  22 C     6.0000    0    12.011    8.410568   -0.009929   -1.087828
  23 H     1.0000    0     1.008    8.058329    4.030540   -1.064403
  24 H     1.0000    0     1.008    8.052516   -4.049693   -1.054628
  25 H     1.0000    0     1.008    3.578433    4.054853   -0.119397
  26 H     1.0000    0     1.008   10.410322   -0.011909   -1.513410
  27 H     1.0000    0     1.008   -4.874622   -8.352501    0.783499
  28 N     7.0000    0    14.007    0.603427   -0.001678    0.587121
  29 H     1.0000    0     1.008    1.259162    3.928306    3.720026
  30 S    16.0000    0    32.060   -3.672248    0.005626   -2.970799
  31 C     6.0000    0    12.011    4.534443   -2.272590   -0.260298
  32 H     1.0000    0     1.008    3.572380   -4.065593   -0.109708

--------------------------------
INTERNAL COORDINATES (ANGSTROEM)
--------------------------------
 C      0   0   0     0.000000000000     0.00000000     0.00000000
 C      1   0   0     1.384829547311     0.00000000     0.00000000
 C      2   1   0     1.390647087554   119.84025741     0.00000000
 C      3   2   1     1.396566343151   120.35177119   359.77600912
 C      4   3   2     1.391435240914   119.19942355   357.30790688
 C      5   4   3     1.384938091027   120.25881271     3.67620306
 C      4   3   2     2.390475708209    95.63811365   204.09289846
 C      7   4   3     1.396539666085    95.64965228     0.00000000
 C      8   7   4     1.390664650373   120.34905386   155.91049878
 H      9   8   7     1.082725635696   119.60423246   180.28828474
 C      9   8   7     1.384835228977   119.84023395     0.22566569
 C     11   9   8     1.388710561316   120.01513891   357.82294155
 C     12  11   9     1.384904026264   120.22319686     1.19886989
 H      2   1   3     1.082731811512   120.55739494   180.07131778
 H      5   4   3     1.082459776636   119.11976253   182.66899294
 H      6   5   4     1.082276888167   119.58165916   178.87548184
 H     11   9   8     1.082278870182   119.66458738   179.27201740
 H     12  11   9     1.082271161324   120.18636966   181.82714058
 C      7   4   3     2.471524492565    61.08812844   226.74906183
 C     19   7   4     1.402302691508    92.18278683   177.46358823
 C     20  19   7     1.384502403705   120.83467400   182.58330887
 C     21  20  19     2.380622340549    90.36925305     0.79879938
 C     22  21  20     1.386869225519    30.87734791   180.89066983
 H     21  20  19     1.083366225974   118.60586668   179.92803968
 H     22  21  20     1.083363128951   151.00813332   178.43437329
 H     20  19   7     1.079691683893   120.38889021     1.44234293
 H     23  22  21     1.081923183846   120.87589191   180.68095835
 H      1   2   3     1.082280307061   119.67042353   180.73189749
 N     19   7   4     1.402861878345    29.02940773   354.71429835
 H     13  12  11     1.082463022274   120.61637759   180.71479406
 S      8   7   4     1.765342253980   118.72049548   336.80037110
 C     22  21  20     1.384556341070    90.37606058     0.00000000
 H     32  22  21     1.079716159452   118.77053394   178.07848171

---------------------------
INTERNAL COORDINATES (A.U.)
---------------------------
 C      0   0   0     0.000000000000     0.00000000     0.00000000
 C      1   0   0     2.616948586580     0.00000000     0.00000000
 C      2   1   0     2.627942144412   119.84025741     0.00000000
 C      3   2   1     2.639127916406   120.35177119   359.77600912
 C      4   3   2     2.629431538415   119.19942355   357.30790688
 C      5   4   3     2.617153704477   120.25881271     3.67620306
 C      4   3   2     4.517344418307    95.63811365   204.09289846
 C      7   4   3     2.639077504059    95.64965228     0.00000000
 C      8   7   4     2.627975333330   120.34905386   155.91049878
 H      9   8   7     2.046054929642   119.60423246   180.28828474
 C      9   8   7     2.616959323373   119.84023395     0.22566569
 C     11   9   8     2.624282640171   120.01513891   357.82294155
 C     12  11   9     2.617089331403   120.22319686     1.19886989
 H      2   1   3     2.046066600243   120.55739494   180.07131778
 H      5   4   3     2.045552528827   119.11976253   182.66899294
 H      6   5   4     2.045206919709   119.58165916   178.87548184
 H     11   9   8     2.045210665174   119.66458738   179.27201740
 H     12  11   9     2.045196097544   120.18636966   181.82714058
 C      7   4   3     4.670504424227    61.08812844   226.74906183
 C     19   7   4     2.649968043811    92.18278683   177.46358823
 C     20  19   7     2.616330374759   120.83467400   182.58330887
 C     21  20  19     4.498724251933    90.36925305     0.79879938
 C     22  21  20     2.620803019795    30.87734791   180.89066983
 H     21  20  19     2.047265469831   118.60586668   179.92803968
 H     22  21  20     2.047259617305   151.00813332   178.43437329
 H     20  19   7     2.040321591629   120.38889021     1.44234293
 H     23  22  21     2.044538515410   120.87589191   180.68095835
 H      1   2   3     2.045213380481   119.67042353   180.73189749
 N     19   7   4     2.651024753791    29.02940773   354.71429835
 H     13  12  11     2.045558662194   120.61637759   180.71479406
 S      8   7   4     3.336013392661   118.72049548   336.80037110
 C     22  21  20     2.616432301606    90.37606058     0.00000000
 H     32  22  21     2.040367843733   118.77053394   178.07848171

---------------------
BASIS SET INFORMATION
---------------------
There are 4 groups of distinct atoms

 Group   1 Type C   : 11s6p2d1f contracted to 5s3p2d1f pattern {62111/411/11/1}
 Group   2 Type H   : 5s1p contracted to 3s1p pattern {311/1}
 Group   3 Type N   : 11s6p2d1f contracted to 5s3p2d1f pattern {62111/411/11/1}
 Group   4 Type S   : 14s9p3d1f contracted to 5s5p2d1f pattern {73211/51111/21/1}

Atom   0C    basis set group =>   1
Atom   1C    basis set group =>   1
Atom   2C    basis set group =>   1
Atom   3C    basis set group =>   1
Atom   4C    basis set group =>   1
Atom   5C    basis set group =>   1
Atom   6C    basis set group =>   1
Atom   7C    basis set group =>   1
Atom   8C    basis set group =>   1
Atom   9H    basis set group =>   2
Atom  10C    basis set group =>   1
Atom  11C    basis set group =>   1
Atom  12C    basis set group =>   1
Atom  13H    basis set group =>   2
Atom  14H    basis set group =>   2
Atom  15H    basis set group =>   2
Atom  16H    basis set group =>   2
Atom  17H    basis set group =>   2
Atom  18C    basis set group =>   1
Atom  19C    basis set group =>   1
Atom  20C    basis set group =>   1
Atom  21C    basis set group =>   1
Atom  22C    basis set group =>   1
Atom  23H    basis set group =>   2
Atom  24H    basis set group =>   2
Atom  25H    basis set group =>   2
Atom  26H    basis set group =>   2
Atom  27H    basis set group =>   2
Atom  28N    basis set group =>   3
Atom  29H    basis set group =>   2
Atom  30S    basis set group =>   4
Atom  31C    basis set group =>   1
Atom  32H    basis set group =>   2
---------------------------------
AUXILIARY/J BASIS SET INFORMATION
---------------------------------
There are 4 groups of distinct atoms

 Group   1 Type C   : 12s5p4d2f1g contracted to 6s4p3d1f1g pattern {711111/2111/211/2/1}
 Group   2 Type H   : 5s2p1d contracted to 3s1p1d pattern {311/2/1}
 Group   3 Type N   : 12s5p4d2f1g contracted to 6s4p3d1f1g pattern {711111/2111/211/2/1}
 Group   4 Type S   : 14s5p5d2f1g contracted to 8s4p3d1f1g pattern {71111111/2111/311/2/1}

Atom   0C    basis set group =>   1
Atom   1C    basis set group =>   1
Atom   2C    basis set group =>   1
Atom   3C    basis set group =>   1
Atom   4C    basis set group =>   1
Atom   5C    basis set group =>   1
Atom   6C    basis set group =>   1
Atom   7C    basis set group =>   1
Atom   8C    basis set group =>   1
Atom   9H    basis set group =>   2
Atom  10C    basis set group =>   1
Atom  11C    basis set group =>   1
Atom  12C    basis set group =>   1
Atom  13H    basis set group =>   2
Atom  14H    basis set group =>   2
Atom  15H    basis set group =>   2
Atom  16H    basis set group =>   2
Atom  17H    basis set group =>   2
Atom  18C    basis set group =>   1
Atom  19C    basis set group =>   1
Atom  20C    basis set group =>   1
Atom  21C    basis set group =>   1
Atom  22C    basis set group =>   1
Atom  23H    basis set group =>   2
Atom  24H    basis set group =>   2
Atom  25H    basis set group =>   2
Atom  26H    basis set group =>   2
Atom  27H    basis set group =>   2
Atom  28N    basis set group =>   3
Atom  29H    basis set group =>   2
Atom  30S    basis set group =>   4
Atom  31C    basis set group =>   1
Atom  32H    basis set group =>   2
---------------------------------
AUXILIARY/C BASIS SET INFORMATION
---------------------------------
There are 4 groups of distinct atoms

 Group   1 Type C   : 8s6p5d3f1g contracted to 8s6p4d3f1g pattern {11111111/111111/2111/111/1}
 Group   2 Type H   : 4s3p2d contracted to 4s2p1d pattern {1111/21/2}
 Group   3 Type N   : 8s6p5d3f1g contracted to 8s6p4d3f1g pattern {11111111/111111/2111/111/1}
 Group   4 Type S   : 10s7p7d5f2g contracted to 9s7p6d5f2g pattern {211111111/1111111/211111/11111/11}

Atom   0C    basis set group =>   1
Atom   1C    basis set group =>   1
Atom   2C    basis set group =>   1
Atom   3C    basis set group =>   1
Atom   4C    basis set group =>   1
Atom   5C    basis set group =>   1
Atom   6C    basis set group =>   1
Atom   7C    basis set group =>   1
Atom   8C    basis set group =>   1
Atom   9H    basis set group =>   2
Atom  10C    basis set group =>   1
Atom  11C    basis set group =>   1
Atom  12C    basis set group =>   1
Atom  13H    basis set group =>   2
Atom  14H    basis set group =>   2
Atom  15H    basis set group =>   2
Atom  16H    basis set group =>   2
Atom  17H    basis set group =>   2
Atom  18C    basis set group =>   1
Atom  19C    basis set group =>   1
Atom  20C    basis set group =>   1
Atom  21C    basis set group =>   1
Atom  22C    basis set group =>   1
Atom  23H    basis set group =>   2
Atom  24H    basis set group =>   2
Atom  25H    basis set group =>   2
Atom  26H    basis set group =>   2
Atom  27H    basis set group =>   2
Atom  28N    basis set group =>   3
Atom  29H    basis set group =>   2
Atom  30S    basis set group =>   4
Atom  31C    basis set group =>   1
Atom  32H    basis set group =>   2


           ************************************************************
           *        Program running with 4 parallel MPI-processes     *
           *              working on a common directory               *
           ************************************************************
------------------------------------------------------------------------------
                           ORCA GTO INTEGRAL CALCULATION
                           -- RI-GTO INTEGRALS CHOSEN --
------------------------------------------------------------------------------
------------------------------------------------------------------------------
                   ___                                                        
                  /   \      - P O W E R E D   B Y -                         
                 /     \                                                     
                 |  |  |   _    _      __       _____    __    __             
                 |  |  |  | |  | |    /  \     |  _  \  |  |  /  |          
                  \  \/   | |  | |   /    \    | | | |  |  | /  /          
                 / \  \   | |__| |  /  /\  \   | |_| |  |  |/  /          
                |  |  |   |  __  | /  /__\  \  |    /   |      \           
                |  |  |   | |  | | |   __   |  |    \   |  |\   \          
                \     /   | |  | | |  |  |  |  | |\  \  |  | \   \       
                 \___/    |_|  |_| |__|  |__|  |_| \__\ |__|  \__/        
                                                                              
                      - O R C A' S   B I G   F R I E N D -                    
                                      &                                       
                       - I N T E G R A L  F E E D E R -                       
                                                                              
 v1 FN, 2020, v2 2021                                                         
------------------------------------------------------------------------------


Reading SHARK input file PTZ_1_M06L_def2TZVP_coords.SHARKINP.tmp ... ok
----------------------
SHARK INTEGRAL PACKAGE
----------------------

Number of atoms                             ...     33
Number of basis functions                   ...    704
Number of shells                            ...    274
Maximum angular momentum                    ...      3
Integral batch strategy                     ... SHARK/LIBINT Hybrid
RI-J (if used) integral strategy            ... SPLIT-RIJ (Revised 2003 algorithm where possible)
Printlevel                                  ...      1
Contraction scheme used                     ... SEGMENTED contraction
Coulomb Range Separation                    ... NOT USED
Exchange Range Separation                   ... NOT USED
Finite Nucleus Model                        ... NOT USED
Auxiliary Coulomb fitting basis             ... AVAILABLE
   # of basis functions in Aux-J            ...   1125
   # of shells in Aux-J                     ...    367
   Maximum angular momentum in Aux-J        ...      4
Auxiliary J/K fitting basis                 ... NOT available
Auxiliary Correlation fitting basis         ... AVAILABLE
   # of basis functions in Aux-C            ...   1752
   # of shells in Aux-C                     ...    538
   Maximum angular momentum in Aux-C        ...      4
Auxiliary 'external' fitting basis          ... NOT available
Integral threshold                          ...     2.500000e-11
Primitive cut-off                           ...     2.500000e-12
Primitive pair pre-selection threshold      ...     2.500000e-12

Calculating pre-screening integrals         ... done (  0.2 sec) Dimension = 274
Organizing shell pair data                  ... done (  0.7 sec)
Shell pair information
Total number of shell pairs                 ...     37675
Shell pairs after pre-screening             ...     28934
Total number of primitive shell pairs       ...    118348
Primitive shell pairs kept                  ...     61078
          la=0 lb=0:   7049 shell pairs
          la=1 lb=0:   8209 shell pairs
          la=1 lb=1:   2396 shell pairs
          la=2 lb=0:   4224 shell pairs
          la=2 lb=1:   2475 shell pairs
          la=2 lb=2:    671 shell pairs
          la=3 lb=0:   1961 shell pairs
          la=3 lb=1:   1172 shell pairs
          la=3 lb=2:    620 shell pairs
          la=3 lb=3:    157 shell pairs

Calculating one electron integrals          ... done (  0.1 sec)
Calculating RI/J V-Matrix + Cholesky decomp.... done (  0.1 sec)
Calculating RI/C V-Matrix + Cholesky decomp.... done (  0.3 sec)
Calculating Nuclear repulsion               ... done (  0.0 sec) ENN=   1568.655499052253 Eh

SHARK setup successfully completed in   2.2 seconds

Maximum memory used throughout the entire GTOINT-calculation: 55.6 MB


           ************************************************************
           *        Program running with 4 parallel MPI-processes     *
           *              working on a common directory               *
           ************************************************************
-------------------------------------------------------------------------------
                                 ORCA SCF
-------------------------------------------------------------------------------

------------
SCF SETTINGS
------------
Hamiltonian:
 Density Functional     Method          .... DFT(GTOs)
 Exchange Functional    Exchange        .... B88
   X-Alpha parameter    XAlpha          ....  0.666667
   Becke's b parameter  XBeta           ....  0.004200
 Correlation Functional Correlation     .... LYP
 LDA part of GGA corr.  LDAOpt          .... VWN-3
 Gradients option       PostSCFGGA      .... off
 Hybrid DFT is turned on
   Fraction HF Exchange ScalHFX         ....  0.650000
   Scaling of DF-GGA-X  ScalDFX         ....  0.350000
   Scaling of DF-GGA-C  ScalDFC         ....  0.640000
   Scaling of DF-LDA-C  ScalLDAC        ....  0.640000
   Perturbative correction              ....  0.360000
   Density functional embedding theory  .... OFF
 RI-approximation to the Coulomb term is turned on
   Number of AuxJ basis functions       .... 1125
   RIJ-COSX (HFX calculated with COS-X)).... on


General Settings:
 Integral files         IntName         .... PTZ_1_M06L_def2TZVP_coords
 Hartree-Fock type      HFTyp           .... RHF
 Total Charge           Charge          ....    0
 Multiplicity           Mult            ....    1
 Number of Electrons    NEL             ....  144
 Basis Dimension        Dim             ....  704
 Nuclear Repulsion      ENuc            ....   1568.6554990523 Eh

Convergence Acceleration:
 DIIS                   CNVDIIS         .... on
   Start iteration      DIISMaxIt       ....    12
   Startup error        DIISStart       ....  0.200000
   # of expansion vecs  DIISMaxEq       ....     5
   Bias factor          DIISBfac        ....   1.050
   Max. coefficient     DIISMaxC        ....  10.000
 Trust-Rad. Augm. Hess. CNVTRAH         .... auto
   Auto Start mean grad. ratio tolernc. ....  1.125000
   Auto Start start iteration           ....    20
   Auto Start num. interpolation iter.  ....    10
   Max. Number of Micro iterations      ....    16
   Max. Number of Macro iterations      .... Maxiter - #DIIS iter
   Number of Davidson start vectors     ....     2
   Converg. threshold I  (grad. norm)   ....   1.000e-05
   Converg. threshold II (energy diff.) ....   1.000e-08
   Grad. Scal. Fac. for Micro threshold ....   0.100
   Minimum threshold for Micro iter.    ....   0.010
   NR start threshold (gradient norm)   ....   0.001
   Initial trust radius                 ....   0.400
   Minimum AH scaling param. (alpha)    ....   1.000
   Maximum AH scaling param. (alpha)    .... 1000.000
   Orbital update algorithm             .... Taylor
   White noise on init. David. guess    .... on
   Maximum white noise                  ....   0.010
   Quad. conv. algorithm                .... NR
 SOSCF                  CNVSOSCF        .... on
   Start iteration      SOSCFMaxIt      ....   150
   Startup grad/error   SOSCFStart      ....  0.003300
 Level Shifting         CNVShift        .... on
   Level shift para.    LevelShift      ....    0.2500
   Turn off err/grad.   ShiftErr        ....    0.0010
 Zerner damping         CNVZerner       .... off
 Static damping         CNVDamp         .... on
   Fraction old density DampFac         ....    0.7000
   Max. Damping (<1)    DampMax         ....    0.9800
   Min. Damping (>=0)   DampMin         ....    0.0000
   Turn off err/grad.   DampErr         ....    0.1000
 Fernandez-Rico         CNVRico         .... off

SCF Procedure:
 Maximum # iterations   MaxIter         ....   125
 SCF integral mode      SCFMode         .... Direct
   Integral package                     .... SHARK and LIBINT hybrid scheme
 Reset frequency        DirectResetFreq ....    20
 Integral Threshold     Thresh          ....  2.500e-11 Eh
 Primitive CutOff       TCut            ....  2.500e-12 Eh

Convergence Tolerance:
 Convergence Check Mode ConvCheckMode   .... Total+1el-Energy
 Convergence forced     ConvForced      .... 1
 Energy Change          TolE            ....  1.000e-08 Eh
 1-El. energy change                    ....  1.000e-05 Eh
 Orbital Gradient       TolG            ....  1.000e-05
 Orbital Rotation angle TolX            ....  1.000e-05
 DIIS Error             TolErr          ....  5.000e-07


Diagonalization of the overlap matrix:
Smallest eigenvalue                        ... 5.454e-06
Time for diagonalization                   ...    0.356 sec
Threshold for overlap eigenvalues          ... 1.000e-08
Number of eigenvalues below threshold      ... 0
Time for construction of square roots      ...    0.314 sec
Total time needed                          ...    0.674 sec

Time for model grid setup =    0.626 sec

------------------------------
INITIAL GUESS: MODEL POTENTIAL
------------------------------
Loading Hartree-Fock densities                     ... done
Calculating cut-offs                               ... done
Initializing the effective Hamiltonian             ... done
Setting up the integral package (SHARK)            ... done
Starting the Coulomb interaction                   ... done (   1.5 sec)
Reading the grid                                   ... done
Mapping shells                                     ... done
Starting the XC term evaluation                    ... done (   1.3 sec)
  promolecular density results
     # of electrons  =    144.016232153
     EX              =   -128.127630092
     EC              =     -0.586887187
     EX+EC           =   -128.714517280
Transforming the Hamiltonian                       ... done (   0.3 sec)
Diagonalizing the Hamiltonian                      ... done (   0.4 sec)
Back transforming the eigenvectors                 ... done (   0.1 sec)
Now organizing SCF variables                       ... done
                      ------------------
                      INITIAL GUESS DONE (   4.2 sec)
                      ------------------
-------------------
DFT GRID GENERATION
-------------------

General Integration Accuracy     IntAcc      ... 4.388
Radial Grid Type                 RadialGrid  ... OptM3 with GC (2021)
Angular Grid (max. ang.)         AngularGrid ... 4 (Lebedev-302)
Angular grid pruning method      GridPruning ... 4 (adaptive)
Weight generation scheme         WeightScheme... Becke
Basis function cutoff            BFCut       ... 1.0000e-11
Integration weight cutoff        WCut        ... 1.0000e-14
Angular grids for H and He will be reduced by one unit
Partially contracted basis set               ... off
Rotationally invariant grid construction     ... off

Total number of grid points                  ...   162079
Total number of batches                      ...     2547
Average number of points per batch           ...       63
Average number of grid points per atom       ...     4911
Time for grid setup =    2.707 sec

--------------------
COSX GRID GENERATION
--------------------

GRIDX 1
-------
General Integration Accuracy     IntAcc      ... 3.816
Radial Grid Type                 RadialGrid  ... OptM3 with GC (2021)
Angular Grid (max. ang.)         AngularGrid ... 1 (Lebedev-50)
Angular grid pruning method      GridPruning ... 4 (adaptive)
Weight generation scheme         WeightScheme... Becke
Basis function cutoff            BFCut       ... 1.0000e-11
Integration weight cutoff        WCut        ... 1.0000e-14
Angular grids for H and He will be reduced by one unit
Partially contracted basis set               ... on
Rotationally invariant grid construction     ... off

Total number of grid points                  ...    20534
Total number of batches                      ...      331
Average number of points per batch           ...       62
Average number of grid points per atom       ...      622
UseSFitting                                  ... on

GRIDX 2
-------
General Integration Accuracy     IntAcc      ... 4.020
Radial Grid Type                 RadialGrid  ... OptM3 with GC (2021)
Angular Grid (max. ang.)         AngularGrid ... 2 (Lebedev-110)
Angular grid pruning method      GridPruning ... 4 (adaptive)
Weight generation scheme         WeightScheme... Becke
Basis function cutoff            BFCut       ... 1.0000e-11
Integration weight cutoff        WCut        ... 1.0000e-14
Angular grids for H and He will be reduced by one unit
Partially contracted basis set               ... on
Rotationally invariant grid construction     ... off

Total number of grid points                  ...    44938
Total number of batches                      ...      720
Average number of points per batch           ...       62
Average number of grid points per atom       ...     1362
UseSFitting                                  ... on

GRIDX 3
-------
General Integration Accuracy     IntAcc      ... 4.338
Radial Grid Type                 RadialGrid  ... OptM3 with GC (2021)
Angular Grid (max. ang.)         AngularGrid ... 3 (Lebedev-194)
Angular grid pruning method      GridPruning ... 4 (adaptive)
Weight generation scheme         WeightScheme... Becke
Basis function cutoff            BFCut       ... 1.0000e-11
Integration weight cutoff        WCut        ... 1.0000e-14
Angular grids for H and He will be reduced by one unit
Partially contracted basis set               ... on
Rotationally invariant grid construction     ... off

Total number of grid points                  ...    98915
Total number of batches                      ...     1560
Average number of points per batch           ...       63
Average number of grid points per atom       ...     2997
UseSFitting                                  ... on

Time for X-Grid setup             =    6.709 sec


--------------------
CPCM SOLVATION MODEL
--------------------
CPCM parameters:
  Epsilon                                         ...      37.7810
  Refrac                                          ...       1.4380
  Rsolv                                           ...       1.3000
  Surface type                                    ... GAUSSIAN VDW
  Epsilon function type                           ...         CPCM
Solvent:                                     ... N,N-DIMETHYLACETAMIDE
SMD-CDS solvent descriptors:
  Soln                                       ...    1.4380
  Soln25                                     ...    1.4358
  Sola                                       ...    0.0000
  Solb                                       ...    0.7800
  Solg                                       ...   47.6200
  Solc                                       ...    0.0000
  Solh                                       ...    0.0000
Radii:
 Radius for C  used is    3.4960 Bohr (=   1.8500 Ang.)
 Radius for H  used is    2.2677 Bohr (=   1.2000 Ang.)
 Radius for N  used is    3.5716 Bohr (=   1.8900 Ang.)
 Radius for S  used is    4.7054 Bohr (=   2.4900 Ang.)
Calculating surface                               ...        done! (  0.0s)
GEPOL surface points                              ...         1796
GEPOL Volume                                      ...    1937.0920
GEPOL Surface-area                                ...    1015.9266
Calculating surface distance matrix               ...        done! (  0.0s)
Performing Cholesky decomposition & store         ...        done! (  0.2s)
Overall time for CPCM initialization              ...                 0.3s
--------------
SCF ITERATIONS
--------------
ITER       Energy         Delta-E        Max-DP      RMS-DP      [F,P]     Damp
               ***  Starting incremental Fock matrix formation  ***
  0  -1144.1257114425   0.000000000000 0.03084053  0.00062593  0.1588295 0.7000
  1  -1144.3336572320  -0.207945789525 0.02404339  0.00052359  0.1026948 0.7000
                               ***Turning on DIIS***
  2  -1144.4510800204  -0.117422788337 0.07707780  0.00120257  0.0591251 0.0000
  3  -1144.6579650771  -0.206885056726 0.02814076  0.00033726  0.0348891 0.0000
  4  -1144.6802333015  -0.022268224378 0.01371218  0.00019509  0.0079207 0.0000
                      *** Initiating the SOSCF procedure ***
                           *** Shutting down DIIS ***
                      *** Re-Reading the Fockian *** 
                      *** Removing any level shift *** 
ITER      Energy       Delta-E        Grad      Rot      Max-DP    RMS-DP
  5  -1144.68105424  -0.0008209391  0.001765  0.001765  0.005473  0.000098
               *** Restarting incremental Fock matrix formation ***
  6  -1144.68107292  -0.0000186753  0.001228  0.003775  0.005064  0.000094
  7  -1144.68112018  -0.0000472637  0.000377  0.002753  0.003687  0.000063
  8  -1144.68112952  -0.0000093443  0.000189  0.000551  0.001868  0.000028
  9  -1144.68113270  -0.0000031719  0.000032  0.000137  0.000239  0.000005
 10  -1144.68113283  -0.0000001354  0.000025  0.000082  0.000100  0.000002
 11  -1144.68113286  -0.0000000300  0.000006  0.000033  0.000139  0.000002
 12  -1144.68113285   0.0000000152  0.000004  0.000014  0.000064  0.000001
                  ***Gradient check signals convergence***
              ***Rediagonalizing the Fockian in SOSCF/NRSCF***

               *****************************************************
               *                     SUCCESS                       *
               *           SCF CONVERGED AFTER  13 CYCLES          *
               *****************************************************

Old exchange energy                            =    -84.440217943 Eh
New exchange energy                            =    -84.440362007 Eh
Exchange energy change after final integration =     -0.000144063 Eh
Total energy after final integration           =  -1144.681276958 Eh
Final COS-X integration done in                =    93.362 sec

SMD CDS free energy correction energy :                -3.45220     Kcal/mol
Total Energy after SMD CDS correction =             -1144.686778389 Eh

----------------
TOTAL SCF ENERGY
----------------

Total Energy       :        -1144.68677839 Eh          -31148.51080 eV

Components:
Nuclear Repulsion  :         1568.65549905 Eh           42685.28621 eV
Electronic Energy  :        -2713.34227744 Eh          -73833.79701 eV
One Electron Energy:        -4678.36912660 Eh         -127304.89599 eV
Two Electron Energy:         1965.02684916 Eh           53471.09898 eV
Max COSX asymmetry :            0.00000760 Eh               0.00021 eV
CPCM Dielectric    :           -0.01740413 Eh              -0.47359 eV
SMD CDS (Gcds)     :           -0.00550143 Eh              -0.14970 eV

Virial components:
Potential Energy   :        -2286.68546298 Eh          -62223.87485 eV
Kinetic Energy     :         1141.99868459 Eh           31075.36405 eV
Virial Ratio       :            2.00235385


DFT components:
N(Alpha)           :       71.999978449039 electrons
N(Beta)            :       71.999978449039 electrons
N(Total)           :      143.999956898079 electrons
E(X)               :      -45.513992233927 Eh       
E(C)               :       -3.210104462976 Eh       
E(XC)              :      -48.724096696903 Eh       
DFET-embed. en.    :        0.000000000000 Eh       
CPCM Solvation Model Properties:
Surface-charge          :           -0.05753004
Charge-correction       :            0.00023762 Eh               0.00647 eV
Free-energy (cav+disp)  :           -0.00550143 Eh              -0.14970 eV

---------------
SCF CONVERGENCE
---------------

  Last Energy change         ...   -4.8665e-08  Tolerance :   1.0000e-08
  Last MAX-Density change    ...    2.6645e-15  Tolerance :   1.0000e-07
  Last RMS-Density change    ...    1.4977e-17  Tolerance :   5.0000e-09
  Last Orbital Gradient      ...    8.4605e-07  Tolerance :   1.0000e-05
  Last Orbital Rotation      ...    2.5509e-06  Tolerance :   1.0000e-05

             **** THE GBW FILE WAS UPDATED (PTZ_1_M06L_def2TZVP_coords.gbw) ****
             **** DENSITY PTZ_1_M06L_def2TZVP_coords.scfp WAS UPDATED ****
             **** ENERGY FILE WAS UPDATED (PTZ_1_M06L_def2TZVP_coords.en.tmp) ****
             **** THE GBW FILE WAS UPDATED (PTZ_1_M06L_def2TZVP_coords.gbw) ****
             **** DENSITY PTZ_1_M06L_def2TZVP_coords.scfp WAS UPDATED ****
----------------
ORBITAL ENERGIES
----------------

  NO   OCC          E(Eh)            E(eV) 
   0   2.0000     -90.630139     -2466.1715 
   1   2.0000     -15.058392      -409.7597 
   2   2.0000     -10.831258      -294.7335 
   3   2.0000     -10.827706      -294.6369 
   4   2.0000     -10.827679      -294.6361 
   5   2.0000     -10.815398      -294.3019 
   6   2.0000     -10.815389      -294.3017 
   7   2.0000     -10.785373      -293.4849 
   8   2.0000     -10.785373      -293.4849 
   9   2.0000     -10.781885      -293.3900 
  10   2.0000     -10.781872      -293.3897 
  11   2.0000     -10.780145      -293.3427 
  12   2.0000     -10.780141      -293.3426 
  13   2.0000     -10.779069      -293.3134 
  14   2.0000     -10.779068      -293.3134 
  15   2.0000     -10.775488      -293.2159 
  16   2.0000     -10.775459      -293.2152 
  17   2.0000     -10.768704      -293.0313 
  18   2.0000     -10.768682      -293.0307 
  19   2.0000     -10.763995      -292.9032 
  20   2.0000      -8.528602      -232.0750 
  21   2.0000      -6.333473      -172.3426 
  22   2.0000      -6.331344      -172.2846 
  23   2.0000      -6.328945      -172.2193 
  24   2.0000      -1.163446       -31.6590 
  25   2.0000      -1.044451       -28.4210 
  26   2.0000      -1.041848       -28.3501 
  27   2.0000      -1.014201       -27.5978 
  28   2.0000      -0.967809       -26.3354 
  29   2.0000      -0.923752       -25.1366 
  30   2.0000      -0.913847       -24.8670 
  31   2.0000      -0.911518       -24.8037 
  32   2.0000      -0.899039       -24.4641 
  33   2.0000      -0.875874       -23.8337 
  34   2.0000      -0.828062       -22.5327 
  35   2.0000      -0.766218       -20.8499 
  36   2.0000      -0.764428       -20.8011 
  37   2.0000      -0.735893       -20.0247 
  38   2.0000      -0.725644       -19.7458 
  39   2.0000      -0.721869       -19.6431 
  40   2.0000      -0.686650       -18.6847 
  41   2.0000      -0.648374       -17.6431 
  42   2.0000      -0.647896       -17.6302 
  43   2.0000      -0.605560       -16.4781 
  44   2.0000      -0.587943       -15.9987 
  45   2.0000      -0.587434       -15.9849 
  46   2.0000      -0.572290       -15.5728 
  47   2.0000      -0.565708       -15.3937 
  48   2.0000      -0.550009       -14.9665 
  49   2.0000      -0.543352       -14.7854 
  50   2.0000      -0.539621       -14.6838 
  51   2.0000      -0.525806       -14.3079 
  52   2.0000      -0.518349       -14.1050 
  53   2.0000      -0.514113       -13.9897 
  54   2.0000      -0.499918       -13.6035 
  55   2.0000      -0.487229       -13.2582 
  56   2.0000      -0.465941       -12.6789 
  57   2.0000      -0.464056       -12.6276 
  58   2.0000      -0.459820       -12.5123 
  59   2.0000      -0.451364       -12.2822 
  60   2.0000      -0.444917       -12.1068 
  61   2.0000      -0.433631       -11.7997 
  62   2.0000      -0.422367       -11.4932 
  63   2.0000      -0.416967       -11.3463 
  64   2.0000      -0.397337       -10.8121 
  65   2.0000      -0.372284       -10.1304 
  66   2.0000      -0.319859        -8.7038 
  67   2.0000      -0.318486        -8.6665 
  68   2.0000      -0.310123        -8.4389 
  69   2.0000      -0.307190        -8.3591 
  70   2.0000      -0.276659        -7.5283 
  71   2.0000      -0.248622        -6.7653 
  72   0.0000       0.042541         1.1576 
  73   0.0000       0.048754         1.3267 
  74   0.0000       0.050063         1.3623 
  75   0.0000       0.051354         1.3974 
  76   0.0000       0.072536         1.9738 
  77   0.0000       0.082982         2.2580 
  78   0.0000       0.099501         2.7076 
  79   0.0000       0.112718         3.0672 
  80   0.0000       0.123183         3.3520 
  81   0.0000       0.133050         3.6205 
  82   0.0000       0.134977         3.6729 
  83   0.0000       0.135956         3.6995 
  84   0.0000       0.143557         3.9064 
  85   0.0000       0.155203         4.2233 
  86   0.0000       0.157362         4.2820 
  87   0.0000       0.166420         4.5285 
  88   0.0000       0.169256         4.6057 
  89   0.0000       0.174089         4.7372 
  90   0.0000       0.186000         5.0613 
  91   0.0000       0.186294         5.0693 
  92   0.0000       0.191218         5.2033 
  93   0.0000       0.192523         5.2388 
  94   0.0000       0.204620         5.5680 
  95   0.0000       0.215811         5.8725 
  96   0.0000       0.232264         6.3202 
  97   0.0000       0.234292         6.3754 
  98   0.0000       0.236356         6.4316 
  99   0.0000       0.238777         6.4974 
 100   0.0000       0.250003         6.8029 
 101   0.0000       0.255747         6.9592 
 102   0.0000       0.258316         7.0291 
 103   0.0000       0.267062         7.2671 
 104   0.0000       0.273694         7.4476 
 105   0.0000       0.277367         7.5475 
 106   0.0000       0.280199         7.6246 
 107   0.0000       0.282956         7.6996 
 108   0.0000       0.290177         7.8961 
 109   0.0000       0.291018         7.9190 
 110   0.0000       0.298066         8.1108 
 111   0.0000       0.300332         8.1725 
 112   0.0000       0.304556         8.2874 
 113   0.0000       0.309018         8.4088 
 114   0.0000       0.316553         8.6138 
 115   0.0000       0.323932         8.8146 
 116   0.0000       0.327592         8.9142 
 117   0.0000       0.335667         9.1340 
 118   0.0000       0.336431         9.1548 
 119   0.0000       0.346542         9.4299 
 120   0.0000       0.346563         9.4305 
 121   0.0000       0.359696         9.7878 
 122   0.0000       0.360961         9.8223 
 123   0.0000       0.368125        10.0172 
 124   0.0000       0.375376        10.2145 
 125   0.0000       0.378960        10.3120 
 126   0.0000       0.381656        10.3854 
 127   0.0000       0.388666        10.5762 
 128   0.0000       0.394993        10.7483 
 129   0.0000       0.399409        10.8685 
 130   0.0000       0.399734        10.8773 
 131   0.0000       0.410233        11.1630 
 132   0.0000       0.415771        11.3137 
 133   0.0000       0.417534        11.3617 
 134   0.0000       0.422698        11.5022 
 135   0.0000       0.423035        11.5114 
 136   0.0000       0.433891        11.8068 
 137   0.0000       0.440120        11.9763 
 138   0.0000       0.444904        12.1065 
 139   0.0000       0.454001        12.3540 
 140   0.0000       0.458257        12.4698 
 141   0.0000       0.459385        12.5005 
 142   0.0000       0.469803        12.7840 
 143   0.0000       0.470905        12.8140 
 144   0.0000       0.479155        13.0385 
 145   0.0000       0.479283        13.0420 
 146   0.0000       0.486934        13.2502 
 147   0.0000       0.489238        13.3128 
 148   0.0000       0.489532        13.3208 
 149   0.0000       0.498440        13.5632 
 150   0.0000       0.498670        13.5695 
 151   0.0000       0.506216        13.7748 
 152   0.0000       0.508692        13.8422 
 153   0.0000       0.513012        13.9598 
 154   0.0000       0.520277        14.1574 
 155   0.0000       0.523594        14.2477 
 156   0.0000       0.530321        14.4308 
 157   0.0000       0.532411        14.4877 
 158   0.0000       0.535904        14.5827 
 159   0.0000       0.543601        14.7921 
 160   0.0000       0.545700        14.8492 
 161   0.0000       0.548481        14.9249 
 162   0.0000       0.553134        15.0515 
 163   0.0000       0.563332        15.3290 
 164   0.0000       0.567430        15.4406 
 165   0.0000       0.570430        15.5222 
 166   0.0000       0.571030        15.5385 
 167   0.0000       0.577175        15.7057 
 168   0.0000       0.585079        15.9208 
 169   0.0000       0.586465        15.9585 
 170   0.0000       0.589848        16.0506 
 171   0.0000       0.601872        16.3778 
 172   0.0000       0.614194        16.7131 
 173   0.0000       0.620404        16.8821 
 174   0.0000       0.621694        16.9172 
 175   0.0000       0.632313        17.2061 
 176   0.0000       0.640691        17.4341 
 177   0.0000       0.647017        17.6062 
 178   0.0000       0.656794        17.8723 
 179   0.0000       0.657711        17.8972 
 180   0.0000       0.666385        18.1333 
 181   0.0000       0.672844        18.3090 
 182   0.0000       0.678850        18.4724 
 183   0.0000       0.696014        18.9395 
 184   0.0000       0.709055        19.2944 
 185   0.0000       0.709875        19.3167 
 186   0.0000       0.714302        19.4371 
 187   0.0000       0.723176        19.6786 
 188   0.0000       0.744364        20.2552 
 189   0.0000       0.747378        20.3372 
 190   0.0000       0.755924        20.5697 
 191   0.0000       0.757032        20.5999 
 192   0.0000       0.773675        21.0528 
 193   0.0000       0.781930        21.2774 
 194   0.0000       0.784988        21.3606 
 195   0.0000       0.786297        21.3962 
 196   0.0000       0.797976        21.7140 
 197   0.0000       0.800059        21.7707 
 198   0.0000       0.807088        21.9620 
 199   0.0000       0.813430        22.1346 
 200   0.0000       0.819944        22.3118 
 201   0.0000       0.821457        22.3530 
 202   0.0000       0.824293        22.4302 
 203   0.0000       0.837053        22.7774 
 204   0.0000       0.837348        22.7854 
 205   0.0000       0.842124        22.9154 
 206   0.0000       0.843890        22.9634 
 207   0.0000       0.851217        23.1628 
 208   0.0000       0.862945        23.4819 
 209   0.0000       0.867480        23.6053 
 210   0.0000       0.870459        23.6864 
 211   0.0000       0.882984        24.0272 
 212   0.0000       0.894494        24.3404 
 213   0.0000       0.898875        24.4596 
 214   0.0000       0.902421        24.5561 
 215   0.0000       0.906991        24.6805 
 216   0.0000       0.915901        24.9229 
 217   0.0000       0.945633        25.7320 
 218   0.0000       0.947417        25.7805 
 219   0.0000       0.951044        25.8792 
 220   0.0000       0.955556        26.0020 
 221   0.0000       0.958469        26.0813 
 222   0.0000       0.967430        26.3251 
 223   0.0000       0.976707        26.5775 
 224   0.0000       0.980431        26.6789 
 225   0.0000       0.983702        26.7679 
 226   0.0000       0.990616        26.9560 
 227   0.0000       0.995292        27.0833 
 228   0.0000       0.995853        27.0985 
 229   0.0000       1.004636        27.3375 
 230   0.0000       1.011512        27.5246 
 231   0.0000       1.023350        27.8468 
 232   0.0000       1.028144        27.9772 
 233   0.0000       1.032200        28.0876 
 234   0.0000       1.044489        28.4220 
 235   0.0000       1.057719        28.7820 
 236   0.0000       1.062662        28.9165 
 237   0.0000       1.067623        29.0515 
 238   0.0000       1.087731        29.5987 
 239   0.0000       1.088416        29.6173 
 240   0.0000       1.107894        30.1473 
 241   0.0000       1.119737        30.4696 
 242   0.0000       1.128748        30.7148 
 243   0.0000       1.135433        30.8967 
 244   0.0000       1.139139        30.9975 
 245   0.0000       1.157928        31.5088 
 246   0.0000       1.164092        31.6765 
 247   0.0000       1.175568        31.9888 
 248   0.0000       1.184678        32.2367 
 249   0.0000       1.195761        32.5383 
 250   0.0000       1.199679        32.6449 
 251   0.0000       1.207027        32.8449 
 252   0.0000       1.221612        33.2417 
 253   0.0000       1.236463        33.6459 
 254   0.0000       1.246496        33.9189 
 255   0.0000       1.259377        34.2694 
 256   0.0000       1.260161        34.2907 
 257   0.0000       1.268000        34.5040 
 258   0.0000       1.268877        34.5279 
 259   0.0000       1.291448        35.1421 
 260   0.0000       1.300236        35.3812 
 261   0.0000       1.306770        35.5590 
 262   0.0000       1.317309        35.8458 
 263   0.0000       1.325520        36.0692 
 264   0.0000       1.341591        36.5065 
 265   0.0000       1.343233        36.5512 
 266   0.0000       1.349787        36.7296 
 267   0.0000       1.350232        36.7417 
 268   0.0000       1.366677        37.1892 
 269   0.0000       1.376814        37.4650 
 270   0.0000       1.376995        37.4699 
 271   0.0000       1.381430        37.5906 
 272   0.0000       1.384009        37.6608 
 273   0.0000       1.399761        38.0894 
 274   0.0000       1.412808        38.4445 
 275   0.0000       1.418382        38.5961 
 276   0.0000       1.419252        38.6198 
 277   0.0000       1.430652        38.9300 
 278   0.0000       1.434866        39.0447 
 279   0.0000       1.441970        39.2380 
 280   0.0000       1.466584        39.9078 
 281   0.0000       1.467484        39.9323 
 282   0.0000       1.468148        39.9503 
 283   0.0000       1.489225        40.5239 
 284   0.0000       1.493733        40.6465 
 285   0.0000       1.510473        41.1021 
 286   0.0000       1.524820        41.4925 
 287   0.0000       1.532643        41.7053 
 288   0.0000       1.541823        41.9551 
 289   0.0000       1.565167        42.5904 
 290   0.0000       1.566271        42.6204 
 291   0.0000       1.570074        42.7239 
 292   0.0000       1.578367        42.9496 
 293   0.0000       1.590871        43.2898 
 294   0.0000       1.599719        43.5306 
 295   0.0000       1.605375        43.6845 
 296   0.0000       1.610045        43.8116 
 297   0.0000       1.616882        43.9976 
 298   0.0000       1.629380        44.3377 
 299   0.0000       1.629949        44.3532 
 300   0.0000       1.637058        44.5466 
 301   0.0000       1.641968        44.6802 
 302   0.0000       1.649409        44.8827 
 303   0.0000       1.665064        45.3087 
 304   0.0000       1.671026        45.4709 
 305   0.0000       1.677640        45.6509 
 306   0.0000       1.682537        45.7842 
 307   0.0000       1.701450        46.2988 
 308   0.0000       1.705537        46.4100 
 309   0.0000       1.711984        46.5855 
 310   0.0000       1.722995        46.8851 
 311   0.0000       1.725553        46.9547 
 312   0.0000       1.733287        47.1651 
 313   0.0000       1.743858        47.4528 
 314   0.0000       1.751068        47.6490 
 315   0.0000       1.757757        47.8310 
 316   0.0000       1.762313        47.9550 
 317   0.0000       1.767929        48.1078 
 318   0.0000       1.780207        48.4419 
 319   0.0000       1.783992        48.5449 
 320   0.0000       1.790781        48.7296 
 321   0.0000       1.800051        48.9819 
 322   0.0000       1.805532        49.1310 
 323   0.0000       1.818376        49.4805 
 324   0.0000       1.820472        49.5376 
 325   0.0000       1.830563        49.8121 
 326   0.0000       1.833307        49.8868 
 327   0.0000       1.839843        50.0647 
 328   0.0000       1.851550        50.3832 
 329   0.0000       1.862484        50.6808 
 330   0.0000       1.871669        50.9307 
 331   0.0000       1.876075        51.0506 
 332   0.0000       1.882431        51.2236 
 333   0.0000       1.886748        51.3410 
 334   0.0000       1.892154        51.4881 
 335   0.0000       1.893905        51.5358 
 336   0.0000       1.904381        51.8208 
 337   0.0000       1.917034        52.1651 
 338   0.0000       1.925726        52.4017 
 339   0.0000       1.935030        52.6549 
 340   0.0000       1.945360        52.9359 
 341   0.0000       1.958299        53.2880 
 342   0.0000       1.962424        53.4003 
 343   0.0000       1.979115        53.8544 
 344   0.0000       1.980767        53.8994 
 345   0.0000       1.995381        54.2971 
 346   0.0000       1.999027        54.3963 
 347   0.0000       2.026599        55.1466 
 348   0.0000       2.031292        55.2743 
 349   0.0000       2.041149        55.5425 
 350   0.0000       2.051400        55.8214 
 351   0.0000       2.053157        55.8692 
 352   0.0000       2.060833        56.0781 
 353   0.0000       2.074862        56.4599 
 354   0.0000       2.091697        56.9180 
 355   0.0000       2.094732        57.0006 
 356   0.0000       2.105245        57.2866 
 357   0.0000       2.116719        57.5989 
 358   0.0000       2.122718        57.7621 
 359   0.0000       2.128513        57.9198 
 360   0.0000       2.150857        58.5278 
 361   0.0000       2.168571        59.0098 
 362   0.0000       2.178152        59.2705 
 363   0.0000       2.179151        59.2977 
 364   0.0000       2.183809        59.4245 
 365   0.0000       2.205397        60.0119 
 366   0.0000       2.213512        60.2327 
 367   0.0000       2.232055        60.7373 
 368   0.0000       2.233102        60.7658 
 369   0.0000       2.238945        60.9248 
 370   0.0000       2.246882        61.1408 
 371   0.0000       2.265421        61.6452 
 372   0.0000       2.269361        61.7525 
 373   0.0000       2.278598        62.0038 
 374   0.0000       2.284597        62.1670 
 375   0.0000       2.303349        62.6773 
 376   0.0000       2.317863        63.0723 
 377   0.0000       2.321302        63.1658 
 378   0.0000       2.343015        63.7567 
 379   0.0000       2.349210        63.9252 
 380   0.0000       2.353363        64.0383 
 381   0.0000       2.362204        64.2788 
 382   0.0000       2.366967        64.4084 
 383   0.0000       2.384332        64.8810 
 384   0.0000       2.389138        65.0117 
 385   0.0000       2.396865        65.2220 
 386   0.0000       2.408283        65.5327 
 387   0.0000       2.409210        65.5579 
 388   0.0000       2.425221        65.9936 
 389   0.0000       2.428776        66.0904 
 390   0.0000       2.433992        66.2323 
 391   0.0000       2.435350        66.2693 
 392   0.0000       2.443818        66.4997 
 393   0.0000       2.472647        67.2842 
 394   0.0000       2.513520        68.3964 
 395   0.0000       2.514977        68.4360 
 396   0.0000       2.533791        68.9479 
 397   0.0000       2.567522        69.8658 
 398   0.0000       2.569300        69.9142 
 399   0.0000       2.603333        70.8403 
 400   0.0000       2.609812        71.0166 
 401   0.0000       2.619592        71.2827 
 402   0.0000       2.624630        71.4198 
 403   0.0000       2.625657        71.4478 
 404   0.0000       2.666652        72.5633 
 405   0.0000       2.670104        72.6572 
 406   0.0000       2.682547        72.9958 
 407   0.0000       2.690456        73.2110 
 408   0.0000       2.701578        73.5137 
 409   0.0000       2.704185        73.5846 
 410   0.0000       2.709021        73.7162 
 411   0.0000       2.722457        74.0818 
 412   0.0000       2.747865        74.7732 
 413   0.0000       2.758950        75.0749 
 414   0.0000       2.771592        75.4189 
 415   0.0000       2.773947        75.4829 
 416   0.0000       2.778307        75.6016 
 417   0.0000       2.785538        75.7983 
 418   0.0000       2.787631        75.8553 
 419   0.0000       2.801871        76.2428 
 420   0.0000       2.812964        76.5446 
 421   0.0000       2.815602        76.6164 
 422   0.0000       2.815781        76.6213 
 423   0.0000       2.826479        76.9124 
 424   0.0000       2.837585        77.2146 
 425   0.0000       2.838206        77.2315 
 426   0.0000       2.849774        77.5463 
 427   0.0000       2.852559        77.6221 
 428   0.0000       2.855445        77.7006 
 429   0.0000       2.862903        77.9036 
 430   0.0000       2.863489        77.9195 
 431   0.0000       2.869373        78.0796 
 432   0.0000       2.882518        78.4373 
 433   0.0000       2.885475        78.5178 
 434   0.0000       2.889871        78.6374 
 435   0.0000       2.898639        78.8760 
 436   0.0000       2.905878        79.0730 
 437   0.0000       2.915787        79.3426 
 438   0.0000       2.921701        79.5035 
 439   0.0000       2.923121        79.5422 
 440   0.0000       2.926417        79.6319 
 441   0.0000       2.935812        79.8875 
 442   0.0000       2.938291        79.9550 
 443   0.0000       2.938448        79.9592 
 444   0.0000       2.950307        80.2819 
 445   0.0000       2.955668        80.4278 
 446   0.0000       2.955702        80.4287 
 447   0.0000       2.969754        80.8111 
 448   0.0000       2.971513        80.8590 
 449   0.0000       2.984895        81.2231 
 450   0.0000       2.998940        81.6053 
 451   0.0000       3.003614        81.7325 
 452   0.0000       3.014659        82.0330 
 453   0.0000       3.020422        82.1899 
 454   0.0000       3.025214        82.3203 
 455   0.0000       3.027405        82.3799 
 456   0.0000       3.033585        82.5480 
 457   0.0000       3.034680        82.5778 
 458   0.0000       3.049461        82.9801 
 459   0.0000       3.051680        83.0404 
 460   0.0000       3.058631        83.2296 
 461   0.0000       3.066920        83.4551 
 462   0.0000       3.074021        83.6484 
 463   0.0000       3.078255        83.7636 
 464   0.0000       3.084455        83.9323 
 465   0.0000       3.092207        84.1432 
 466   0.0000       3.101391        84.3931 
 467   0.0000       3.110120        84.6307 
 468   0.0000       3.110495        84.6409 
 469   0.0000       3.126310        85.0712 
 470   0.0000       3.126544        85.0776 
 471   0.0000       3.140256        85.4507 
 472   0.0000       3.148957        85.6875 
 473   0.0000       3.152619        85.7871 
 474   0.0000       3.172795        86.3361 
 475   0.0000       3.179457        86.5174 
 476   0.0000       3.181775        86.5805 
 477   0.0000       3.202743        87.1511 
 478   0.0000       3.215605        87.5011 
 479   0.0000       3.227314        87.8197 
 480   0.0000       3.237357        88.0930 
 481   0.0000       3.237530        88.0977 
 482   0.0000       3.252578        88.5071 
 483   0.0000       3.259564        88.6972 
 484   0.0000       3.276349        89.1540 
 485   0.0000       3.278705        89.2181 
 486   0.0000       3.303435        89.8910 
 487   0.0000       3.305071        89.9355 
 488   0.0000       3.306539        89.9755 
 489   0.0000       3.319232        90.3209 
 490   0.0000       3.323066        90.4252 
 491   0.0000       3.326371        90.5152 
 492   0.0000       3.332749        90.6887 
 493   0.0000       3.338387        90.8421 
 494   0.0000       3.342888        90.9646 
 495   0.0000       3.346068        91.0511 
 496   0.0000       3.356498        91.3350 
 497   0.0000       3.359851        91.4262 
 498   0.0000       3.367073        91.6227 
 499   0.0000       3.370610        91.7190 
 500   0.0000       3.380008        91.9747 
 501   0.0000       3.381727        92.0215 
 502   0.0000       3.390692        92.2654 
 503   0.0000       3.398443        92.4763 
 504   0.0000       3.410053        92.7922 
 505   0.0000       3.414237        92.9061 
 506   0.0000       3.419745        93.0560 
 507   0.0000       3.449619        93.8689 
 508   0.0000       3.451748        93.9268 
 509   0.0000       3.453502        93.9746 
 510   0.0000       3.456654        94.0603 
 511   0.0000       3.469948        94.4221 
 512   0.0000       3.483013        94.7776 
 513   0.0000       3.492348        95.0316 
 514   0.0000       3.498290        95.1933 
 515   0.0000       3.505089        95.3783 
 516   0.0000       3.514798        95.6425 
 517   0.0000       3.520620        95.8009 
 518   0.0000       3.525773        95.9412 
 519   0.0000       3.531697        96.1024 
 520   0.0000       3.537266        96.2539 
 521   0.0000       3.540362        96.3381 
 522   0.0000       3.543423        96.4214 
 523   0.0000       3.551458        96.6401 
 524   0.0000       3.555506        96.7502 
 525   0.0000       3.563248        96.9609 
 526   0.0000       3.571654        97.1896 
 527   0.0000       3.574817        97.2757 
 528   0.0000       3.584346        97.5350 
 529   0.0000       3.589555        97.6768 
 530   0.0000       3.602029        98.0162 
 531   0.0000       3.604105        98.0727 
 532   0.0000       3.617474        98.4365 
 533   0.0000       3.622975        98.5862 
 534   0.0000       3.626484        98.6816 
 535   0.0000       3.638035        98.9960 
 536   0.0000       3.648096        99.2697 
 537   0.0000       3.653603        99.4196 
 538   0.0000       3.657104        99.5149 
 539   0.0000       3.673988        99.9743 
 540   0.0000       3.675323       100.0106 
 541   0.0000       3.688023       100.3562 
 542   0.0000       3.691942       100.4629 
 543   0.0000       3.700789       100.7036 
 544   0.0000       3.709424       100.9386 
 545   0.0000       3.711199       100.9869 
 546   0.0000       3.719350       101.2087 
 547   0.0000       3.728352       101.4536 
 548   0.0000       3.728600       101.4604 
 549   0.0000       3.743834       101.8749 
 550   0.0000       3.747082       101.9633 
 551   0.0000       3.753401       102.1352 
 552   0.0000       3.753679       102.1428 
 553   0.0000       3.757896       102.2575 
 554   0.0000       3.760884       102.3389 
 555   0.0000       3.775844       102.7459 
 556   0.0000       3.786031       103.0232 
 557   0.0000       3.803799       103.5066 
 558   0.0000       3.810874       103.6992 
 559   0.0000       3.819120       103.9235 
 560   0.0000       3.824893       104.0806 
 561   0.0000       3.853865       104.8690 
 562   0.0000       3.861929       105.0884 
 563   0.0000       3.893357       105.9436 
 564   0.0000       3.897338       106.0519 
 565   0.0000       3.905062       106.2621 
 566   0.0000       3.914730       106.5252 
 567   0.0000       3.930010       106.9410 
 568   0.0000       3.943364       107.3044 
 569   0.0000       3.943960       107.3206 
 570   0.0000       3.945620       107.3658 
 571   0.0000       3.985591       108.4534 
 572   0.0000       3.988947       108.5448 
 573   0.0000       3.995049       108.7108 
 574   0.0000       4.022654       109.4620 
 575   0.0000       4.027935       109.6057 
 576   0.0000       4.087941       111.2385 
 577   0.0000       4.116842       112.0250 
 578   0.0000       4.122677       112.1838 
 579   0.0000       4.125672       112.2652 
 580   0.0000       4.138084       112.6030 
 581   0.0000       4.158471       113.1577 
 582   0.0000       4.158683       113.1635 
 583   0.0000       4.177393       113.6726 
 584   0.0000       4.187629       113.9512 
 585   0.0000       4.224046       114.9421 
 586   0.0000       4.234452       115.2253 
 587   0.0000       4.260946       115.9462 
 588   0.0000       4.261564       115.9631 
 589   0.0000       4.268681       116.1567 
 590   0.0000       4.277713       116.4025 
 591   0.0000       4.295124       116.8763 
 592   0.0000       4.303795       117.1122 
 593   0.0000       4.313052       117.3641 
 594   0.0000       4.326741       117.7366 
 595   0.0000       4.337565       118.0311 
 596   0.0000       4.338468       118.0557 
 597   0.0000       4.345721       118.2531 
 598   0.0000       4.359826       118.6369 
 599   0.0000       4.368320       118.8680 
 600   0.0000       4.395973       119.6205 
 601   0.0000       4.398282       119.6833 
 602   0.0000       4.409730       119.9948 
 603   0.0000       4.412038       120.0577 
 604   0.0000       4.418123       120.2232 
 605   0.0000       4.425620       120.4272 
 606   0.0000       4.430411       120.5576 
 607   0.0000       4.438406       120.7752 
 608   0.0000       4.447300       121.0172 
 609   0.0000       4.450579       121.1064 
 610   0.0000       4.456469       121.2667 
 611   0.0000       4.458102       121.3111 
 612   0.0000       4.484727       122.0356 
 613   0.0000       4.502773       122.5267 
 614   0.0000       4.506480       122.6276 
 615   0.0000       4.508611       122.6855 
 616   0.0000       4.521924       123.0478 
 617   0.0000       4.524872       123.1280 
 618   0.0000       4.533160       123.3536 
 619   0.0000       4.555510       123.9617 
 620   0.0000       4.578395       124.5845 
 621   0.0000       4.592692       124.9735 
 622   0.0000       4.596711       125.0829 
 623   0.0000       4.624800       125.8472 
 624   0.0000       4.630841       126.0116 
 625   0.0000       4.663670       126.9049 
 626   0.0000       4.674459       127.1985 
 627   0.0000       4.725465       128.5864 
 628   0.0000       4.746539       129.1599 
 629   0.0000       4.797632       130.5502 
 630   0.0000       4.822313       131.2218 
 631   0.0000       4.824621       131.2846 
 632   0.0000       4.839826       131.6984 
 633   0.0000       4.840312       131.7116 
 634   0.0000       4.913754       133.7101 
 635   0.0000       4.915101       133.7467 
 636   0.0000       4.937850       134.3657 
 637   0.0000       4.946311       134.5960 
 638   0.0000       4.963694       135.0690 
 639   0.0000       4.968302       135.1944 
 640   0.0000       4.969177       135.2182 
 641   0.0000       4.999079       136.0318 
 642   0.0000       5.019426       136.5855 
 643   0.0000       5.067834       137.9028 
 644   0.0000       5.071464       138.0015 
 645   0.0000       5.094057       138.6163 
 646   0.0000       5.130732       139.6143 
 647   0.0000       5.144291       139.9833 
 648   0.0000       5.154178       140.2523 
 649   0.0000       5.178870       140.9242 
 650   0.0000       5.182866       141.0329 
 651   0.0000       5.216870       141.9582 
 652   0.0000       5.218316       141.9976 
 653   0.0000       5.316126       144.6591 
 654   0.0000       5.348614       145.5432 
 655   0.0000       5.373643       146.2242 
 656   0.0000       5.380123       146.4006 
 657   0.0000       5.422594       147.5563 
 658   0.0000       5.433840       147.8623 
 659   0.0000       5.445481       148.1791 
 660   0.0000       5.484832       149.2499 
 661   0.0000       5.495279       149.5342 
 662   0.0000       5.524400       150.3266 
 663   0.0000       5.557002       151.2137 
 664   0.0000       5.564022       151.4047 
 665   0.0000       5.599327       152.3654 
 666   0.0000       5.624222       153.0429 
 667   0.0000       5.626540       153.1059 
 668   0.0000       5.668775       154.2552 
 669   0.0000       5.702681       155.1778 
 670   0.0000       5.732853       155.9989 
 671   0.0000       5.758305       156.6915 
 672   0.0000       5.837579       158.8486 
 673   0.0000       5.857312       159.3856 
 674   0.0000       5.986306       162.8957 
 675   0.0000       5.989813       162.9911 
 676   0.0000       6.088713       165.6823 
 677   0.0000       6.130679       166.8242 
 678   0.0000       6.300403       171.4427 
 679   0.0000       6.328296       172.2017 
 680   0.0000       6.430852       174.9924 
 681   0.0000       9.378599       255.2046 
 682   0.0000       9.823227       267.3036 
 683   0.0000       9.984851       271.7016 
 684   0.0000      20.790949       565.7505 
 685   0.0000      22.683383       617.2462 
 686   0.0000      22.768441       619.5608 
 687   0.0000      22.847807       621.7204 
 688   0.0000      23.234578       632.2450 
 689   0.0000      23.241077       632.4219 
 690   0.0000      23.244277       632.5089 
 691   0.0000      23.253334       632.7554 
 692   0.0000      23.294140       633.8658 
 693   0.0000      23.299705       634.0172 
 694   0.0000      23.370041       635.9312 
 695   0.0000      23.423063       637.3739 
 696   0.0000      23.477129       638.8452 
 697   0.0000      23.494174       639.3090 
 698   0.0000      23.503317       639.5578 
 699   0.0000      23.547360       640.7562 
 700   0.0000      23.858160       649.2135 
 701   0.0000      23.917763       650.8354 
 702   0.0000      23.963153       652.0705 
 703   0.0000      33.973935       924.4778 

                    ********************************
                    * MULLIKEN POPULATION ANALYSIS *
[...]

STATE 14:  E=   0.222101 au      6.044 eV    48745.6 cm**-1 <S**2> =   0.000000
    64a ->  74a  :     0.011622 
    66a ->  74a  :     0.089695 
    68a ->  72a  :     0.028860 
    68a ->  73a  :     0.069776 
    68a ->  77a  :     0.059333 
    69a ->  72a  :     0.028058 
    69a ->  73a  :     0.398605 
    70a ->  74a  :     0.013004 
    70a ->  75a  :     0.172483 
    70a ->  76a  :     0.029060 
    71a ->  74a  :     0.035133 
    71a ->  76a  :     0.012438 

STATE 15:  E=   0.217885 au      5.929 eV    47820.2 cm**-1 <S**2> =   0.000000
    64a ->  73a  :     0.020503 
    65a ->  72a  :     0.013496 
    65a ->  73a  :     0.017170 
    66a ->  72a  :     0.065738 
    66a ->  73a  :     0.090171 
    67a ->  74a  :     0.151773 
    68a ->  74a  :     0.012562 
    68a ->  75a  :     0.095059 
    69a ->  75a  :     0.076592 
    69a ->  76a  :     0.071439 
    70a ->  72a  :     0.026885 
    70a ->  73a  :     0.223594 
    71a ->  72a  :     0.030947 
    71a ->  73a  :     0.018676 
    71a ->  77a  :     0.026884 

STATE 16:  E=   0.218673 au      5.950 eV    47993.3 cm**-1 <S**2> =   0.000000
    66a ->  75a  :     0.022607 
    67a ->  77a  :     0.013522 
    68a ->  72a  :     0.173659 
    68a ->  73a  :     0.101644 
    68a ->  77a  :     0.123398 
    69a ->  72a  :     0.024820 
    69a ->  77a  :     0.097416 
    70a ->  75a  :     0.127805 
    71a ->  75a  :     0.030442 
    71a ->  76a  :     0.223688 

STATE 17:  E=   0.228752 au      6.225 eV    50205.3 cm**-1 <S**2> =   0.000000
    65a ->  72a  :     0.015635 
    65a ->  73a  :     0.019341 
    66a ->  72a  :     0.021895 
    66a ->  73a  :     0.032099 
    66a ->  77a  :     0.010330 
    67a ->  76a  :     0.036488 
    68a ->  74a  :     0.111359 
    68a ->  75a  :     0.117085 
    68a ->  76a  :     0.032422 
    69a ->  74a  :     0.210668 
    69a ->  75a  :     0.110071 
    69a ->  76a  :     0.017630 
    70a ->  72a  :     0.154354 
    71a ->  77a  :     0.037991 

STATE 18:  E=   0.232739 au      6.333 eV    51080.2 cm**-1 <S**2> =   0.000000
    65a ->  74a  :     0.069843 
    66a ->  74a  :     0.032633 
    67a ->  72a  :     0.025737 
    67a ->  73a  :     0.423537 
    67a ->  77a  :     0.012890 
    68a ->  72a  :     0.013992 
    69a ->  72a  :     0.048046 
    69a ->  73a  :     0.075150 
    70a ->  74a  :     0.058738 
    71a ->  78a  :     0.157508 

STATE 19:  E=   0.233525 au      6.355 eV    51252.9 cm**-1 <S**2> =   0.000000
    66a ->  75a  :     0.060719 
    67a ->  72a  :     0.343303 
    67a ->  73a  :     0.025075 
    68a ->  72a  :     0.019920 
    68a ->  73a  :     0.099677 
    68a ->  77a  :     0.016433 
    69a ->  72a  :     0.013512 
    69a ->  73a  :     0.017579 
    69a ->  77a  :     0.028586 
    70a ->  75a  :     0.239114 
    70a ->  76a  :     0.070425 

STATE 20:  E=   0.240251 au      6.538 eV    52729.0 cm**-1 <S**2> =   0.000000
    66a ->  72a  :     0.014210 
    67a ->  74a  :     0.018596 
    70a ->  80a  :     0.010552 
    71a ->  79a  :     0.709066 
    71a ->  80a  :     0.017892 
    71a ->  83a  :     0.048519 
    71a ->  85a  :     0.015956 
    71a ->  87a  :     0.016004 
    71a ->  93a  :     0.012653 

STATE 21:  E=   0.244818 au      6.662 eV    53731.2 cm**-1 <S**2> =   0.000000
    66a ->  72a  :     0.129097 
    67a ->  74a  :     0.112737 
    67a ->  75a  :     0.038715 
    67a ->  76a  :     0.014756 
    67a ->  78a  :     0.010900 
    68a ->  75a  :     0.023784 
    69a ->  74a  :     0.088644 
    69a ->  78a  :     0.012275 
    70a ->  79a  :     0.029319 
    70a ->  80a  :     0.022985 
    70a ->  82a  :     0.035434 
    70a ->  83a  :     0.020588 
    70a ->  87a  :     0.016066 
    70a ->  90a  :     0.012033 
    71a ->  80a  :     0.149691 
    71a ->  82a  :     0.048921 
    71a ->  83a  :     0.103493 
    71a ->  90a  :     0.014425 

STATE 22:  E=   0.243732 au      6.632 eV    53493.0 cm**-1 <S**2> =   0.000000
    66a ->  72a  :     0.112745 
    66a ->  73a  :     0.011860 
    67a ->  74a  :     0.147893 
    67a ->  76a  :     0.010456 
    68a ->  75a  :     0.058467 
    69a ->  74a  :     0.068728 
    70a ->  72a  :     0.017045 
    70a ->  77a  :     0.053163 
    70a ->  80a  :     0.017427 
    70a ->  82a  :     0.035065 
    70a ->  83a  :     0.022028 
    71a ->  79a  :     0.027303 
    71a ->  80a  :     0.156286 
    71a ->  82a  :     0.109764 
    71a ->  83a  :     0.033897 

STATE 23:  E=   0.229885 au      6.255 eV    50453.9 cm**-1 <S**2> =   0.000000
    64a ->  78a  :     0.010246 
    66a ->  74a  :     0.061042 
    66a ->  78a  :     0.029681 
    67a ->  73a  :     0.083194 
    70a ->  74a  :     0.018968 
    70a ->  78a  :     0.270791 
    71a ->  78a  :     0.402808 

STATE 24:  E=   0.230763 au      6.279 eV    50646.6 cm**-1 <S**2> =   0.000000
    64a ->  75a  :     0.013472 
    65a ->  75a  :     0.010697 
    66a ->  75a  :     0.014515 
    66a ->  76a  :     0.038235 
    67a ->  72a  :     0.178820 
    68a ->  72a  :     0.048000 
    69a ->  72a  :     0.033996 
    70a ->  76a  :     0.563805 
    71a ->  75a  :     0.014425 
    71a ->  76a  :     0.016178 

STATE 25:  E=   0.245739 au      6.687 eV    53933.5 cm**-1 <S**2> =   0.000000
    65a ->  72a  :     0.021395 
    65a ->  73a  :     0.016341 
    66a ->  72a  :     0.035369 
    66a ->  77a  :     0.013978 
    67a ->  74a  :     0.113661 
    67a ->  75a  :     0.105549 
    67a ->  76a  :     0.038047 
    68a ->  74a  :     0.073838 
    68a ->  75a  :     0.036915 
    69a ->  74a  :     0.026805 
    69a ->  75a  :     0.156888 
    69a ->  76a  :     0.028875 
    70a ->  72a  :     0.016789 
    70a ->  77a  :     0.108568 
    70a ->  79a  :     0.024963 
    71a ->  77a  :     0.033592 
    71a ->  79a  :     0.013728 
    71a ->  80a  :     0.031940 
    71a ->  82a  :     0.013904 
    71a ->  83a  :     0.012949 

STATE 26:  E=   0.256423 au      6.978 eV    56278.4 cm**-1 <S**2> =   0.000000
    66a ->  80a  :     0.012988 
    66a ->  83a  :     0.010194 
    67a ->  74a  :     0.012199 
    70a ->  77a  :     0.010638 
    70a ->  80a  :     0.072138 
    71a ->  80a  :     0.352780 
    71a ->  83a  :     0.322214 
    71a ->  85a  :     0.054322 

STATE 27:  E=   0.246235 au      6.700 eV    54042.4 cm**-1 <S**2> =   0.000000
    65a ->  72a  :     0.020934 
    66a ->  73a  :     0.021124 
    66a ->  77a  :     0.035806 
    67a ->  75a  :     0.114332 
    67a ->  76a  :     0.019731 
    67a ->  78a  :     0.010035 
    68a ->  74a  :     0.013176 
    68a ->  75a  :     0.035331 
    69a ->  74a  :     0.014203 
    69a ->  75a  :     0.016124 
    69a ->  76a  :     0.019503 
    70a ->  73a  :     0.012266 
    70a ->  77a  :     0.511850 
    71a ->  77a  :     0.012086 
    71a ->  80a  :     0.017222 
    71a ->  82a  :     0.032761 
    71a ->  83a  :     0.010930 

STATE 28:  E=   0.244214 au      6.645 eV    53598.7 cm**-1 <S**2> =   0.000000
    66a ->  74a  :     0.111349 
    66a ->  75a  :     0.344309 
    67a ->  73a  :     0.019747 
    68a ->  72a  :     0.246008 
    68a ->  77a  :     0.013355 
    69a ->  73a  :     0.031271 
    69a ->  77a  :     0.014966 
    70a ->  75a  :     0.040264 
    70a ->  76a  :     0.073031 
    71a ->  81a  :     0.012908 

STATE 29:  E=   0.247709 au      6.741 eV    54365.8 cm**-1 <S**2> =   0.000000
    65a ->  72a  :     0.010730 
    66a ->  72a  :     0.160815 
    66a ->  73a  :     0.292601 
    67a ->  74a  :     0.028313 
    67a ->  75a  :     0.154431 
    67a ->  76a  :     0.015456 
    68a ->  74a  :     0.073883 
    68a ->  75a  :     0.030748 
    69a ->  75a  :     0.030286 
    69a ->  76a  :     0.016337 
    69a ->  78a  :     0.019389 
    70a ->  72a  :     0.011654 
    70a ->  77a  :     0.033244 
    71a ->  83a  :     0.014410 

STATE 30:  E=   0.245826 au      6.689 eV    53952.5 cm**-1 <S**2> =   0.000000
    66a ->  74a  :     0.280151 
    67a ->  72a  :     0.083498 
    68a ->  72a  :     0.097879 
    68a ->  73a  :     0.356059 
    68a ->  77a  :     0.018085 
    69a ->  72a  :     0.094712 
    69a ->  73a  :     0.012711 


-------------------------
TD-DFT-EXCITATION SPECTRA
-------------------------

Center of mass = ( -0.0436,  0.0001, -0.0307)
Calculating the Dipole integrals                  ... done
Transforming integrals                            ... done
Calculating the Linear Momentum integrals         ... done
Transforming integrals                            ... done
Calculating angular momentum integrals            ... done
Transforming integrals                            ... done

-----------------------------------------------------------------------------
         ABSORPTION SPECTRUM VIA TRANSITION ELECTRIC DIPOLE MOMENTS
-----------------------------------------------------------------------------
State   Energy    Wavelength  fosc         T2        TX        TY        TZ  
        (cm-1)      (nm)                 (au**2)    (au)      (au)      (au) 
-----------------------------------------------------------------------------
   1   34629.5    288.8   0.247050949   2.34863   1.51466   0.00028  -0.23331
   2   35807.1    279.3   0.016069259   0.14774   0.01138  -0.38420  -0.00085
   3   35699.6    280.1   0.000547473   0.00505  -0.00769  -0.07061  -0.00178
   4   35950.0    278.2   0.067049782   0.61401   0.73373  -0.00251   0.27502
   5   38390.7    260.5   0.005361558   0.04598   0.00014  -0.21442   0.00041
   6   41813.6    239.2   0.307086685   2.41779  -0.00375   1.55489   0.00953
   7   43240.3    231.3   0.109578983   0.83429  -0.48703  -0.01897   0.77248
   8   41542.9    240.7   0.220398657   1.74657   1.14400  -0.00250   0.66170
   9   45461.6    220.0   0.290618640   2.10452  -0.00338  -1.45069  -0.00105
  10   44623.1    224.1   0.039635683   0.29242   0.52657  -0.00271  -0.12303
  11   44257.1    226.0   0.085232154   0.63401   0.00251   0.79624   0.00062
  12   49659.5    201.4   0.733651683   4.86366   2.18133   0.00051  -0.32476
  13   47504.5    210.5   0.629119567   4.35987   0.00182  -2.08803   0.00058
  14   48745.6    205.1   0.192900816   1.30279  -0.00255  -1.14139  -0.00249
  15   47820.2    209.1   0.135571191   0.93332  -0.72295  -0.00172  -0.64083
  16   47993.3    208.4   0.136031565   0.93311   0.00576  -0.96596  -0.00346
  17   50205.3    199.2   0.137708944   0.90300   0.62527   0.00988  -0.71550
  18   51080.2    195.8   0.436599916   2.81388   0.00365   1.67746  -0.00058
  19   51252.9    195.1   0.000625348   0.00402   0.00193   0.06299   0.00678
  20   52729.0    189.6   0.039553569   0.24695   0.00530  -0.00068  -0.49691
  21   53731.2    186.1   0.313840673   1.92291   0.88448  -0.00021   1.06799
  22   53493.0    186.9   0.267418779   1.64577  -0.99530   0.00193  -0.80941
  23   50453.9    198.2   0.048204958   0.31454  -0.00110   0.56083  -0.00152
  24   50646.6    197.4   0.059841087   0.38898  -0.00109  -0.62368   0.00049
  25   53933.5    185.4   0.125581169   0.76655  -0.87547   0.00004   0.01020
  26   56278.4    177.7   0.021813046   0.12760   0.28723   0.00166   0.21235
  27   54042.4    185.0   0.013485317   0.08215  -0.18539   0.00178  -0.21857
  28   53598.7    186.6   0.017149937   0.10534   0.00017  -0.32456  -0.00036
  29   54365.8    183.9   0.076210108   0.46149   0.39705  -0.00200   0.55121
  30   53952.5    185.3   0.021833215   0.13322  -0.00033   0.36500   0.00043

-----------------------------------------------------------------------------
         ABSORPTION SPECTRUM VIA TRANSITION VELOCITY DIPOLE MOMENTS
-----------------------------------------------------------------------------
State   Energy    Wavelength   fosc        P2         PX        PY        PZ  
        (cm-1)      (nm)                 (au**2)     (au)      (au)      (au) 
-----------------------------------------------------------------------------
   1   34629.5    288.8   0.326843179   0.07736  -0.27482  -0.00004   0.04278
   2   35807.1    279.3   0.019405958   0.00475  -0.00208   0.06888   0.00016
   3   35699.6    280.1   0.000566948   0.00014   0.00141   0.01167   0.00034
   4   35950.0    278.2   0.086360016   0.02122  -0.13551   0.00046  -0.05344
   5   38390.7    260.5   0.007171161   0.00188  -0.00003   0.04338  -0.00008
   6   41813.6    239.2   0.366329079   0.10469   0.00079  -0.32355  -0.00199
   7   43240.3    231.3   0.123942494   0.03663   0.10229   0.00396  -0.16171
   8   41542.9    240.7   0.288428944   0.08189  -0.24872   0.00054  -0.14153
   9   45461.6    220.0   0.333853078   0.10373   0.00075   0.32207   0.00023
  10   44623.1    224.1   0.048777080   0.01488  -0.11876   0.00060   0.02779
  11   44257.1    226.0   0.107559098   0.03253  -0.00057  -0.18037  -0.00014
  12   49659.5    201.4   0.840730900   0.28534  -0.52830  -0.00013   0.07901
  13   47504.5    210.5   0.802247889   0.26047  -0.00044   0.51036  -0.00014
  14   48745.6    205.1   0.233004418   0.07763   0.00063   0.27861   0.00061
  15   47820.2    209.1   0.175975659   0.05751   0.18063   0.00042   0.15775
  16   47993.3    208.4   0.172918502   0.05672  -0.00139   0.23815   0.00085
  17   50205.3    199.2   0.157653644   0.05410  -0.15139  -0.00245   0.17655
  18   51080.2    195.8   0.548803404   0.19159  -0.00094  -0.43771   0.00015
  19   51252.9    195.1   0.000778779   0.00027  -0.00044  -0.01641  -0.00178
  20   52729.0    189.6   0.047404256   0.01708  -0.00852   0.00019   0.13043
  21   53731.2    186.1   0.371417147   0.13639  -0.23803   0.00006  -0.28238
  22   53493.0    186.9   0.316006970   0.11553   0.26192  -0.00051   0.21663
  23   50453.9    198.2   0.066169183   0.02282   0.00028  -0.15105   0.00041
  24   50646.6    197.4   0.081410902   0.02818   0.00027   0.16787  -0.00013
  25   53933.5    185.4   0.159350420   0.05874   0.24235  -0.00001  -0.00250
  26   56278.4    177.7   0.023058557   0.00887  -0.07677  -0.00046  -0.05454
  27   54042.4    185.0   0.016283573   0.00601   0.04531  -0.00049   0.06294
  28   53598.7    186.6   0.022608161   0.00828  -0.00004   0.09100   0.00010
  29   54365.8    183.9   0.098099608   0.03645  -0.11302   0.00057  -0.15387
  30   53952.5    185.3   0.030685401   0.01131   0.00009  -0.10637  -0.00012

-------------------------------------------------------------------
                             CD SPECTRUM
-------------------------------------------------------------------
State  Energy     Wavelength     R         MX        MY        MZ   
       (cm-1)       (nm)     (1e40*cgs)   (au)      (au)      (au)  
-------------------------------------------------------------------
   1   34629.5    288.8      2.24596   0.00347  -0.01194   0.00210
   2   35807.1    279.3     -3.04627  -0.54889   0.00048   0.04062
   3   35699.6    280.1      0.12791  -0.27553   0.00060   1.01371
   4   35950.0    278.2      0.27634  -0.00073   0.05256   0.00456
   5   38390.7    260.5     -0.00817   0.07525  -0.00034  -0.24822
   6   41813.6    239.2      2.08709   0.02999   0.00163   0.20987
   7   43240.3    231.3     -2.19206  -0.00017   0.12883  -0.00296
   8   41542.9    240.7      0.06585   0.00098   0.43265   0.00014
   9   45461.6    220.0      0.25827   0.07174  -0.00062   0.11063
  10   44623.1    224.1      0.12470   0.00052   0.04245  -0.00085
  11   44257.1    226.0      0.20691   0.63234  -0.00051  -1.19087
  12   49659.5    201.4      0.37471   0.00034   0.27063   0.00028
  13   47504.5    210.5     -1.84165  -0.48450   0.00154   0.32425
  14   48745.6    205.1      2.39216   0.65321  -0.00289  -1.38430
  15   47820.2    209.1      1.12551  -0.00331  -0.34650   0.00094
  16   47993.3    208.4      1.54190  -0.28995  -0.00255  -0.71604
  17   50205.3    199.2     -3.44516   0.00212  -0.23827   0.00878
  18   51080.2    195.8      0.23821   0.32537  -0.00054  -0.38077
  19   51252.9    195.1      0.78226   0.61578   0.00095   0.06092
  20   52729.0    189.6      0.22890   0.00610   0.02704  -0.00095
  21   53731.2    186.1      0.04718  -0.00059   0.57360   0.00069
  22   53493.0    186.9     -0.26078  -0.00029  -0.41415   0.00006
  23   50453.9    198.2     -0.31689   0.11825  -0.00020   0.28147
  24   50646.6    197.4     -0.02380   0.08423  -0.00056  -0.62847
  25   53933.5    185.4      0.26459  -0.00065  -0.16729  -0.00051
  26   56278.4    177.7     -0.07243  -0.00007  -0.25395   0.00135
  27   54042.4    185.0     -0.07804   0.00045   0.08141   0.00104
  28   53598.7    186.6      0.14187   0.02966  -0.00069  -0.20203
  29   54365.8    183.9     -0.20654  -0.00016   0.21822   0.00011
  30   53952.5    185.3      0.17976   0.02434   0.00083   0.20424

Total run time:    11953.200 sec

           *** ORCA-CIS/TD-DFT FINISHED WITHOUT ERROR ***

Maximum memory used throughout the entire CIS-calculation: 2554.3 MB

-----------------------
CIS/TD-DFT TOTAL ENERGY
-----------------------

    E(SCF)  =  -1144.686778389 Eh
    DE(CIS) =      0.157783803 Eh (Root  1)
    ----------------------------- ---------
    E(tot)  =  -1144.528994586 Eh


-------------------------   --------------------
FINAL SINGLE POINT ENERGY     -1144.528994586238
-------------------------   --------------------


                            ***************************************
                            *     ORCA property calculations      *
                            ***************************************


  WARNING: The energy has been calculated at the MP2 level but the densities
           used in the property calculations are still SCF densities
           MP2 response densities have not been calculated 
           use %mp2 Density relaxed end
           or  %mp2 Density unrelaxed end

                                    ---------------------
                                    Active property flags
                                    ---------------------
   (+) Dipole Moment


------------------------------------------------------------------------------
                       ORCA ELECTRIC PROPERTIES CALCULATION
------------------------------------------------------------------------------

Dipole Moment Calculation                       ... on
Quadrupole Moment Calculation                   ... off
Polarizability Calculation                      ... off
GBWName                                         ... PTZ_1_M06L_def2TZVP_coords.gbw
Electron density                                ... PTZ_1_M06L_def2TZVP_coords.scfp
The origin for moment calculation is the CENTER OF MASS  = (-0.043602,  0.000054 -0.030684)

-------------
DIPOLE MOMENT
-------------
                                X             Y             Z
Electronic contribution:     -6.49146       0.00798      -3.58355
Nuclear contribution   :      6.27875      -0.00784       4.41851
                        -----------------------------------------
Total Dipole Moment    :     -0.21271       0.00014       0.83496
                        -----------------------------------------
Magnitude (a.u.)       :      0.86163
Magnitude (Debye)      :      2.19008



--------------------
Rotational spectrum 
--------------------
 
Rotational constants in cm-1:     0.012934     0.011295     0.007075 
Rotational constants in MHz :   387.761121   338.628638   212.103272 

 Dipole components along the rotational axes: 
x,y,z [a.u.] :    -0.209246    -0.000124     0.835833 
x,y,z [Debye]:    -0.531862    -0.000316     2.124520 

 

Timings for individual modules:

Sum of individual times         ...    13031.921 sec (= 217.199 min)
GTO integral calculation        ...        2.599 sec (=   0.043 min)   0.0 %
SCF iterations                  ...      688.921 sec (=  11.482 min)   5.3 %
MP2 module                      ...      386.649 sec (=   6.444 min)   3.0 %
CIS module                      ...    11953.752 sec (= 199.229 min)  91.7 %
                             ****ORCA TERMINATED NORMALLY****
TOTAL RUN TIME: 0 days 3 hours 37 minutes 14 seconds 566 msec
