 Entering Gaussian System, Link 0=g09
 Input=/home/png4rjv/fotokatalizis/benchmark/OPCs/PTZ_1b_M06L_def2TZVP.gjf
 Output=/home/png4rjv/fotokatalizis/benchmark/OPCs/PTZ_1b_M06L_def2TZVP.log
 Initial command:
 /opt/nce/packages/global/g09/l1.exe "/home/png4rjv/fotokatalizis/benchmark/OPCs/PTZ_1b_M06L_def2TZVP/Gau-52599.inp" -scrdir="/home/png4rjv/fotokatalizis/benchmark/OPCs/PTZ_1b_M06L_def2TZVP/"
 Default is to use a total of  12 processors:
                               12 via shared-memory
                                1 via Linda
 Entering Link 1 = /opt/nce/packages/global/g09/l1.exe PID=     52600.
  
 Copyright (c) 1988,1990,1992,1993,1995,1998,2003,2009,2015,
            Gaussian, Inc.  All Rights Reserved.
  
 This is part of the Gaussian(R) 09 program.  It is based on
 the Gaussian(R) 03 system (copyright 2003, Gaussian, Inc.),
 the Gaussian(R) 98 system (copyright 1998, Gaussian, Inc.),
 the Gaussian(R) 94 system (copyright 1995, Gaussian, Inc.),
 the Gaussian 92(TM) system (copyright 1992, Gaussian, Inc.),
 the Gaussian 90(TM) system (copyright 1990, Gaussian, Inc.),
 the Gaussian 88(TM) system (copyright 1988, Gaussian, Inc.),
 the Gaussian 86(TM) system (copyright 1986, Carnegie Mellon
 University), and the Gaussian 82(TM) system (copyright 1983,
 Carnegie Mellon University). Gaussian is a federally registered
 trademark of Gaussian, Inc.
  
 This software contains proprietary and confidential information,
 including trade secrets, belonging to Gaussian, Inc.
  
 This software is provided under written license and may be
 used, copied, transmitted, or stored only in accord with that
 written license.
  
 The following legend is applicable only to US Government
 contracts under FAR:
  
                    RESTRICTED RIGHTS LEGEND
  
 Use, reproduction and disclosure by the US Government is
 subject to restrictions as set forth in subparagraphs (a)
 and (c) of the Commercial Computer Software - Restricted
 Rights clause in FAR 52.227-19.
  
 Gaussian, Inc.
 340 Quinnipiac St., Bldg. 40, Wallingford CT 06492
  
  
 ---------------------------------------------------------------
 Warning -- This program may not be used in any manner that
 competes with the business of Gaussian, Inc. or will provide
 assistance to any competitor of Gaussian, Inc.  The licensee
 of this program is prohibited from giving any competitor of
 Gaussian, Inc. access to this program.  By using this program,
 the user acknowledges that Gaussian, Inc. is engaged in the
 business of creating and licensing software in the field of
 computational chemistry and represents and warrants to the
 licensee that it is not a competitor of Gaussian, Inc. and that
 it will not use this program in any manner prohibited above.
 ---------------------------------------------------------------
  

 Cite this work as:
 Gaussian 09, Revision E.01,
 M. J. Frisch, G. W. Trucks, H. B. Schlegel, G. E. Scuseria, 
 M. A. Robb, J. R. Cheeseman, G. Scalmani, V. Barone, B. Mennucci, 
 G. A. Petersson, H. Nakatsuji, M. Caricato, X. Li, H. P. Hratchian, 
 A. F. Izmaylov, J. Bloino, G. Zheng, J. L. Sonnenberg, M. Hada, 
 M. Ehara, K. Toyota, R. Fukuda, J. Hasegawa, M. Ishida, T. Nakajima, 
 Y. Honda, O. Kitao, H. Nakai, T. Vreven, J. A. Montgomery, Jr., 
 J. E. Peralta, F. Ogliaro, M. Bearpark, J. J. Heyd, E. Brothers, 
 K. N. Kudin, V. N. Staroverov, T. Keith, R. Kobayashi, J. Normand, 
 K. Raghavachari, A. Rendell, J. C. Burant, S. S. Iyengar, J. Tomasi, 
 M. Cossi, N. Rega, J. M. Millam, M. Klene, J. E. Knox, J. B. Cross, 
 V. Bakken, C. Adamo, J. Jaramillo, R. Gomperts, R. E. Stratmann, 
 O. Yazyev, A. J. Austin, R. Cammi, C. Pomelli, J. W. Ochterski, 
 R. L. Martin, K. Morokuma, V. G. Zakrzewski, G. A. Voth, 
 P. Salvador, J. J. Dannenberg, S. Dapprich, A. D. Daniels, 
 O. Farkas, J. B. Foresman, J. V. Ortiz, J. Cioslowski, 
 and D. J. Fox, Gaussian, Inc., Wallingford CT, 2013.
 
 ******************************************
 Gaussian 09:  ES64L-G09RevE.01 30-Nov-2015
                17-Feb-2021 
 ******************************************
 %chk=cp.chk
 Default route:  MaxDisk=500GB
 ----------------------------------------------------------------------
 #p m06l/def2TZVP opt freq=noraman nosymm int=ultrafine scrf=(SMD,solve
 nt=n,n-DiMethylAcetamide)
 ----------------------------------------------------------------------
 1/14=-1,18=20,19=15,26=4,38=1/1,3;
 2/9=110,12=2,15=1,17=6,18=5,40=1/2;
 3/5=44,7=101,11=2,16=1,25=1,30=1,70=32201,71=1,72=147,74=-53,75=-5/1,2,3;
 4//1;
 5/5=2,38=5,53=147/2;
 6/7=2,8=2,9=2,10=2,28=1/1;
 7/30=1/1,2,3,16;
 1/14=-1,18=20,19=15,26=4/3(2);
 2/9=110,15=1/2;
 99//99;
 2/9=110,15=1/2;
 3/5=44,7=101,11=2,16=1,25=1,30=1,70=32205,71=1,72=147,74=-53,75=-5/1,2,3;
 4/5=5,16=3,69=1/1;
 5/5=2,38=5,53=147/2;
 7/30=1/1,2,3,16;
 1/14=-1,18=20,19=15,26=4/3(-5);
 2/9=110,15=1/2;
 6/7=2,8=2,9=2,10=2,19=2,28=1/1;
 99/9=1/99;
 Leave Link    1 at Wed Feb 17 09:14:58 2021, MaxMem=           0 cpu:         1.9
 (Enter /opt/nce/packages/global/g09/l101.exe)
 -----
 Title
 -----
 Symbolic Z-matrix:
 Charge =  0 Multiplicity = 1
 C                    -1.96587   3.55795  -0.4129 
 C                    -2.25317   2.51937   0.47414 
 C                    -1.48663   1.34851   0.44676 
 C                    -0.43397   1.21038  -0.4751 
 C                    -0.19289   2.23549  -1.39782 
 C                    -0.94181   3.41256  -1.35496 
 C                    -0.41788  -1.18962  -0.46937 
 C                    -1.46858  -1.33736   0.45319 
 C                    -2.2193   -2.51831   0.48617 
 H                    -3.04103  -2.61356   1.19921 
 C                    -1.91804  -3.55714  -0.3959 
 C                    -0.89595  -3.40257  -1.33867 
 C                    -0.16293  -2.21576  -1.3872 
 H                    -3.07615   2.60689   1.18673 
 H                     0.6013    2.10304  -2.1345 
 H                    -0.73315   4.21395  -2.06703 
 H                    -2.49871  -4.48164  -0.36173 
 H                    -0.67663  -4.20452  -2.04689 
 C                     1.69233   0.02568  -0.05102 
 C                     2.39141  -1.17681   0.17752 
 C                     3.72533  -1.15866   0.58458 
 C                     3.70905   1.24034   0.57914 
 C                     4.40315   0.04598   0.7834 
 H                     4.23691  -2.1097    0.7538 
 H                     4.20757   2.19906   0.74396 
 H                     1.88953  -2.13416   0.05174 
 H                     5.4481    0.05373   1.09974 
 H                    -2.55887   4.47474  -0.38311 
 N                     0.34006   0.01558  -0.46695 
 H                     0.62945  -2.07607  -2.12447 
 S                    -1.83371   0.00584   1.56436 
 C                     2.37499   1.23851   0.172 
 H                     1.86023   2.18843   0.04196 
 
 NAtoms=     33 NQM=       33 NQMF=       0 NMMI=      0 NMMIF=      0
                NMic=       0 NMicF=      0.
                    Isotopes and Nuclear Properties:
 (Nuclear quadrupole moments (NQMom) in fm**2, nuclear magnetic moments (NMagM)
  in nuclear magnetons)

  Atom         1           2           3           4           5           6           7           8           9          10
 IAtWgt=          12          12          12          12          12          12          12          12          12           1
 AtmWgt=  12.0000000  12.0000000  12.0000000  12.0000000  12.0000000  12.0000000  12.0000000  12.0000000  12.0000000   1.0078250
 NucSpn=           0           0           0           0           0           0           0           0           0           1
 AtZEff=   0.0000000   0.0000000   0.0000000   0.0000000   0.0000000   0.0000000   0.0000000   0.0000000   0.0000000   0.0000000
 NQMom=    0.0000000   0.0000000   0.0000000   0.0000000   0.0000000   0.0000000   0.0000000   0.0000000   0.0000000   0.0000000
 NMagM=    0.0000000   0.0000000   0.0000000   0.0000000   0.0000000   0.0000000   0.0000000   0.0000000   0.0000000   2.7928460
 AtZNuc=   6.0000000   6.0000000   6.0000000   6.0000000   6.0000000   6.0000000   6.0000000   6.0000000   6.0000000   1.0000000

  Atom        11          12          13          14          15          16          17          18          19          20
 IAtWgt=          12          12          12           1           1           1           1           1          12          12
 AtmWgt=  12.0000000  12.0000000  12.0000000   1.0078250   1.0078250   1.0078250   1.0078250   1.0078250  12.0000000  12.0000000
 NucSpn=           0           0           0           1           1           1           1           1           0           0
 AtZEff=   0.0000000   0.0000000   0.0000000   0.0000000   0.0000000   0.0000000   0.0000000   0.0000000   0.0000000   0.0000000
 NQMom=    0.0000000   0.0000000   0.0000000   0.0000000   0.0000000   0.0000000   0.0000000   0.0000000   0.0000000   0.0000000
 NMagM=    0.0000000   0.0000000   0.0000000   2.7928460   2.7928460   2.7928460   2.7928460   2.7928460   0.0000000   0.0000000
 AtZNuc=   6.0000000   6.0000000   6.0000000   1.0000000   1.0000000   1.0000000   1.0000000   1.0000000   6.0000000   6.0000000

  Atom        21          22          23          24          25          26          27          28          29          30
 IAtWgt=          12          12          12           1           1           1           1           1          14           1
 AtmWgt=  12.0000000  12.0000000  12.0000000   1.0078250   1.0078250   1.0078250   1.0078250   1.0078250  14.0030740   1.0078250
 NucSpn=           0           0           0           1           1           1           1           1           2           1
 AtZEff=   0.0000000   0.0000000   0.0000000   0.0000000   0.0000000   0.0000000   0.0000000   0.0000000   0.0000000   0.0000000
 NQMom=    0.0000000   0.0000000   0.0000000   0.0000000   0.0000000   0.0000000   0.0000000   0.0000000   2.0440000   0.0000000
 NMagM=    0.0000000   0.0000000   0.0000000   2.7928460   2.7928460   2.7928460   2.7928460   2.7928460   0.4037610   2.7928460
 AtZNuc=   6.0000000   6.0000000   6.0000000   1.0000000   1.0000000   1.0000000   1.0000000   1.0000000   7.0000000   1.0000000

  Atom        31          32          33
 IAtWgt=          32          12           1
 AtmWgt=  31.9720718  12.0000000   1.0078250
 NucSpn=           0           0           1
 AtZEff=   0.0000000   0.0000000   0.0000000
 NQMom=    0.0000000   0.0000000   0.0000000
 NMagM=    0.0000000   0.0000000   2.7928460
 AtZNuc=  16.0000000   6.0000000   1.0000000
 Leave Link  101 at Wed Feb 17 09:14:58 2021, MaxMem=  5242880000 cpu:         4.8
 (Enter /opt/nce/packages/global/g09/l103.exe)

 GradGradGradGradGradGradGradGradGradGradGradGradGradGradGradGradGradGrad
 Berny optimization.
 Initialization pass.
                           ----------------------------
                           !    Initial Parameters    !
                           ! (Angstroms and Degrees)  !
 --------------------------                            --------------------------
 ! Name  Definition              Value          Derivative Info.                !
 --------------------------------------------------------------------------------
 ! R1    R(1,2)                  1.3957         estimate D2E/DX2                !
 ! R2    R(1,6)                  1.399          estimate D2E/DX2                !
 ! R3    R(1,28)                 1.0923         estimate D2E/DX2                !
 ! R4    R(2,3)                  1.3997         estimate D2E/DX2                !
 ! R5    R(2,14)                 1.0921         estimate D2E/DX2                !
 ! R6    R(3,4)                  1.4061         estimate D2E/DX2                !
 ! R7    R(3,31)                 1.7811         estimate D2E/DX2                !
 ! R8    R(4,5)                  1.4001         estimate D2E/DX2                !
 ! R9    R(4,29)                 1.4236         estimate D2E/DX2                !
 ! R10   R(5,6)                  1.3958         estimate D2E/DX2                !
 ! R11   R(5,15)                 1.0913         estimate D2E/DX2                !
 ! R12   R(6,16)                 1.0922         estimate D2E/DX2                !
 ! R13   R(7,8)                  1.406          estimate D2E/DX2                !
 ! R14   R(7,13)                 1.4001         estimate D2E/DX2                !
 ! R15   R(7,29)                 1.4237         estimate D2E/DX2                !
 ! R16   R(8,9)                  1.3997         estimate D2E/DX2                !
 ! R17   R(8,31)                 1.7811         estimate D2E/DX2                !
 ! R18   R(9,10)                 1.0921         estimate D2E/DX2                !
 ! R19   R(9,11)                 1.3957         estimate D2E/DX2                !
 ! R20   R(11,12)                1.3991         estimate D2E/DX2                !
 ! R21   R(11,17)                1.0923         estimate D2E/DX2                !
 ! R22   R(12,13)                1.3958         estimate D2E/DX2                !
 ! R23   R(12,18)                1.0922         estimate D2E/DX2                !
 ! R24   R(13,30)                1.0913         estimate D2E/DX2                !
 ! R25   R(19,20)                1.4096         estimate D2E/DX2                !
 ! R26   R(19,29)                1.4148         estimate D2E/DX2                !
 ! R27   R(19,32)                1.4095         estimate D2E/DX2                !
 ! R28   R(20,21)                1.3948         estimate D2E/DX2                !
 ! R29   R(20,26)                1.0882         estimate D2E/DX2                !
 ! R30   R(21,23)                1.3965         estimate D2E/DX2                !
 ! R31   R(21,24)                1.0931         estimate D2E/DX2                !
 ! R32   R(22,23)                1.3964         estimate D2E/DX2                !
 ! R33   R(22,25)                1.0931         estimate D2E/DX2                !
 ! R34   R(22,32)                1.3948         estimate D2E/DX2                !
 ! R35   R(23,27)                1.0918         estimate D2E/DX2                !
 ! R36   R(32,33)                1.0882         estimate D2E/DX2                !
 ! A1    A(2,1,6)              120.0857         estimate D2E/DX2                !
 ! A2    A(2,1,28)             119.7018         estimate D2E/DX2                !
 ! A3    A(6,1,28)             120.1977         estimate D2E/DX2                !
 ! A4    A(1,2,3)              119.8206         estimate D2E/DX2                !
 ! A5    A(1,2,14)             120.6744         estimate D2E/DX2                !
 ! A6    A(3,2,14)             119.5036         estimate D2E/DX2                !
 ! A7    A(2,3,4)              120.3311         estimate D2E/DX2                !
 ! A8    A(2,3,31)             120.7702         estimate D2E/DX2                !
 ! A9    A(4,3,31)             118.8966         estimate D2E/DX2                !
 ! A10   A(3,4,5)              119.2789         estimate D2E/DX2                !
 ! A11   A(3,4,29)             119.0612         estimate D2E/DX2                !
 ! A12   A(5,4,29)             121.6424         estimate D2E/DX2                !
 ! A13   A(4,5,6)              120.3184         estimate D2E/DX2                !
 ! A14   A(4,5,15)             118.7713         estimate D2E/DX2                !
 ! A15   A(6,5,15)             120.8999         estimate D2E/DX2                !
 ! A16   A(1,6,5)              120.0697         estimate D2E/DX2                !
 ! A17   A(1,6,16)             120.1732         estimate D2E/DX2                !
 ! A18   A(5,6,16)             119.753          estimate D2E/DX2                !
 ! A19   A(8,7,13)             119.2868         estimate D2E/DX2                !
 ! A20   A(8,7,29)             119.0563         estimate D2E/DX2                !
 ! A21   A(13,7,29)            121.6395         estimate D2E/DX2                !
 ! A22   A(7,8,9)              120.3249         estimate D2E/DX2                !
 ! A23   A(7,8,31)             118.9012         estimate D2E/DX2                !
 ! A24   A(9,8,31)             120.7717         estimate D2E/DX2                !
 ! A25   A(8,9,10)             119.5055         estimate D2E/DX2                !
 ! A26   A(8,9,11)             119.8216         estimate D2E/DX2                !
 ! A27   A(10,9,11)            120.6715         estimate D2E/DX2                !
 ! A28   A(9,11,12)            120.0883         estimate D2E/DX2                !
 ! A29   A(9,11,17)            119.7            estimate D2E/DX2                !
 ! A30   A(12,11,17)           120.1968         estimate D2E/DX2                !
 ! A31   A(11,12,13)           120.0684         estimate D2E/DX2                !
 ! A32   A(11,12,18)           120.1693         estimate D2E/DX2                !
 ! A33   A(13,12,18)           119.7582         estimate D2E/DX2                !
 ! A34   A(7,13,12)            120.3144         estimate D2E/DX2                !
 ! A35   A(7,13,30)            118.7682         estimate D2E/DX2                !
 ! A36   A(12,13,30)           120.907          estimate D2E/DX2                !
 ! A37   A(20,19,29)           121.0375         estimate D2E/DX2                !
 ! A38   A(20,19,32)           117.9168         estimate D2E/DX2                !
 ! A39   A(29,19,32)           121.0352         estimate D2E/DX2                !
 ! A40   A(19,20,21)           120.6992         estimate D2E/DX2                !
 ! A41   A(19,20,26)           120.1999         estimate D2E/DX2                !
 ! A42   A(21,20,26)           119.0949         estimate D2E/DX2                !
 ! A43   A(20,21,23)           121.1302         estimate D2E/DX2                !
 ! A44   A(20,21,24)           118.7801         estimate D2E/DX2                !
 ! A45   A(23,21,24)           120.0886         estimate D2E/DX2                !
 ! A46   A(23,22,25)           120.0941         estimate D2E/DX2                !
 ! A47   A(23,22,32)           121.13           estimate D2E/DX2                !
 ! A48   A(25,22,32)           118.7748         estimate D2E/DX2                !
 ! A49   A(21,23,22)           118.4067         estimate D2E/DX2                !
 ! A50   A(21,23,27)           120.7921         estimate D2E/DX2                !
 ! A51   A(22,23,27)           120.799          estimate D2E/DX2                !
 ! A52   A(4,29,7)             114.8971         estimate D2E/DX2                !
 ! A53   A(4,29,19)            121.021          estimate D2E/DX2                !
 ! A54   A(7,29,19)            121.0219         estimate D2E/DX2                !
 ! A55   A(3,31,8)              97.8802         estimate D2E/DX2                !
 ! A56   A(19,32,22)           120.7001         estimate D2E/DX2                !
 ! A57   A(19,32,33)           120.2054         estimate D2E/DX2                !
 ! A58   A(22,32,33)           119.0884         estimate D2E/DX2                !
 ! D1    D(6,1,2,3)              2.0071         estimate D2E/DX2                !
 ! D2    D(6,1,2,14)          -177.5489         estimate D2E/DX2                !
 ! D3    D(28,1,2,3)          -179.389          estimate D2E/DX2                !
 ! D4    D(28,1,2,14)            1.0549         estimate D2E/DX2                !
 ! D5    D(2,1,6,5)             -0.8782         estimate D2E/DX2                !
 ! D6    D(2,1,6,16)           178.3857         estimate D2E/DX2                !
 ! D7    D(28,1,6,5)          -179.4751         estimate D2E/DX2                !
 ! D8    D(28,1,6,16)           -0.2111         estimate D2E/DX2                !
 ! D9    D(1,2,3,4)             -0.3788         estimate D2E/DX2                !
 ! D10   D(1,2,3,31)          -179.8438         estimate D2E/DX2                !
 ! D11   D(14,2,3,4)           179.1825         estimate D2E/DX2                !
 ! D12   D(14,2,3,31)           -0.2825         estimate D2E/DX2                !
 ! D13   D(2,3,4,5)             -2.3602         estimate D2E/DX2                !
 ! D14   D(2,3,4,29)           179.1366         estimate D2E/DX2                !
 ! D15   D(31,3,4,5)           177.1148         estimate D2E/DX2                !
 ! D16   D(31,3,4,29)           -1.3884         estimate D2E/DX2                !
 ! D17   D(2,3,31,8)           143.6135         estimate D2E/DX2                !
 ! D18   D(4,3,31,8)           -35.8591         estimate D2E/DX2                !
 ! D19   D(3,4,5,6)              3.497          estimate D2E/DX2                !
 ! D20   D(3,4,5,15)          -177.6641         estimate D2E/DX2                !
 ! D21   D(29,4,5,6)          -178.0398         estimate D2E/DX2                !
 ! D22   D(29,4,5,15)            0.7991         estimate D2E/DX2                !
 ! D23   D(3,4,29,7)            49.1325         estimate D2E/DX2                !
 ! D24   D(3,4,29,19)         -111.2738         estimate D2E/DX2                !
 ! D25   D(5,4,29,7)          -129.334          estimate D2E/DX2                !
 ! D26   D(5,4,29,19)           70.2597         estimate D2E/DX2                !
 ! D27   D(4,5,6,1)             -1.8997         estimate D2E/DX2                !
 ! D28   D(4,5,6,16)           178.8333         estimate D2E/DX2                !
 ! D29   D(15,5,6,1)           179.2865         estimate D2E/DX2                !
 ! D30   D(15,5,6,16)            0.0194         estimate D2E/DX2                !
 ! D31   D(13,7,8,9)             2.3599         estimate D2E/DX2                !
 ! D32   D(13,7,8,31)         -177.1164         estimate D2E/DX2                !
 ! D33   D(29,7,8,9)          -179.1361         estimate D2E/DX2                !
 ! D34   D(29,7,8,31)            1.3876         estimate D2E/DX2                !
 ! D35   D(8,7,13,12)           -3.4968         estimate D2E/DX2                !
 ! D36   D(8,7,13,30)          177.6635         estimate D2E/DX2                !
 ! D37   D(29,7,13,12)         178.0393         estimate D2E/DX2                !
 ! D38   D(29,7,13,30)          -0.8005         estimate D2E/DX2                !
 ! D39   D(8,7,29,4)           -49.1317         estimate D2E/DX2                !
 ! D40   D(8,7,29,19)          111.2745         estimate D2E/DX2                !
 ! D41   D(13,7,29,4)          129.3357         estimate D2E/DX2                !
 ! D42   D(13,7,29,19)         -70.2581         estimate D2E/DX2                !
 ! D43   D(7,8,9,10)          -179.1868         estimate D2E/DX2                !
 ! D44   D(7,8,9,11)             0.3775         estimate D2E/DX2                !
 ! D45   D(31,8,9,10)            0.2797         estimate D2E/DX2                !
 ! D46   D(31,8,9,11)          179.8439         estimate D2E/DX2                !
 ! D47   D(7,8,31,3)            35.8597         estimate D2E/DX2                !
 ! D48   D(9,8,31,3)          -143.6142         estimate D2E/DX2                !
 ! D49   D(8,9,11,12)           -2.004          estimate D2E/DX2                !
 ! D50   D(8,9,11,17)          179.3929         estimate D2E/DX2                !
 ! D51   D(10,9,11,12)         177.5551         estimate D2E/DX2                !
 ! D52   D(10,9,11,17)          -1.0481         estimate D2E/DX2                !
 ! D53   D(9,11,12,13)           0.8749         estimate D2E/DX2                !
 ! D54   D(9,11,12,18)        -178.383          estimate D2E/DX2                !
 ! D55   D(17,11,12,13)        179.4711         estimate D2E/DX2                !
 ! D56   D(17,11,12,18)          0.2132         estimate D2E/DX2                !
 ! D57   D(11,12,13,7)           1.901          estimate D2E/DX2                !
 ! D58   D(11,12,13,30)       -179.2844         estimate D2E/DX2                !
 ! D59   D(18,12,13,7)        -178.838          estimate D2E/DX2                !
 ! D60   D(18,12,13,30)         -0.0234         estimate D2E/DX2                !
 ! D61   D(29,19,20,21)        179.8571         estimate D2E/DX2                !
 ! D62   D(29,19,20,26)         -1.0437         estimate D2E/DX2                !
 ! D63   D(32,19,20,21)         -1.3109         estimate D2E/DX2                !
 ! D64   D(32,19,20,26)        177.7883         estimate D2E/DX2                !
 ! D65   D(20,19,29,4)         169.0096         estimate D2E/DX2                !
 ! D66   D(20,19,29,7)           9.8            estimate D2E/DX2                !
 ! D67   D(32,19,29,4)          -9.7859         estimate D2E/DX2                !
 ! D68   D(32,19,29,7)        -168.9955         estimate D2E/DX2                !
 ! D69   D(20,19,32,22)          1.3097         estimate D2E/DX2                !
 ! D70   D(20,19,32,33)       -177.7849         estimate D2E/DX2                !
 ! D71   D(29,19,32,22)       -179.8583         estimate D2E/DX2                !
 ! D72   D(29,19,32,33)          1.0471         estimate D2E/DX2                !
 ! D73   D(19,20,21,23)          0.3197         estimate D2E/DX2                !
 ! D74   D(19,20,21,24)        179.9379         estimate D2E/DX2                !
 ! D75   D(26,20,21,23)       -178.7893         estimate D2E/DX2                !
 ! D76   D(26,20,21,24)          0.8289         estimate D2E/DX2                !
 ! D77   D(20,21,23,22)          0.6969         estimate D2E/DX2                !
 ! D78   D(20,21,23,27)       -179.8487         estimate D2E/DX2                !
 ! D79   D(24,21,23,22)       -178.9163         estimate D2E/DX2                !
 ! D80   D(24,21,23,27)          0.5381         estimate D2E/DX2                !
 ! D81   D(25,22,23,21)        178.918          estimate D2E/DX2                !
 ! D82   D(25,22,23,27)         -0.5363         estimate D2E/DX2                !
 ! D83   D(32,22,23,21)         -0.6981         estimate D2E/DX2                !
 ! D84   D(32,22,23,27)        179.8475         estimate D2E/DX2                !
 ! D85   D(23,22,32,19)         -0.3173         estimate D2E/DX2                !
 ! D86   D(23,22,32,33)        178.7872         estimate D2E/DX2                !
 ! D87   D(25,22,32,19)       -179.9384         estimate D2E/DX2                !
 ! D88   D(25,22,32,33)         -0.8338         estimate D2E/DX2                !
 --------------------------------------------------------------------------------
 Trust Radius=3.00D-01 FncErr=1.00D-07 GrdErr=1.00D-06
 Number of steps in this run=    192 maximum allowed number of steps=    198.
 GradGradGradGradGradGradGradGradGradGradGradGradGradGradGradGradGradGrad

 Leave Link  103 at Wed Feb 17 09:14:59 2021, MaxMem=  5242880000 cpu:         0.4
 (Enter /opt/nce/packages/global/g09/l202.exe)
                          Input orientation:                          
 ---------------------------------------------------------------------
 Center     Atomic      Atomic             Coordinates (Angstroms)
 Number     Number       Type             X           Y           Z
 ---------------------------------------------------------------------
      1          6           0       -1.965872    3.557948   -0.412902
      2          6           0       -2.253168    2.519367    0.474144
      3          6           0       -1.486629    1.348512    0.446759
      4          6           0       -0.433970    1.210384   -0.475097
      5          6           0       -0.192888    2.235487   -1.397816
      6          6           0       -0.941805    3.412564   -1.354961
      7          6           0       -0.417880   -1.189617   -0.469365
      8          6           0       -1.468582   -1.337363    0.453187
      9          6           0       -2.219298   -2.518310    0.486174
     10          1           0       -3.041027   -2.613564    1.199214
     11          6           0       -1.918035   -3.557138   -0.395900
     12          6           0       -0.895948   -3.402570   -1.338669
     13          6           0       -0.162927   -2.215764   -1.387196
     14          1           0       -3.076148    2.606890    1.186728
     15          1           0        0.601304    2.103043   -2.134497
     16          1           0       -0.733145    4.213953   -2.067033
     17          1           0       -2.498707   -4.481636   -0.361725
     18          1           0       -0.676625   -4.204520   -2.046893
     19          6           0        1.692326    0.025680   -0.051024
     20          6           0        2.391414   -1.176811    0.177515
     21          6           0        3.725331   -1.158657    0.584578
     22          6           0        3.709052    1.240343    0.579135
     23          6           0        4.403146    0.045981    0.783403
     24          1           0        4.236905   -2.109705    0.753795
     25          1           0        4.207568    2.199061    0.743959
     26          1           0        1.889530   -2.134165    0.051743
     27          1           0        5.448104    0.053734    1.099740
     28          1           0       -2.558872    4.474739   -0.383109
     29          7           0        0.340059    0.015583   -0.466952
     30          1           0        0.629453   -2.076072   -2.124470
     31         16           0       -1.833705    0.005836    1.564355
     32          6           0        2.374986    1.238513    0.171997
     33          1           0        1.860230    2.188433    0.041957
 ---------------------------------------------------------------------
                    Distance matrix (angstroms):
                    1          2          3          4          5
     1  C    0.000000
     2  C    1.395722   0.000000
     3  C    2.418739   1.399726   0.000000
     4  C    2.803863   2.433922   1.406054   0.000000
     5  C    2.421246   2.798138   2.421352   1.400131   0.000000
     6  C    1.399044   2.421384   2.793446   2.425212   1.395788
     7  C    4.993880   4.244414   2.902345   2.400062   3.555837
     8  C    4.996146   3.935782   2.685943   2.902266   4.221240
     9  C    6.147640   5.037805   3.935819   4.244361   5.500395
    10  H    6.468573   5.243418   4.322081   4.921650   6.194333
    11  C    7.115267   6.147618   4.996157   4.993795   6.126538
    12  C    7.102858   6.340164   5.109739   4.715774   5.682031
    13  C    6.126631   5.500469   4.221332   3.555823   4.451364
    14  H    2.167035   1.092123   2.158157   3.419502   3.889858
    15  H    3.416289   3.889260   3.404653   2.149940   1.091321
    16  H    2.164742   3.411696   3.885568   3.412505   2.157326
    17  H    8.057384   7.054999   5.972317   6.055996   7.177049
    18  H    8.036666   7.351991   6.140893   5.643634   6.490685
    19  C    5.098067   4.696935   3.478998   2.470728   3.201738
    20  C    6.461616   5.943220   4.635619   3.755982   4.561147
    21  C    7.458627   7.020150   5.785276   4.902556   5.550004
    22  C    6.209685   6.098770   5.198493   4.275153   4.485954
    23  C    7.370851   7.107728   6.041470   5.131993   5.538518
    24  H    8.482801   7.976689   6.694205   5.860908   6.567586
    25  H    6.426217   6.474296   5.765036   4.899740   4.894133
    26  H    6.890586   6.244656   4.866572   4.106363   5.052875
    27  H    8.338743   8.110506   7.084727   6.198124   6.543594
    28  H    1.092265   2.156807   3.407592   3.896111   3.412002
    29  N    4.227125   3.725510   2.438925   1.423635   2.465464
    30  H    6.434855   6.015011   4.776693   3.827805   4.449024
    31  S    4.067495   2.771705   1.781084   2.751283   4.054390
    32  C    4.956302   4.811620   3.872940   2.882665   3.170528
    33  H    4.089196   4.149258   3.474305   2.547014   2.508078
                    6          7          8          9         10
     6  C    0.000000
     7  C    4.715808   0.000000
     8  C    5.109667   1.406025   0.000000
     9  C    6.340113   2.433842   1.399749   0.000000
    10  H    6.873482   3.419456   2.158200   1.092125   0.000000
    11  C    7.102786   2.803751   2.418751   1.395700   2.166987
    12  C    6.815308   2.425160   2.793517   2.421409   3.415369
    13  C    5.682057   1.400140   2.421432   2.798162   3.889887
    14  H    3.415364   4.921636   4.321977   5.243343   5.220587
    15  H    2.168803   3.827925   4.776707   6.015032   6.828366
    16  H    1.092158   5.643625   6.140805   7.351930   7.912628
    17  H    8.107333   3.896000   3.407593   2.156769   2.494060
    18  H    7.653042   3.412504   3.885638   3.411682   4.319577
    19  C    4.484404   2.470815   3.479002   4.696943   5.561774
    20  C    5.875474   2.882837   3.873156   4.811814   5.711352
    21  C    6.814692   4.275272   5.198647   6.098931   6.948247
    22  C    5.485412   4.902614   5.785181   7.020075   7.797478
    23  C    6.668957   5.132097   6.041512   7.107791   7.915920
    24  H    7.858839   4.899970   5.765367   6.474653   7.308937
    25  H    5.691581   5.860893   6.693991   7.976506   8.712677
    26  H    6.384472   2.547129   3.474618   4.149550   5.084969
    27  H    7.624843   6.198208   7.084753   8.110544   8.898861
    28  H    2.165091   6.056089   5.972324   7.055048   7.278754
    29  N    3.737809   1.423722   2.438914   3.725503   4.595679
    30  H    5.760740   2.149903   3.404667   3.889270   4.980783
    31  S    4.574242   2.751306   1.781065   2.771727   2.907269
    32  C    4.249612   3.755963   4.635431   5.943052   6.725092
    33  H    3.361737   4.106392   4.866347   6.244462   6.958501
                   11         12         13         14         15
    11  C    0.000000
    12  C    1.399059   0.000000
    13  C    2.421230   1.395773   0.000000
    14  H    6.468476   6.873464   6.194347   0.000000
    15  H    6.434861   5.760806   4.449112   4.980768   0.000000
    16  H    8.036573   7.653002   6.490654   4.319638   2.498249
    17  H    1.092266   2.165096   3.411984   7.278623   7.490713
    18  H    2.164712   1.092157   2.157368   7.912605   6.436313
    19  C    5.098061   4.484428   3.201779   5.561746   3.137933
    20  C    4.956421   4.249655   3.170552   6.725261   4.394011
    21  C    6.209801   5.485458   4.485969   7.797567   5.271774
    22  C    7.458594   6.814737   5.550077   6.948062   4.214991
    23  C    7.370926   6.669040   5.538593   7.915855   5.215328
    24  H    6.426519   5.691756   4.894243   8.712890   6.269535
    25  H    8.482695   7.858848   6.567627   7.308549   4.615178
    26  H    4.089351   3.361694   2.507944   6.958718   4.938937
    27  H    8.338785   7.624885   6.543634   8.898823   6.176684
    28  H    8.057412   8.107429   7.177156   2.494158   4.321923
    29  N    4.227100   3.737830   2.465513   4.595650   2.684482
    30  H    3.416315   2.168854   1.091308   6.828297   4.179222
    31  S    4.067492   4.574294   4.054462   2.907189   4.899903
    32  C    6.461486   5.875438   4.561153   5.711129   3.035338
    33  H    6.890471   6.384509   5.052979   5.084627   2.515778
                   16         17         18         19         20
    16  H    0.000000
    17  H    9.035406   0.000000
    18  H    8.418687   2.497312   0.000000
    19  C    5.242979   6.162564   5.243092   0.000000
    20  C    6.622779   5.926713   4.850554   1.409588   0.000000
    21  C    7.468198   7.118731   5.964825   2.437161   1.394763
    22  C    5.964702   8.494853   7.468381   2.437148   2.782104
    23  C    7.202670   8.333439   7.202875   2.836411   2.430923
    24  H    8.523328   7.227649   6.031159   3.417965   2.146678
    25  H    6.030930   9.530392   8.523500   3.417898   3.875021
    26  H    7.187923   4.993816   3.908426   2.171263   1.088225
    27  H    8.095907   9.265920   8.096069   3.928220   3.421709
    28  H    2.497376   8.956603   9.035517   6.162556   7.533900
    29  N    4.619344   5.319271   4.619430   1.414823   2.458699
    30  H    6.436178   4.321966   2.498429   3.137872   3.035179
    31  S    5.666256   4.928429   5.666308   3.878497   4.601479
    32  C    4.850462   7.533780   6.622870   1.409513   2.415386
    33  H    3.908473   7.978290   7.188100   2.171253   3.409604
                   21         22         23         24         25
    21  C    0.000000
    22  C    2.399061   0.000000
    23  C    1.396466   1.396421   0.000000
    24  H    1.093085   3.395873   2.162289   0.000000
    25  H    3.395913   1.093081   2.162304   4.308877   0.000000
    26  H    2.146088   3.869898   3.406850   2.450234   4.962793
    27  H    2.168693   2.168726   1.091818   2.503428   2.503585
    28  H    8.494868   7.118574   8.333327   9.530479   7.227289
    29  N    3.734250   3.734227   4.251234   4.603529   4.603423
    30  H    4.214861   5.271814   5.215323   4.615111   6.269574
    31  S    5.763583   5.763404   6.285683   6.479570   6.479218
    32  C    2.782100   1.394811   2.430922   3.875022   2.146660
    33  H    3.869890   2.146061   3.406797   4.962790   2.450085
                   26         27         28         29         30
    26  H    0.000000
    27  H    4.306814   0.000000
    28  H    7.978408   9.265840   0.000000
    29  N    2.700245   5.343042   5.319295   0.000000
    30  H    2.515367   6.176650   7.490720   2.684425   0.000000
    31  S    4.553030   7.296774   4.928446   2.975156   4.899890
    32  C    3.409558   3.421763   5.926572   2.458606   4.393987
    33  H    4.322708   4.306818   4.993630   2.700220   4.939051
                   31         32         33
    31  S    0.000000
    32  C    4.601221   0.000000
    33  H    4.552646   1.088224   0.000000
 Symmetry turned off by external request.
 Stoichiometry    C18H13NS
 Framework group  C1[X(C18H13NS)]
 Deg. of freedom    93
 Full point group                 C1      NOp   1
 Rotational constants (GHZ):      0.3749666      0.3439519      0.2142863
 Leave Link  202 at Wed Feb 17 09:14:59 2021, MaxMem=  5242880000 cpu:         0.1
 (Enter /opt/nce/packages/global/g09/l301.exe)
 Standard basis: def2TZVP (5D, 7F)
 Ernie: Thresh=  0.10000D-02 Tol=  0.10000D-05 Strict=F.
   704 basis functions,  1142 primitive gaussians,   804 cartesian basis functions
    72 alpha electrons       72 beta electrons
       nuclear repulsion energy      1561.5731074347 Hartrees.
 IExCor= 4134 DFT=T Ex+Corr=M06L ExCW=0 ScaHFX=  0.000000
 ScaDFX=  1.000000  1.000000  1.000000  1.000000 ScalE2=  1.000000  1.000000
 IRadAn=      5 IRanWt=     -1 IRanGd=            0 ICorTp=0 IEmpDi=  4
 NAtoms=   33 NActive=   33 NUniq=   33 SFac= 1.00D+00 NAtFMM=   60 NAOKFM=F Big=F
 Integral buffers will be    131072 words long.
 Raffenetti 2 integral format.
 Two-electron integral symmetry is turned off.
 ------------------------------------------------------------------------------
 Polarizable Continuum Model (PCM)
 =================================
 Model                : PCM (using non-symmetric T matrix).
 Atomic radii         : SMD-Coulomb.
 Polarization charges : Total charges.
 Charge compensation  : None.
 Solution method      : On-the-fly selection.
 Cavity type          : VdW (van der Waals Surface) (Alpha=1.000).
 Cavity algorithm     : GePol (No added spheres)
                        Default sphere list used, NSphG=   33.
                        Lebedev-Laikov grids with approx.  5.0 points / Ang**2.
                        Smoothing algorithm: York/Karplus (Gamma=1.0000).
                        Polarization charges: spherical gaussians, with
                                              point-specific exponents (IZeta= 3).
                        Self-potential: point-specific (ISelfS= 7).
                        Self-field    : sphere-specific E.n sum rule (ISelfD= 2).
 1st derivatives      : Analytical E(r).r(x)/FMM algorithm (CHGder, D1EAlg=3).
                        Cavity 1st derivative terms included.
 Solvent              : n,n-DiMethylAcetamide, Eps=  37.781000 Eps(inf)=   2.067844
 ------------------------------------------------------------------------------
 GePol: Number of generator spheres                  =      33
 GePol: Total number of spheres                      =      33
 GePol: Number of exposed spheres                    =      33 (100.00%)
 GePol: Number of points                             =    2567
 GePol: Average weight of points                     =       0.11
 GePol: Minimum weight of points                     =   0.49D-11
 GePol: Maximum weight of points                     =    0.19854
 GePol: Number of points with low weight             =     142
 GePol: Fraction of low-weight points (<1% of avg)   =       5.53%
 GePol: Cavity surface area                          =    292.797 Ang**2
 GePol: Cavity volume                                =    293.541 Ang**3
 ------------------------------------------------------------------------------
 Atomic radii for non-electrostatic terms: SMD-CDS.
 ------------------------------------------------------------------------------
 PCM non-electrostatic energy =        -0.0051021016 Hartrees.
 Nuclear repulsion after PCM non-electrostatic terms =     1561.5680053331 Hartrees.
 Leave Link  301 at Wed Feb 17 09:14:59 2021, MaxMem=  5242880000 cpu:         1.9
 (Enter /opt/nce/packages/global/g09/l302.exe)
 NPDir=0 NMtPBC=     1 NCelOv=     1 NCel=       1 NClECP=     1 NCelD=      1
         NCelK=      1 NCelE2=     1 NClLst=     1 CellRange=     0.0.
 One-electron integrals computed using PRISM.
   1 Symmetry operations used in ECPInt.
 ECPInt:  NShTT=   37675 NPrTT=  118348 LenC2=   34059 LenP2D=   76440.
 LDataN:  DoStor=T MaxTD1= 6 Len=  172
 NBasis=   704 RedAO= T EigKep=  6.14D-06  NBF=   704
 NBsUse=   704 1.00D-06 EigRej= -1.00D+00 NBFU=   704
 Precomputing XC quadrature grid using
 IXCGrd= 4 IRadAn=           5 IRanWt=          -1 IRanGd=           0 AccXCQ= 0.00D+00.
 Generated NRdTot=       0 NPtTot=           0 NUsed=           0 NTot=          32
 NSgBfM=   792   792   792   792   792 MxSgAt=    33 MxSgA2=    33.
 Leave Link  302 at Wed Feb 17 09:15:00 2021, MaxMem=  5242880000 cpu:        13.1
 (Enter /opt/nce/packages/global/g09/l303.exe)
 DipDrv:  MaxL=1.
 Leave Link  303 at Wed Feb 17 09:15:00 2021, MaxMem=  5242880000 cpu:         1.4
 (Enter /opt/nce/packages/global/g09/l401.exe)
 ExpMin= 9.52D-02 ExpMax= 6.07D+04 ExpMxC= 2.07D+03 IAcc=3 IRadAn=         5 AccDes= 0.00D+00
 Harris functional with IExCor= 1009 and IRadAn=       5 diagonalized for initial guess.
 HarFok:  IExCor= 1009 AccDes= 0.00D+00 IRadAn=         5 IDoV= 1 UseB2=F ITyADJ=14
 ICtDFT=  3500011 ScaDFX=  1.000000  1.000000  1.000000  1.000000
 FoFCou: FMM=F IPFlag=           0 FMFlag=      100000 FMFlg1=           0
         NFxFlg=           0 DoJE=T BraDBF=F KetDBF=T FulRan=T
         wScrn=  0.000000 ICntrl=     500 IOpCl=  0 I1Cent=   200000004 NGrid=           0
         NMat0=    1 NMatS0=      1 NMatT0=    0 NMatD0=    1 NMtDS0=    0 NMtDT0=    0
 Symmetry not used in FoFCou.
 Harris En= -1146.11496735093    
 JPrj=0 DoOrth=F DoCkMO=F.
 Leave Link  401 at Wed Feb 17 09:15:06 2021, MaxMem=  5242880000 cpu:        66.3
 (Enter /opt/nce/packages/global/g09/l502.exe)
 Closed shell SCF:
 Using DIIS extrapolation, IDIIS=  1040.
 Two-electron integral symmetry not used.
 IVT=     1972336 IEndB=     1972336 NGot=  5242880000 MDV=  5241571525
 LenX=  5241571525 LenY=  5240924305
 Requested convergence on RMS density matrix=1.00D-08 within 128 cycles.
 Requested convergence on MAX density matrix=1.00D-06.
 Requested convergence on             energy=1.00D-06.
 No special actions if energy rises.
 Fock matrices will be formed incrementally for  20 cycles.

 Cycle   1  Pass 1  IDiag  1:
 FoFJK:  IHMeth= 1 ICntrl=     500 DoSepK=F KAlg= 0 I1Cent=   0 FoldK=F
 IRaf= 810000000 NMat=   1 IRICut=       1 DoRegI=T DoRafI=F ISym2E= 0.
 FoFCou: FMM=F IPFlag=           0 FMFlag=      100000 FMFlg1=           0
         NFxFlg=           0 DoJE=T BraDBF=F KetDBF=F FulRan=T
         wScrn=  0.000000 ICntrl=     500 IOpCl=  0 I1Cent=           0 NGrid=           0
         NMat0=    1 NMatS0=      1 NMatT0=    0 NMatD0=    1 NMtDS0=    0 NMtDT0=    0
 Symmetry not used in FoFCou.
 Inv3:  Mode=1 IEnd=    19768467.
 Iteration    1 A*A^-1 deviation from unit magnitude is 8.33D-15 for   2556.
 Iteration    1 A*A^-1 deviation from orthogonality  is 2.43D-15 for   2556   2433.
 Iteration    1 A^-1*A deviation from unit magnitude is 8.22D-15 for   2556.
 Iteration    1 A^-1*A deviation from orthogonality  is 1.76D-06 for   2308   2284.
 Iteration    2 A*A^-1 deviation from unit magnitude is 2.89D-15 for    223.
 Iteration    2 A*A^-1 deviation from orthogonality  is 3.15D-15 for   2558    661.
 Iteration    2 A^-1*A deviation from unit magnitude is 9.99D-16 for    158.
 Iteration    2 A^-1*A deviation from orthogonality  is 7.77D-16 for   2567   2308.
 E= -1146.39756837933    
 DIIS: error= 1.79D-02 at cycle   1 NSaved=   1.
 NSaved= 1 IEnMin= 1 EnMin= -1146.39756837933     IErMin= 1 ErrMin= 1.79D-02
 ErrMax= 1.79D-02  0.00D+00 EMaxC= 1.00D-01 BMatC= 5.50D-01 BMatP= 5.50D-01
 IDIUse=3 WtCom= 8.21D-01 WtEn= 1.79D-01
 Coeff-Com:  0.100D+01
 Coeff-En:   0.100D+01
 Coeff:      0.100D+01
 Gap=     0.287 Goal=   None    Shift=    0.000
 GapD=    0.287 DampG=1.000 DampE=0.500 DampFc=0.5000 IDamp=-1.
 Damping current iteration by 5.00D-01
 RMSDP=3.55D-03 MaxDP=2.18D-01              OVMax= 3.07D-01

 Cycle   2  Pass 1  IDiag  1:
 RMSU=  1.77D-03    CP:  9.91D-01
 E= -1146.53898245558     Delta-E=       -0.141414076249 Rises=F Damp=T
 DIIS: error= 8.10D-03 at cycle   2 NSaved=   2.
 NSaved= 2 IEnMin= 2 EnMin= -1146.53898245558     IErMin= 2 ErrMin= 8.10D-03
 ErrMax= 8.10D-03  0.00D+00 EMaxC= 1.00D-01 BMatC= 8.27D-02 BMatP= 5.50D-01
 IDIUse=3 WtCom= 9.19D-01 WtEn= 8.10D-02
 Coeff-Com:  0.125D+00 0.875D+00
 Coeff-En:   0.313D+00 0.687D+00
 Coeff:      0.141D+00 0.859D+00
 Gap=     0.192 Goal=   None    Shift=    0.000
 RMSDP=1.57D-03 MaxDP=8.58D-02 DE=-1.41D-01 OVMax= 3.02D-01

 Cycle   3  Pass 1  IDiag  1:
 RMSU=  1.47D-03    CP:  9.62D-01  7.11D-01
 E= -1146.76425219119     Delta-E=       -0.225269735613 Rises=F Damp=F
 DIIS: error= 1.22D-02 at cycle   3 NSaved=   3.
 NSaved= 3 IEnMin= 3 EnMin= -1146.76425219119     IErMin= 2 ErrMin= 8.10D-03
 ErrMax= 1.22D-02  0.00D+00 EMaxC= 1.00D-01 BMatC= 8.84D-02 BMatP= 8.27D-02
 IDIUse=3 WtCom= 8.78D-01 WtEn= 1.22D-01
 Coeff-Com: -0.457D-01 0.523D+00 0.523D+00
 Coeff-En:   0.000D+00 0.000D+00 0.100D+01
 Coeff:     -0.401D-01 0.459D+00 0.581D+00
 Gap=     0.148 Goal=   None    Shift=    0.000
 RMSDP=7.71D-04 MaxDP=4.49D-02 DE=-2.25D-01 OVMax= 1.81D-01

 Cycle   4  Pass 1  IDiag  1:
 RMSU=  7.16D-04    CP:  9.62D-01  8.01D-01  8.38D-01
 E= -1146.80488081105     Delta-E=       -0.040628619857 Rises=F Damp=F
 DIIS: error= 1.02D-02 at cycle   4 NSaved=   4.
 NSaved= 4 IEnMin= 4 EnMin= -1146.80488081105     IErMin= 2 ErrMin= 8.10D-03
 ErrMax= 1.02D-02  0.00D+00 EMaxC= 1.00D-01 BMatC= 5.14D-02 BMatP= 8.27D-02
 IDIUse=3 WtCom= 8.98D-01 WtEn= 1.02D-01
 Coeff-Com: -0.488D-01 0.160D+00 0.449D+00 0.440D+00
 Coeff-En:   0.000D+00 0.000D+00 0.403D+00 0.597D+00
 Coeff:     -0.438D-01 0.144D+00 0.444D+00 0.456D+00
 Gap=     0.139 Goal=   None    Shift=    0.000
 RMSDP=3.71D-04 MaxDP=1.90D-02 DE=-4.06D-02 OVMax= 9.16D-02

 Cycle   5  Pass 1  IDiag  1:
 RMSU=  2.18D-04    CP:  9.59D-01  7.97D-01  8.65D-01  5.86D-01
 E= -1146.86175344962     Delta-E=       -0.056872638573 Rises=F Damp=F
 DIIS: error= 1.14D-03 at cycle   5 NSaved=   5.
 NSaved= 5 IEnMin= 5 EnMin= -1146.86175344962     IErMin= 5 ErrMin= 1.14D-03
 ErrMax= 1.14D-03  0.00D+00 EMaxC= 1.00D-01 BMatC= 1.15D-03 BMatP= 5.14D-02
 IDIUse=3 WtCom= 9.89D-01 WtEn= 1.14D-02
 Coeff-Com: -0.184D-01 0.405D-01 0.194D+00 0.232D+00 0.551D+00
 Coeff-En:   0.000D+00 0.000D+00 0.000D+00 0.000D+00 0.100D+01
 Coeff:     -0.181D-01 0.401D-01 0.192D+00 0.230D+00 0.556D+00
 Gap=     0.129 Goal=   None    Shift=    0.000
 RMSDP=1.35D-04 MaxDP=9.34D-03 DE=-5.69D-02 OVMax= 1.40D-02

 Cycle   6  Pass 1  IDiag  1:
 RMSU=  1.10D-04    CP:  9.62D-01  7.91D-01  8.65D-01  5.49D-01  6.79D-01
 E= -1146.86285066410     Delta-E=       -0.001097214474 Rises=F Damp=F
 DIIS: error= 4.46D-04 at cycle   6 NSaved=   6.
 NSaved= 6 IEnMin= 6 EnMin= -1146.86285066410     IErMin= 6 ErrMin= 4.46D-04
 ErrMax= 4.46D-04  0.00D+00 EMaxC= 1.00D-01 BMatC= 1.49D-04 BMatP= 1.15D-03
 IDIUse=3 WtCom= 9.96D-01 WtEn= 4.46D-03
 Coeff-Com: -0.419D-02 0.459D-02 0.493D-01 0.647D-01 0.297D+00 0.589D+00
 Coeff-En:   0.000D+00 0.000D+00 0.000D+00 0.000D+00 0.718D-01 0.928D+00
 Coeff:     -0.418D-02 0.457D-02 0.491D-01 0.644D-01 0.296D+00 0.590D+00
 Gap=     0.130 Goal=   None    Shift=    0.000
 RMSDP=2.96D-05 MaxDP=1.57D-03 DE=-1.10D-03 OVMax= 4.82D-03

 Cycle   7  Pass 1  IDiag  1:
 RMSU=  2.37D-05    CP:  9.62D-01  7.92D-01  8.62D-01  5.45D-01  7.27D-01
                    CP:  1.12D+00
 E= -1146.86298261082     Delta-E=       -0.000131946721 Rises=F Damp=F
 DIIS: error= 1.52D-04 at cycle   7 NSaved=   7.
 NSaved= 7 IEnMin= 7 EnMin= -1146.86298261082     IErMin= 7 ErrMin= 1.52D-04
 ErrMax= 1.52D-04  0.00D+00 EMaxC= 1.00D-01 BMatC= 1.72D-05 BMatP= 1.49D-04
 IDIUse=3 WtCom= 9.98D-01 WtEn= 1.52D-03
 Coeff-Com: -0.105D-02 0.230D-03 0.103D-01 0.138D-01 0.106D+00 0.317D+00
 Coeff-Com:  0.554D+00
 Coeff-En:   0.000D+00 0.000D+00 0.000D+00 0.000D+00 0.000D+00 0.447D-01
 Coeff-En:   0.955D+00
 Coeff:     -0.105D-02 0.230D-03 0.103D-01 0.138D-01 0.106D+00 0.316D+00
 Coeff:      0.555D+00
 Gap=     0.130 Goal=   None    Shift=    0.000
 RMSDP=1.21D-05 MaxDP=1.11D-03 DE=-1.32D-04 OVMax= 1.76D-03

 Cycle   8  Pass 1  IDiag  1:
 RMSU=  8.85D-06    CP:  9.62D-01  7.91D-01  8.62D-01  5.46D-01  7.49D-01
                    CP:  1.17D+00  9.77D-01
 E= -1146.86299673137     Delta-E=       -0.000014120554 Rises=F Damp=F
 DIIS: error= 6.43D-05 at cycle   8 NSaved=   8.
 NSaved= 8 IEnMin= 8 EnMin= -1146.86299673137     IErMin= 8 ErrMin= 6.43D-05
 ErrMax= 6.43D-05  0.00D+00 EMaxC= 1.00D-01 BMatC= 3.26D-06 BMatP= 1.72D-05
 IDIUse=1 WtCom= 1.00D+00 WtEn= 0.00D+00
 Coeff-Com: -0.994D-04-0.336D-03-0.118D-02-0.184D-02 0.205D-01 0.109D+00
 Coeff-Com:  0.343D+00 0.531D+00
 Coeff:     -0.994D-04-0.336D-03-0.118D-02-0.184D-02 0.205D-01 0.109D+00
 Coeff:      0.343D+00 0.531D+00
 Gap=     0.130 Goal=   None    Shift=    0.000
 RMSDP=5.96D-06 MaxDP=3.45D-04 DE=-1.41D-05 OVMax= 6.39D-04

 Cycle   9  Pass 1  IDiag  1:
 RMSU=  3.87D-06    CP:  9.62D-01  7.91D-01  8.62D-01  5.45D-01  7.55D-01
                    CP:  1.21D+00  1.07D+00  1.05D+00
 E= -1146.86299999023     Delta-E=       -0.000003258853 Rises=F Damp=F
 DIIS: error= 2.20D-05 at cycle   9 NSaved=   9.
 NSaved= 9 IEnMin= 9 EnMin= -1146.86299999023     IErMin= 9 ErrMin= 2.20D-05
 ErrMax= 2.20D-05  0.00D+00 EMaxC= 1.00D-01 BMatC= 2.88D-07 BMatP= 3.26D-06
 IDIUse=1 WtCom= 1.00D+00 WtEn= 0.00D+00
 Coeff-Com: -0.971D-05-0.590D-04-0.143D-02-0.227D-02 0.788D-03 0.255D-01
 Coeff-Com:  0.121D+00 0.287D+00 0.569D+00
 Coeff:     -0.971D-05-0.590D-04-0.143D-02-0.227D-02 0.788D-03 0.255D-01
 Coeff:      0.121D+00 0.287D+00 0.569D+00
 Gap=     0.130 Goal=   None    Shift=    0.000
 RMSDP=3.03D-06 MaxDP=1.72D-04 DE=-3.26D-06 OVMax= 1.93D-04

 Cycle  10  Pass 1  IDiag  1:
 RMSU=  1.39D-06    CP:  9.62D-01  7.90D-01  8.62D-01  5.44D-01  7.55D-01
                    CP:  1.23D+00  1.09D+00  1.17D+00  1.07D+00
 E= -1146.86300026359     Delta-E=       -0.000000273360 Rises=F Damp=F
 DIIS: error= 7.47D-06 at cycle  10 NSaved=  10.
 NSaved=10 IEnMin=10 EnMin= -1146.86300026359     IErMin=10 ErrMin= 7.47D-06
 ErrMax= 7.47D-06  0.00D+00 EMaxC= 1.00D-01 BMatC= 4.44D-08 BMatP= 2.88D-07
 IDIUse=1 WtCom= 1.00D+00 WtEn= 0.00D+00
 Coeff-Com: -0.240D-04 0.823D-04-0.522D-03-0.862D-03-0.364D-02-0.724D-02
 Coeff-Com:  0.213D-03 0.537D-01 0.309D+00 0.649D+00
 Coeff:     -0.240D-04 0.823D-04-0.522D-03-0.862D-03-0.364D-02-0.724D-02
 Coeff:      0.213D-03 0.537D-01 0.309D+00 0.649D+00
 Gap=     0.130 Goal=   None    Shift=    0.000
 RMSDP=1.55D-06 MaxDP=1.45D-04 DE=-2.73D-07 OVMax= 9.51D-05

 Cycle  11  Pass 1  IDiag  1:
 RMSU=  5.38D-07    CP:  9.62D-01  7.90D-01  8.62D-01  5.44D-01  7.57D-01
                    CP:  1.23D+00  1.12D+00  1.23D+00  1.23D+00  1.07D+00
 E= -1146.86300030205     Delta-E=       -0.000000038468 Rises=F Damp=F
 DIIS: error= 4.73D-06 at cycle  11 NSaved=  11.
 NSaved=11 IEnMin=11 EnMin= -1146.86300030205     IErMin=11 ErrMin= 4.73D-06
 ErrMax= 4.73D-06  0.00D+00 EMaxC= 1.00D-01 BMatC= 1.10D-08 BMatP= 4.44D-08
 IDIUse=1 WtCom= 1.00D+00 WtEn= 0.00D+00
 Coeff-Com: -0.235D-04 0.783D-04-0.958D-04-0.177D-03-0.238D-02-0.815D-02
 Coeff-Com: -0.167D-01-0.628D-02 0.117D+00 0.415D+00 0.502D+00
 Coeff:     -0.235D-04 0.783D-04-0.958D-04-0.177D-03-0.238D-02-0.815D-02
 Coeff:     -0.167D-01-0.628D-02 0.117D+00 0.415D+00 0.502D+00
 Gap=     0.130 Goal=   None    Shift=    0.000
 RMSDP=4.85D-07 MaxDP=4.96D-05 DE=-3.85D-08 OVMax= 4.27D-05

 Cycle  12  Pass 1  IDiag  1:
 RMSU=  1.86D-07    CP:  9.62D-01  7.90D-01  8.61D-01  5.44D-01  7.57D-01
                    CP:  1.24D+00  1.12D+00  1.25D+00  1.28D+00  1.18D+00
                    CP:  1.07D+00
 E= -1146.86300031331     Delta-E=       -0.000000011258 Rises=F Damp=F
 DIIS: error= 1.49D-06 at cycle  12 NSaved=  12.
 NSaved=12 IEnMin=12 EnMin= -1146.86300031331     IErMin=12 ErrMin= 1.49D-06
 ErrMax= 1.49D-06  0.00D+00 EMaxC= 1.00D-01 BMatC= 7.07D-10 BMatP= 1.10D-08
 IDIUse=1 WtCom= 1.00D+00 WtEn= 0.00D+00
 Coeff-Com: -0.848D-05 0.255D-04 0.946D-05 0.165D-04-0.772D-03-0.310D-02
 Coeff-Com: -0.820D-02-0.103D-01 0.156D-01 0.121D+00 0.250D+00 0.635D+00
 Coeff:     -0.848D-05 0.255D-04 0.946D-05 0.165D-04-0.772D-03-0.310D-02
 Coeff:     -0.820D-02-0.103D-01 0.156D-01 0.121D+00 0.250D+00 0.635D+00
 Gap=     0.130 Goal=   None    Shift=    0.000
 RMSDP=1.94D-07 MaxDP=1.69D-05 DE=-1.13D-08 OVMax= 1.06D-05

 Cycle  13  Pass 1  IDiag  1:
 RMSU=  6.58D-08    CP:  9.62D-01  7.90D-01  8.61D-01  5.44D-01  7.57D-01
                    CP:  1.24D+00  1.12D+00  1.26D+00  1.30D+00  1.22D+00
                    CP:  1.17D+00  1.08D+00
 E= -1146.86300031390     Delta-E=       -0.000000000585 Rises=F Damp=F
 DIIS: error= 7.41D-07 at cycle  13 NSaved=  13.
 NSaved=13 IEnMin=13 EnMin= -1146.86300031390     IErMin=13 ErrMin= 7.41D-07
 ErrMax= 7.41D-07  0.00D+00 EMaxC= 1.00D-01 BMatC= 1.80D-10 BMatP= 7.07D-10
 IDIUse=1 WtCom= 1.00D+00 WtEn= 0.00D+00
 Coeff-Com: -0.112D-05 0.172D-05 0.175D-04 0.345D-04-0.668D-04-0.481D-03
 Coeff-Com: -0.209D-02-0.498D-02-0.102D-01 0.347D-02 0.678D-01 0.394D+00
 Coeff-Com:  0.553D+00
 Coeff:     -0.112D-05 0.172D-05 0.175D-04 0.345D-04-0.668D-04-0.481D-03
 Coeff:     -0.209D-02-0.498D-02-0.102D-01 0.347D-02 0.678D-01 0.394D+00
 Coeff:      0.553D+00
 Gap=     0.130 Goal=   None    Shift=    0.000
 RMSDP=6.82D-08 MaxDP=5.65D-06 DE=-5.85D-10 OVMax= 5.03D-06

 Cycle  14  Pass 1  IDiag  1:
 RMSU=  2.88D-08    CP:  9.62D-01  7.90D-01  8.61D-01  5.44D-01  7.57D-01
                    CP:  1.24D+00  1.12D+00  1.26D+00  1.30D+00  1.24D+00
                    CP:  1.20D+00  1.13D+00  1.03D+00
 E= -1146.86300031408     Delta-E=       -0.000000000181 Rises=F Damp=F
 DIIS: error= 1.19D-07 at cycle  14 NSaved=  14.
 NSaved=14 IEnMin=14 EnMin= -1146.86300031408     IErMin=14 ErrMin= 1.19D-07
 ErrMax= 1.19D-07  0.00D+00 EMaxC= 1.00D-01 BMatC= 6.81D-12 BMatP= 1.80D-10
 IDIUse=1 WtCom= 1.00D+00 WtEn= 0.00D+00
 Coeff-Com:  0.906D-07-0.928D-06 0.657D-05 0.111D-04 0.647D-04 0.126D-03
 Coeff-Com:  0.355D-04-0.693D-03-0.492D-02-0.115D-01-0.105D-02 0.823D-01
 Coeff-Com:  0.205D+00 0.730D+00
 Coeff:      0.906D-07-0.928D-06 0.657D-05 0.111D-04 0.647D-04 0.126D-03
 Coeff:      0.355D-04-0.693D-03-0.492D-02-0.115D-01-0.105D-02 0.823D-01
 Coeff:      0.205D+00 0.730D+00
 Gap=     0.130 Goal=   None    Shift=    0.000
 RMSDP=2.30D-08 MaxDP=2.16D-06 DE=-1.81D-10 OVMax= 1.46D-06

 Cycle  15  Pass 1  IDiag  1:
 RMSU=  7.52D-09    CP:  9.62D-01  7.90D-01  8.61D-01  5.44D-01  7.57D-01
                    CP:  1.24D+00  1.12D+00  1.27D+00  1.30D+00  1.25D+00
                    CP:  1.21D+00  1.16D+00  1.12D+00  1.11D+00
 E= -1146.86300031412     Delta-E=       -0.000000000037 Rises=F Damp=F
 DIIS: error= 5.74D-08 at cycle  15 NSaved=  15.
 NSaved=15 IEnMin=15 EnMin= -1146.86300031412     IErMin=15 ErrMin= 5.74D-08
 ErrMax= 5.74D-08  0.00D+00 EMaxC= 1.00D-01 BMatC= 2.27D-12 BMatP= 6.81D-12
 IDIUse=1 WtCom= 1.00D+00 WtEn= 0.00D+00
 Coeff-Com:  0.214D-06-0.829D-06 0.135D-05 0.205D-05 0.476D-04 0.130D-03
 Coeff-Com:  0.262D-03 0.186D-03-0.173D-02-0.748D-02-0.888D-02 0.321D-02
 Coeff-Com:  0.583D-01 0.440D+00 0.516D+00
 Coeff:      0.214D-06-0.829D-06 0.135D-05 0.205D-05 0.476D-04 0.130D-03
 Coeff:      0.262D-03 0.186D-03-0.173D-02-0.748D-02-0.888D-02 0.321D-02
 Coeff:      0.583D-01 0.440D+00 0.516D+00
 Gap=     0.130 Goal=   None    Shift=    0.000
 RMSDP=6.24D-09 MaxDP=5.36D-07 DE=-3.73D-11 OVMax= 6.60D-07

 Error on total polarization charges =  0.04908
 SCF Done:  E(RM06L) =  -1146.86300031     A.U. after   15 cycles
            NFock= 15  Conv=0.62D-08     -V/T= 2.0039
 KE= 1.142395050460D+03 PE=-5.808193186149D+03 EE= 1.957367130042D+03
 SMD-CDS (non-electrostatic) energy       (kcal/mol) =      -3.20
 (included in total energy above)
 Leave Link  502 at Wed Feb 17 09:22:14 2021, MaxMem=  5242880000 cpu:      5096.9
 (Enter /opt/nce/packages/global/g09/l601.exe)
 Copying SCF densities to generalized density rwf, IOpCl= 0 IROHF=0.

 **********************************************************************

            Population analysis using the SCF density.

 **********************************************************************

 Alpha  occ. eigenvalues --  -88.54432 -14.21170 -10.10033 -10.09949 -10.09948
 Alpha  occ. eigenvalues --  -10.09102 -10.09102 -10.06097 -10.06096 -10.05863
 Alpha  occ. eigenvalues --  -10.05862 -10.05663 -10.05663 -10.05607 -10.05606
 Alpha  occ. eigenvalues --  -10.05012 -10.05011 -10.04559 -10.04558 -10.04098
 Alpha  occ. eigenvalues --   -7.90523  -5.81675  -5.81274  -5.80618  -0.94010
 Alpha  occ. eigenvalues --   -0.83013  -0.82751  -0.80369  -0.76775  -0.72782
 Alpha  occ. eigenvalues --   -0.71921  -0.71833  -0.70526  -0.68837  -0.65058
 Alpha  occ. eigenvalues --   -0.59523  -0.59383  -0.56883  -0.56130  -0.55925
 Alpha  occ. eigenvalues --   -0.52855  -0.49777  -0.49587  -0.45710  -0.44549
 Alpha  occ. eigenvalues --   -0.44261  -0.43119  -0.42438  -0.40988  -0.40374
 Alpha  occ. eigenvalues --   -0.40257  -0.38999  -0.38831  -0.37905  -0.37323
 Alpha  occ. eigenvalues --   -0.35931  -0.34449  -0.34335  -0.33961  -0.32550
 Alpha  occ. eigenvalues --   -0.32030  -0.31583  -0.31016  -0.30127  -0.28722
 Alpha  occ. eigenvalues --   -0.27636  -0.24281  -0.24162  -0.23494  -0.23227
 Alpha  occ. eigenvalues --   -0.20400  -0.17829
 Alpha virt. eigenvalues --   -0.04808  -0.04464  -0.04202  -0.04140  -0.02577
 Alpha virt. eigenvalues --   -0.01469   0.00230   0.03992   0.06246   0.07328
 Alpha virt. eigenvalues --    0.07785   0.08749   0.09187   0.09227   0.10024
 Alpha virt. eigenvalues --    0.10218   0.10730   0.10947   0.11710   0.12406
 Alpha virt. eigenvalues --    0.12677   0.12891   0.12917   0.13377   0.14011
 Alpha virt. eigenvalues --    0.15363   0.16581   0.17469   0.18135   0.18809
 Alpha virt. eigenvalues --    0.18932   0.20276   0.21018   0.21469   0.21969
 Alpha virt. eigenvalues --    0.22265   0.22991   0.23160   0.23455   0.23557
 Alpha virt. eigenvalues --    0.24338   0.24388   0.24683   0.25167   0.25599
 Alpha virt. eigenvalues --    0.26144   0.26380   0.26940   0.27003   0.27462
 Alpha virt. eigenvalues --    0.27606   0.28419   0.28894   0.29115   0.29497
 Alpha virt. eigenvalues --    0.30455   0.31066   0.31139   0.31765   0.31905
 Alpha virt. eigenvalues --    0.32313   0.32743   0.33013   0.33576   0.34247
 Alpha virt. eigenvalues --    0.34484   0.35091   0.35267   0.35545   0.35648
 Alpha virt. eigenvalues --    0.36925   0.37373   0.37459   0.38058   0.38082
 Alpha virt. eigenvalues --    0.38735   0.38873   0.39726   0.40383   0.40621
 Alpha virt. eigenvalues --    0.40635   0.41107   0.41515   0.41696   0.42101
 Alpha virt. eigenvalues --    0.42311   0.43389   0.43425   0.45203   0.45240
 Alpha virt. eigenvalues --    0.46398   0.46657   0.47115   0.47782   0.47788
 Alpha virt. eigenvalues --    0.48284   0.48474   0.48761   0.49181   0.50238
 Alpha virt. eigenvalues --    0.50809   0.50997   0.51575   0.51837   0.53034
 Alpha virt. eigenvalues --    0.53416   0.54050   0.54695   0.56110   0.56666
 Alpha virt. eigenvalues --    0.56817   0.58908   0.59358   0.60125   0.61249
 Alpha virt. eigenvalues --    0.61354   0.63696   0.63905   0.64368   0.64519
 Alpha virt. eigenvalues --    0.65715   0.65839   0.66018   0.67167   0.67962
 Alpha virt. eigenvalues --    0.68352   0.68513   0.68587   0.69088   0.70152
 Alpha virt. eigenvalues --    0.70666   0.70680   0.71682   0.72316   0.73217
 Alpha virt. eigenvalues --    0.73378   0.74574   0.74703   0.76056   0.76216
 Alpha virt. eigenvalues --    0.77443   0.77659   0.77948   0.79604   0.80227
 Alpha virt. eigenvalues --    0.81653   0.82299   0.82792   0.83984   0.84347
 Alpha virt. eigenvalues --    0.85299   0.85310   0.86588   0.87080   0.87263
 Alpha virt. eigenvalues --    0.88072   0.88368   0.88841   0.89756   0.91098
 Alpha virt. eigenvalues --    0.91812   0.92324   0.92686   0.94963   0.95361
 Alpha virt. eigenvalues --    0.96163   0.97172   0.98214   0.99766   1.00183
 Alpha virt. eigenvalues --    1.02831   1.03915   1.04254   1.04986   1.06253
 Alpha virt. eigenvalues --    1.07238   1.07245   1.08424   1.09081   1.09688
 Alpha virt. eigenvalues --    1.11470   1.11590   1.11803   1.13769   1.14215
 Alpha virt. eigenvalues --    1.14841   1.15257   1.17046   1.18480   1.19065
 Alpha virt. eigenvalues --    1.19556   1.19821   1.21854   1.22266   1.22793
 Alpha virt. eigenvalues --    1.23167   1.24497   1.25199   1.25352   1.25991
 Alpha virt. eigenvalues --    1.26684   1.27753   1.28115   1.29310   1.29848
 Alpha virt. eigenvalues --    1.30109   1.30570   1.31302   1.32989   1.33708
 Alpha virt. eigenvalues --    1.33797   1.34824   1.36380   1.37624   1.39564
 Alpha virt. eigenvalues --    1.40040   1.40342   1.42964   1.43322   1.44505
 Alpha virt. eigenvalues --    1.44575   1.45518   1.46636   1.46875   1.47466
 Alpha virt. eigenvalues --    1.48175   1.49041   1.50023   1.50147   1.50536
 Alpha virt. eigenvalues --    1.51053   1.52931   1.53636   1.54750   1.55247
 Alpha virt. eigenvalues --    1.56350   1.57080   1.58099   1.58594   1.59105
 Alpha virt. eigenvalues --    1.59672   1.60928   1.61880   1.62876   1.62992
 Alpha virt. eigenvalues --    1.64124   1.64279   1.65291   1.65403   1.65550
 Alpha virt. eigenvalues --    1.66419   1.67475   1.67881   1.68817   1.68982
 Alpha virt. eigenvalues --    1.69389   1.70899   1.71106   1.72223   1.73508
 Alpha virt. eigenvalues --    1.73544   1.73651   1.74385   1.74564   1.75846
 Alpha virt. eigenvalues --    1.77588   1.78801   1.79704   1.80232   1.80843
 Alpha virt. eigenvalues --    1.81785   1.82997   1.84770   1.85949   1.86600
 Alpha virt. eigenvalues --    1.88762   1.89072   1.90543   1.91360   1.91775
 Alpha virt. eigenvalues --    1.92196   1.94843   1.94881   1.95398   1.96950
 Alpha virt. eigenvalues --    1.96957   1.98635   1.99577   2.01258   2.02458
 Alpha virt. eigenvalues --    2.03775   2.04211   2.05882   2.06981   2.07475
 Alpha virt. eigenvalues --    2.08184   2.09397   2.10076   2.10207   2.12555
 Alpha virt. eigenvalues --    2.12610   2.13923   2.14369   2.14746   2.16885
 Alpha virt. eigenvalues --    2.16963   2.18843   2.19508   2.19625   2.20547
 Alpha virt. eigenvalues --    2.21317   2.22546   2.23134   2.23878   2.24044
 Alpha virt. eigenvalues --    2.24859   2.25831   2.26786   2.26800   2.27960
 Alpha virt. eigenvalues --    2.28441   2.31648   2.32603   2.35721   2.39555
 Alpha virt. eigenvalues --    2.43123   2.44142   2.46606   2.47427   2.48095
 Alpha virt. eigenvalues --    2.48773   2.49237   2.53531   2.54412   2.54647
 Alpha virt. eigenvalues --    2.55189   2.55803   2.56655   2.57322   2.57738
 Alpha virt. eigenvalues --    2.59957   2.61021   2.61742   2.62598   2.63189
 Alpha virt. eigenvalues --    2.64188   2.64751   2.65198   2.66439   2.66770
 Alpha virt. eigenvalues --    2.67678   2.68004   2.68751   2.69392   2.70517
 Alpha virt. eigenvalues --    2.70751   2.71692   2.72189   2.72927   2.73479
 Alpha virt. eigenvalues --    2.74073   2.74911   2.74983   2.76197   2.77247
 Alpha virt. eigenvalues --    2.77944   2.78124   2.78296   2.79197   2.80110
 Alpha virt. eigenvalues --    2.80593   2.81451   2.82074   2.82622   2.83265
 Alpha virt. eigenvalues --    2.84091   2.84355   2.85272   2.86442   2.86466
 Alpha virt. eigenvalues --    2.87402   2.88183   2.88702   2.89587   2.89695
 Alpha virt. eigenvalues --    2.90304   2.91742   2.92059   2.92482   2.93287
 Alpha virt. eigenvalues --    2.93396   2.94595   2.94819   2.95105   2.96255
 Alpha virt. eigenvalues --    2.96521   2.97918   2.98039   2.98785   2.99485
 Alpha virt. eigenvalues --    2.99567   3.01384   3.01815   3.02789   3.04124
 Alpha virt. eigenvalues --    3.06054   3.07963   3.08433   3.09922   3.10408
 Alpha virt. eigenvalues --    3.11732   3.12271   3.14273   3.15233   3.16908
 Alpha virt. eigenvalues --    3.17202   3.18072   3.18202   3.18700   3.18883
 Alpha virt. eigenvalues --    3.19613   3.20538   3.20632   3.21524   3.21663
 Alpha virt. eigenvalues --    3.22348   3.22411   3.22839   3.23188   3.24527
 Alpha virt. eigenvalues --    3.24842   3.25670   3.26230   3.27445   3.27776
 Alpha virt. eigenvalues --    3.29919   3.31471   3.31473   3.32409   3.33266
 Alpha virt. eigenvalues --    3.34538   3.34996   3.36127   3.36783   3.37463
 Alpha virt. eigenvalues --    3.37606   3.37962   3.38670   3.38895   3.39573
 Alpha virt. eigenvalues --    3.39886   3.40079   3.41272   3.42482   3.43277
 Alpha virt. eigenvalues --    3.43542   3.44313   3.44347   3.45784   3.46458
 Alpha virt. eigenvalues --    3.46740   3.47180   3.47738   3.48328   3.50108
 Alpha virt. eigenvalues --    3.51310   3.51625   3.52967   3.53189   3.53572
 Alpha virt. eigenvalues --    3.55069   3.55998   3.56662   3.57621   3.57863
 Alpha virt. eigenvalues --    3.58733   3.59149   3.60794   3.61077   3.62199
 Alpha virt. eigenvalues --    3.62709   3.62804   3.62956   3.63876   3.66390
 Alpha virt. eigenvalues --    3.67302   3.67897   3.68173   3.69271   3.73171
 Alpha virt. eigenvalues --    3.73458   3.75896   3.76715   3.77025   3.79092
 Alpha virt. eigenvalues --    3.79276   3.80614   3.81976   3.82084   3.83673
 Alpha virt. eigenvalues --    3.84661   3.86067   3.88585   3.88714   3.89115
 Alpha virt. eigenvalues --    3.91225   3.92532   3.95520   3.97754   3.97911
 Alpha virt. eigenvalues --    3.98873   4.00632   4.02138   4.02411   4.08874
 Alpha virt. eigenvalues --    4.09781   4.10468   4.11069   4.11337   4.12341
 Alpha virt. eigenvalues --    4.12380   4.14412   4.15432   4.16668   4.17681
 Alpha virt. eigenvalues --    4.18303   4.19878   4.21010   4.26047   4.26353
 Alpha virt. eigenvalues --    4.27765   4.28571   4.29086   4.29709   4.30101
 Alpha virt. eigenvalues --    4.30432   4.31754   4.32465   4.32939   4.34067
 Alpha virt. eigenvalues --    4.34181   4.35134   4.35309   4.36564   4.37021
 Alpha virt. eigenvalues --    4.37113   4.38862   4.40584   4.42662   4.43319
 Alpha virt. eigenvalues --    4.45494   4.47741   4.47823   4.49748   4.52016
 Alpha virt. eigenvalues --    4.56126   4.58881   4.64466   4.69320   4.71624
 Alpha virt. eigenvalues --    4.72225   4.74400   4.75637   4.76074   4.79136
 Alpha virt. eigenvalues --    4.79340   4.85187   4.85200   4.87606   4.88373
 Alpha virt. eigenvalues --    4.88773   4.91190   4.93562   4.96046   5.00300
 Alpha virt. eigenvalues --    5.02909   5.03962   5.05133   5.06856   5.09765
 Alpha virt. eigenvalues --    5.10199   5.12764   5.15808   5.17673   5.21104
 Alpha virt. eigenvalues --    5.21550   5.24505   5.26251   5.31583   5.33432
 Alpha virt. eigenvalues --    5.35270   5.39240   5.42870   5.45585   5.54626
 Alpha virt. eigenvalues --    5.55907   5.58795   5.62097   5.67535   5.68673
 Alpha virt. eigenvalues --    5.72081   5.77928   5.84529   5.92826   5.95110
 Alpha virt. eigenvalues --    5.97205   6.16969   6.19668   6.22080   9.06709
 Alpha virt. eigenvalues --    9.50877   9.67190  20.34444  22.16801  22.23968
 Alpha virt. eigenvalues --   22.34176  22.66653  22.67700  22.67868  22.68754
 Alpha virt. eigenvalues --   22.72533  22.73457  22.80059  22.86395  22.92058
 Alpha virt. eigenvalues --   22.92417  22.93756  22.96670  23.27971  23.34394
 Alpha virt. eigenvalues --   23.39016  33.34877
          Condensed to atoms (all electrons):
               1          2          3          4          5          6
     1  C    5.121497   0.224151   0.191233  -0.186952   0.147965   0.286107
     2  C    0.224151   5.344105   0.142186   0.066257  -0.157825   0.086979
     3  C    0.191233   0.142186   5.333661   0.251061   0.174295  -0.122472
     4  C   -0.186952   0.066257   0.251061   5.464680   0.102196   0.078117
     5  C    0.147965  -0.157825   0.174295   0.102196   5.517697   0.255330
     6  C    0.286107   0.086979  -0.122472   0.078117   0.255330   5.014189
     7  C    0.000702  -0.003752  -0.008688  -0.119874   0.014938  -0.001824
     8  C   -0.001513   0.003963  -0.054694  -0.008739  -0.005634   0.001130
     9  C   -0.000142   0.003488   0.003953  -0.003753  -0.000846  -0.000014
    10  H    0.000001  -0.000055  -0.000158   0.000195  -0.000002  -0.000000
    11  C   -0.000002  -0.000143  -0.001514   0.000704   0.000010   0.000022
    12  C    0.000022  -0.000014   0.001131  -0.001828   0.000227  -0.000053
    13  C    0.000010  -0.000848  -0.005631   0.014940   0.004033   0.000228
    14  H   -0.060731   0.459378  -0.078940   0.023177  -0.005850   0.009956
    15  H    0.010519  -0.004583   0.013645  -0.078360   0.470702  -0.045876
    16  H   -0.072125   0.013799  -0.005328   0.015423  -0.073017   0.472995
    17  H    0.000000  -0.000001   0.000006   0.000009   0.000000  -0.000000
    18  H   -0.000000   0.000001   0.000005  -0.000040  -0.000003   0.000000
    19  C   -0.001289   0.003654  -0.023590  -0.092868   0.004229   0.002507
    20  C    0.000047  -0.000187   0.001646   0.014304  -0.002250  -0.000287
    21  C    0.000002  -0.000003  -0.000117   0.000970   0.000373   0.000017
    22  C    0.000109  -0.000180  -0.000852  -0.002193   0.009590   0.000000
    23  C   -0.000006   0.000017   0.000007  -0.000923  -0.000825  -0.000008
    24  H   -0.000000   0.000000  -0.000001   0.000020   0.000000   0.000000
    25  H    0.000004  -0.000005   0.000011   0.000160   0.000263   0.000004
    26  H    0.000002  -0.000009   0.000056  -0.000608   0.000028  -0.000008
    27  H   -0.000000  -0.000000  -0.000000  -0.000008   0.000001  -0.000000
    28  H    0.469665  -0.069104   0.010284  -0.003719   0.011918  -0.066339
    29  N   -0.002984   0.018619  -0.094331   0.239094  -0.034317   0.004894
    30  H    0.000003  -0.000025  -0.000069   0.000386  -0.000040   0.000030
    31  S    0.012912  -0.087934   0.362976  -0.114365   0.019009  -0.004613
    32  C   -0.001127   0.001464  -0.006972  -0.022008  -0.015588   0.004693
    33  H   -0.002140   0.001940  -0.001205   0.011038  -0.035562  -0.000024
               7          8          9         10         11         12
     1  C    0.000702  -0.001513  -0.000142   0.000001  -0.000002   0.000022
     2  C   -0.003752   0.003963   0.003488  -0.000055  -0.000143  -0.000014
     3  C   -0.008688  -0.054694   0.003953  -0.000158  -0.001514   0.001131
     4  C   -0.119874  -0.008739  -0.003753   0.000195   0.000704  -0.001828
     5  C    0.014938  -0.005634  -0.000846  -0.000002   0.000010   0.000227
     6  C   -0.001824   0.001130  -0.000014  -0.000000   0.000022  -0.000053
     7  C    5.464939   0.251022   0.066193   0.023176  -0.186990   0.078209
     8  C    0.251022   5.333568   0.142240  -0.078933   0.191243  -0.122480
     9  C    0.066193   0.142240   5.344074   0.459352   0.224208   0.087010
    10  H    0.023176  -0.078933   0.459352   0.550976  -0.060704   0.009952
    11  C   -0.186990   0.191243   0.224208  -0.060704   5.121579   0.286042
    12  C    0.078209  -0.122480   0.087010   0.009952   0.286042   5.014261
    13  C    0.102016   0.174235  -0.157868  -0.005847   0.148024   0.255218
    14  H    0.000195  -0.000158  -0.000055   0.000011   0.000001  -0.000000
    15  H    0.000390  -0.000070  -0.000025   0.000000   0.000003   0.000030
    16  H   -0.000040   0.000005   0.000001  -0.000000  -0.000000   0.000000
    17  H   -0.003721   0.010286  -0.069092  -0.003765   0.469655  -0.066340
    18  H    0.015426  -0.005328   0.013801  -0.000072  -0.072134   0.473009
    19  C   -0.092909  -0.023503   0.003657   0.000043  -0.001288   0.002505
    20  C   -0.022011  -0.006972   0.001467   0.000017  -0.001129   0.004699
    21  C   -0.002202  -0.000858  -0.000180   0.000000   0.000109   0.000001
    22  C    0.000971  -0.000119  -0.000003   0.000000   0.000002   0.000017
    23  C   -0.000921   0.000007   0.000017  -0.000000  -0.000006  -0.000008
    24  H    0.000159   0.000011  -0.000005   0.000000   0.000004   0.000004
    25  H    0.000020  -0.000001   0.000000   0.000000  -0.000000   0.000000
    26  H    0.011051  -0.001201   0.001942  -0.000001  -0.002144  -0.000024
    27  H   -0.000008  -0.000000  -0.000000   0.000000  -0.000000  -0.000000
    28  H    0.000009   0.000006  -0.000001  -0.000000   0.000000  -0.000000
    29  N    0.239084  -0.094276   0.018635  -0.000149  -0.002989   0.004897
    30  H   -0.078400   0.013650  -0.004587   0.000022   0.010525  -0.045899
    31  S   -0.114475   0.363152  -0.087916  -0.003824   0.012906  -0.004610
    32  C    0.014311   0.001653  -0.000187  -0.000004   0.000047  -0.000287
    33  H   -0.000610   0.000057  -0.000009  -0.000000   0.000002  -0.000008
              13         14         15         16         17         18
     1  C    0.000010  -0.060731   0.010519  -0.072125   0.000000  -0.000000
     2  C   -0.000848   0.459378  -0.004583   0.013799  -0.000001   0.000001
     3  C   -0.005631  -0.078940   0.013645  -0.005328   0.000006   0.000005
     4  C    0.014940   0.023177  -0.078360   0.015423   0.000009  -0.000040
     5  C    0.004033  -0.005850   0.470702  -0.073017   0.000000  -0.000003
     6  C    0.000228   0.009956  -0.045876   0.472995  -0.000000   0.000000
     7  C    0.102016   0.000195   0.000390  -0.000040  -0.003721   0.015426
     8  C    0.174235  -0.000158  -0.000070   0.000005   0.010286  -0.005328
     9  C   -0.157868  -0.000055  -0.000025   0.000001  -0.069092   0.013801
    10  H   -0.005847   0.000011   0.000000  -0.000000  -0.003765  -0.000072
    11  C    0.148024   0.000001   0.000003  -0.000000   0.469655  -0.072134
    12  C    0.255218  -0.000000   0.000030   0.000000  -0.066340   0.473009
    13  C    5.517994  -0.000002  -0.000040  -0.000003   0.011922  -0.073022
    14  H   -0.000002   0.551011   0.000022  -0.000072  -0.000000  -0.000000
    15  H   -0.000040   0.000022   0.525540  -0.004648  -0.000000  -0.000001
    16  H   -0.000003  -0.000072  -0.004648   0.554225   0.000000   0.000000
    17  H    0.011922  -0.000000  -0.000000   0.000000   0.552031  -0.004673
    18  H   -0.073022  -0.000000  -0.000001   0.000000  -0.004673   0.554226
    19  C    0.004239   0.000043  -0.000089   0.000068   0.000006   0.000068
    20  C   -0.015609  -0.000004  -0.000663   0.000001  -0.000010   0.000126
    21  C    0.009589   0.000000   0.000088   0.000000  -0.000000  -0.000007
    22  C    0.000374   0.000000   0.000434  -0.000007  -0.000000   0.000000
    23  C   -0.000825  -0.000000  -0.000061  -0.000000   0.000000  -0.000000
    24  H    0.000263   0.000000   0.000000  -0.000000   0.000000  -0.000000
    25  H    0.000000   0.000000   0.000030  -0.000000  -0.000000  -0.000000
    26  H   -0.035597  -0.000000  -0.000005  -0.000000  -0.000016   0.000045
    27  H    0.000001   0.000000   0.000000   0.000000   0.000000   0.000000
    28  H    0.000000  -0.003765  -0.000057  -0.004671   0.000000   0.000000
    29  N   -0.034307  -0.000149   0.004340  -0.000158   0.000028  -0.000157
    30  H    0.470770   0.000000   0.000120  -0.000001  -0.000057  -0.004648
    31  S    0.018986  -0.003825  -0.000232   0.000012  -0.000262   0.000012
    32  C   -0.002256   0.000017  -0.007908   0.000126   0.000000   0.000001
    33  H    0.000028  -0.000001  -0.004336   0.000045   0.000000  -0.000000
              19         20         21         22         23         24
     1  C   -0.001289   0.000047   0.000002   0.000109  -0.000006  -0.000000
     2  C    0.003654  -0.000187  -0.000003  -0.000180   0.000017   0.000000
     3  C   -0.023590   0.001646  -0.000117  -0.000852   0.000007  -0.000001
     4  C   -0.092868   0.014304   0.000970  -0.002193  -0.000923   0.000020
     5  C    0.004229  -0.002250   0.000373   0.009590  -0.000825   0.000000
     6  C    0.002507  -0.000287   0.000017   0.000000  -0.000008   0.000000
     7  C   -0.092909  -0.022011  -0.002202   0.000971  -0.000921   0.000159
     8  C   -0.023503  -0.006972  -0.000858  -0.000119   0.000007   0.000011
     9  C    0.003657   0.001467  -0.000180  -0.000003   0.000017  -0.000005
    10  H    0.000043   0.000017   0.000000   0.000000  -0.000000   0.000000
    11  C   -0.001288  -0.001129   0.000109   0.000002  -0.000006   0.000004
    12  C    0.002505   0.004699   0.000001   0.000017  -0.000008   0.000004
    13  C    0.004239  -0.015609   0.009589   0.000374  -0.000825   0.000263
    14  H    0.000043  -0.000004   0.000000   0.000000  -0.000000   0.000000
    15  H   -0.000089  -0.000663   0.000088   0.000434  -0.000061   0.000000
    16  H    0.000068   0.000001   0.000000  -0.000007  -0.000000  -0.000000
    17  H    0.000006  -0.000010  -0.000000  -0.000000   0.000000   0.000000
    18  H    0.000068   0.000126  -0.000007   0.000000  -0.000000  -0.000000
    19  C    4.938840   0.264113   0.028428   0.028429  -0.098788   0.012098
    20  C    0.264113   5.371209   0.341719  -0.087609   0.074669  -0.065820
    21  C    0.028428   0.341719   4.990703   0.031896   0.347708   0.460272
    22  C    0.028429  -0.087609   0.031896   4.990702   0.347802   0.010260
    23  C   -0.098788   0.074669   0.347708   0.347802   5.102584  -0.062266
    24  H    0.012098  -0.065820   0.460272   0.010260  -0.062266   0.556784
    25  H    0.012100  -0.004114   0.010257   0.460264  -0.062253  -0.000095
    26  H   -0.059873   0.439395  -0.021869  -0.002940   0.006244  -0.002913
    27  H   -0.004719   0.013236  -0.072793  -0.072793   0.476445  -0.004297
    28  H    0.000006   0.000000  -0.000000  -0.000000   0.000000  -0.000000
    29  N    0.446673  -0.072035   0.003236   0.003231  -0.001130  -0.000076
    30  H   -0.000088  -0.007910   0.000433   0.000088  -0.000061   0.000030
    31  S    0.005545   0.002104  -0.000602  -0.000602   0.000252  -0.000004
    32  C    0.264140   0.119522  -0.087639   0.341730   0.074653  -0.004115
    33  H   -0.059866   0.007323  -0.002938  -0.021819   0.006240   0.000019
              25         26         27         28         29         30
     1  C    0.000004   0.000002  -0.000000   0.469665  -0.002984   0.000003
     2  C   -0.000005  -0.000009  -0.000000  -0.069104   0.018619  -0.000025
     3  C    0.000011   0.000056  -0.000000   0.010284  -0.094331  -0.000069
     4  C    0.000160  -0.000608  -0.000008  -0.003719   0.239094   0.000386
     5  C    0.000263   0.000028   0.000001   0.011918  -0.034317  -0.000040
     6  C    0.000004  -0.000008  -0.000000  -0.066339   0.004894   0.000030
     7  C    0.000020   0.011051  -0.000008   0.000009   0.239084  -0.078400
     8  C   -0.000001  -0.001201  -0.000000   0.000006  -0.094276   0.013650
     9  C    0.000000   0.001942  -0.000000  -0.000001   0.018635  -0.004587
    10  H    0.000000  -0.000001   0.000000  -0.000000  -0.000149   0.000022
    11  C   -0.000000  -0.002144  -0.000000   0.000000  -0.002989   0.010525
    12  C    0.000000  -0.000024  -0.000000  -0.000000   0.004897  -0.045899
[...]
 Alpha virt. eigenvalues --   22.34086  22.72661  22.73372  22.73622  22.74557
 Alpha virt. eigenvalues --   22.78598  22.79159  22.86048  22.91852  22.97045
 Alpha virt. eigenvalues --   22.98707  22.99827  23.03887  23.35372  23.41459
 Alpha virt. eigenvalues --   23.45919  33.38273
          Condensed to atoms (all electrons):
               1          2          3          4          5          6
     1  C    5.146593   0.191602   0.217648  -0.207185   0.172124   0.261223
     2  C    0.191602   5.370420   0.099223   0.100546  -0.180618   0.104958
     3  C    0.217648   0.099223   5.412680   0.187779   0.200586  -0.139121
     4  C   -0.207185   0.100546   0.187779   5.521729   0.043530   0.102652
     5  C    0.172124  -0.180618   0.200586   0.043530   5.612807   0.221973
     6  C    0.261223   0.104958  -0.139121   0.102652   0.221973   5.033833
     7  C    0.000658  -0.002668  -0.002312  -0.144534   0.013972  -0.002098
     8  C   -0.001503   0.002946  -0.049909  -0.002499  -0.005811   0.001272
     9  C   -0.000185   0.003570   0.002906  -0.002616  -0.001026   0.000000
    10  H   -0.000001  -0.000036  -0.000233   0.000219  -0.000007   0.000001
    11  C    0.000003  -0.000183  -0.001498   0.000651   0.000049   0.000026
    12  C    0.000026  -0.000002   0.001276  -0.002092   0.000134  -0.000067
    13  C    0.000048  -0.001024  -0.005843   0.014058   0.005167   0.000133
    14  H   -0.066157   0.471342  -0.087263   0.025589  -0.007125   0.011896
    15  H    0.011303  -0.005106   0.015470  -0.083532   0.479190  -0.047595
    16  H   -0.076584   0.015568  -0.006408   0.017249  -0.078261   0.481202
    17  H    0.000000  -0.000001   0.000008   0.000006   0.000001  -0.000000
    18  H   -0.000000   0.000002   0.000003  -0.000038  -0.000003   0.000000
    19  C   -0.001960   0.005047  -0.026778  -0.099352  -0.001078   0.003639
    20  C   -0.000036   0.000111  -0.001149   0.012973  -0.003658  -0.000100
    21  C    0.000004  -0.000019  -0.000071   0.002213   0.000409   0.000013
    22  C    0.000168  -0.000265  -0.000153  -0.003115   0.012308  -0.000052
    23  C   -0.000007   0.000021  -0.000057  -0.001158  -0.001046  -0.000012
    24  H   -0.000000   0.000000  -0.000000   0.000027   0.000000   0.000000
    25  H    0.000004  -0.000004   0.000013   0.000128   0.000329   0.000007
    26  H    0.000001   0.000003   0.000023  -0.001052  -0.000002  -0.000005
    27  H   -0.000000   0.000000  -0.000001  -0.000010   0.000002  -0.000000
    28  H    0.479815  -0.075364   0.012314  -0.004633   0.014005  -0.072287
    29  N   -0.003021   0.017983  -0.100250   0.261670  -0.034628   0.003219
    30  H    0.000003  -0.000025  -0.000005   0.000597  -0.000008   0.000032
    31  S    0.013788  -0.090396   0.361154  -0.116215   0.022332  -0.005117
    32  C   -0.000316   0.000564   0.004447  -0.042891  -0.006288   0.003407
    33  H   -0.002037   0.002107  -0.000777   0.007263  -0.040587  -0.000028
               7          8          9         10         11         12
     1  C    0.000658  -0.001503  -0.000185  -0.000001   0.000003   0.000026
     2  C   -0.002668   0.002946   0.003570  -0.000036  -0.000183  -0.000002
     3  C   -0.002312  -0.049909   0.002906  -0.000233  -0.001498   0.001276
     4  C   -0.144534  -0.002499  -0.002616   0.000219   0.000651  -0.002092
     5  C    0.013972  -0.005811  -0.001026  -0.000007   0.000049   0.000134
     6  C   -0.002098   0.001272   0.000000   0.000001   0.000026  -0.000067
     7  C    5.522255   0.188814   0.100023   0.025585  -0.206972   0.102392
     8  C    0.188814   5.410956   0.099850  -0.087239   0.217281  -0.138758
     9  C    0.100023   0.099850   5.370012   0.471330   0.191935   0.104713
    10  H    0.025585  -0.087239   0.471330   0.558095  -0.066170   0.011897
    11  C   -0.206972   0.217281   0.191935  -0.066170   5.146526   0.261296
    12  C    0.102392  -0.138758   0.104713   0.011897   0.261296   5.033866
    13  C    0.043826   0.200271  -0.180300  -0.007123   0.171879   0.222317
    14  H    0.000220  -0.000233  -0.000036   0.000013  -0.000001   0.000001
    15  H    0.000602  -0.000007  -0.000025   0.000000   0.000003   0.000032
    16  H   -0.000038   0.000003   0.000002   0.000000  -0.000000   0.000000
    17  H   -0.004629   0.012307  -0.075356  -0.004366   0.479801  -0.072272
    18  H    0.017236  -0.006400   0.015561  -0.000052  -0.076589   0.481223
    19  C   -0.099324  -0.026708   0.005043   0.000042  -0.001947   0.003585
    20  C   -0.042817   0.004342   0.000579  -0.000006  -0.000333   0.003487
    21  C   -0.003148  -0.000160  -0.000265  -0.000000   0.000168  -0.000044
    22  C    0.002205  -0.000072  -0.000018   0.000000   0.000004   0.000014
    23  C   -0.001160  -0.000055   0.000021  -0.000000  -0.000007  -0.000013
    24  H    0.000129   0.000013  -0.000004   0.000000   0.000004   0.000007
    25  H    0.000027  -0.000000   0.000000   0.000000  -0.000000   0.000000
    26  H    0.007253  -0.000815   0.002115  -0.000003  -0.002046   0.000000
    27  H   -0.000010  -0.000000   0.000000  -0.000000  -0.000000  -0.000000
    28  H    0.000006   0.000008  -0.000001  -0.000000   0.000000  -0.000000
    29  N    0.261024  -0.100039   0.017948  -0.000113  -0.002998   0.003213
    30  H   -0.083476   0.015460  -0.005096   0.000015   0.011297  -0.047603
    31  S   -0.116247   0.361241  -0.090455  -0.003570   0.013772  -0.005112
    32  C    0.012952  -0.001142   0.000111  -0.000003  -0.000036  -0.000106
    33  H   -0.001050   0.000022   0.000003  -0.000000   0.000001  -0.000005
              13         14         15         16         17         18
     1  C    0.000048  -0.066157   0.011303  -0.076584   0.000000  -0.000000
     2  C   -0.001024   0.471342  -0.005106   0.015568  -0.000001   0.000002
     3  C   -0.005843  -0.087263   0.015470  -0.006408   0.000008   0.000003
     4  C    0.014058   0.025589  -0.083532   0.017249   0.000006  -0.000038
     5  C    0.005167  -0.007125   0.479190  -0.078261   0.000001  -0.000003
     6  C    0.000133   0.011896  -0.047595   0.481202  -0.000000   0.000000
     7  C    0.043826   0.000220   0.000602  -0.000038  -0.004629   0.017236
     8  C    0.200271  -0.000233  -0.000007   0.000003   0.012307  -0.006400
     9  C   -0.180300  -0.000036  -0.000025   0.000002  -0.075356   0.015561
    10  H   -0.007123   0.000013   0.000000   0.000000  -0.004366  -0.000052
    11  C    0.171879  -0.000001   0.000003  -0.000000   0.479801  -0.076589
    12  C    0.222317   0.000001   0.000032   0.000000  -0.072272   0.481223
    13  C    5.611497  -0.000007  -0.000008  -0.000003   0.013998  -0.078243
    14  H   -0.000007   0.558096   0.000015  -0.000052  -0.000000   0.000000
    15  H   -0.000008   0.000015   0.528191  -0.004898  -0.000000  -0.000001
    16  H   -0.000003  -0.000052  -0.004898   0.560745   0.000000   0.000000
    17  H    0.013998  -0.000000  -0.000000   0.000000   0.559918  -0.005231
    18  H   -0.078243   0.000000  -0.000001   0.000000  -0.005231   0.560747
    19  C   -0.001070   0.000043  -0.002129   0.000120   0.000007   0.000120
    20  C   -0.006411  -0.000003  -0.001353   0.000006  -0.000006   0.000121
    21  C    0.012322   0.000000   0.000251  -0.000000  -0.000000  -0.000016
    22  C    0.000404  -0.000000   0.000890  -0.000015  -0.000000  -0.000000
    23  C   -0.001039  -0.000000  -0.000166   0.000000   0.000000   0.000000
    24  H    0.000328   0.000000   0.000000  -0.000000   0.000000  -0.000000
    25  H    0.000000   0.000000   0.000049  -0.000000  -0.000000  -0.000000
    26  H   -0.040505  -0.000000  -0.000020   0.000000  -0.000015   0.000106
    27  H    0.000002  -0.000000  -0.000000   0.000000   0.000000   0.000000
    28  H    0.000001  -0.004364  -0.000048  -0.005231   0.000000   0.000000
    29  N   -0.034596  -0.000112   0.004250  -0.000151   0.000031  -0.000152
    30  H    0.479129   0.000000   0.000108  -0.000001  -0.000049  -0.004899
    31  S    0.022347  -0.003577  -0.000217   0.000008  -0.000290   0.000008
    32  C   -0.003633  -0.000006  -0.011591   0.000120   0.000000   0.000006
    33  H   -0.000000  -0.000002  -0.006339   0.000107   0.000000   0.000000
              19         20         21         22         23         24
     1  C   -0.001960  -0.000036   0.000004   0.000168  -0.000007  -0.000000
     2  C    0.005047   0.000111  -0.000019  -0.000265   0.000021   0.000000
     3  C   -0.026778  -0.001149  -0.000071  -0.000153  -0.000057  -0.000000
     4  C   -0.099352   0.012973   0.002213  -0.003115  -0.001158   0.000027
     5  C   -0.001078  -0.003658   0.000409   0.012308  -0.001046   0.000000
     6  C    0.003639  -0.000100   0.000013  -0.000052  -0.000012   0.000000
     7  C   -0.099324  -0.042817  -0.003148   0.002205  -0.001160   0.000129
     8  C   -0.026708   0.004342  -0.000160  -0.000072  -0.000055   0.000013
     9  C    0.005043   0.000579  -0.000265  -0.000018   0.000021  -0.000004
    10  H    0.000042  -0.000006  -0.000000   0.000000  -0.000000   0.000000
    11  C   -0.001947  -0.000333   0.000168   0.000004  -0.000007   0.000004
    12  C    0.003585   0.003487  -0.000044   0.000014  -0.000013   0.000007
    13  C   -0.001070  -0.006411   0.012322   0.000404  -0.001039   0.000328
    14  H    0.000043  -0.000003   0.000000  -0.000000  -0.000000   0.000000
    15  H   -0.002129  -0.001353   0.000251   0.000890  -0.000166   0.000000
    16  H    0.000120   0.000006  -0.000000  -0.000015   0.000000  -0.000000
    17  H    0.000007  -0.000006  -0.000000  -0.000000   0.000000   0.000000
    18  H    0.000120   0.000121  -0.000016  -0.000000   0.000000  -0.000000
    19  C    4.959571   0.217344   0.051945   0.052059  -0.122230   0.014083
    20  C    0.217344   5.445613   0.303226  -0.108435   0.104707  -0.071406
    21  C    0.051945   0.303226   5.010871   0.047593   0.317663   0.468793
    22  C    0.052059  -0.108435   0.047593   5.010700   0.317665   0.011848
    23  C   -0.122230   0.104707   0.317663   0.317665   5.133269  -0.066792
    24  H    0.014083  -0.071406   0.468793   0.011848  -0.066792   0.563379
    25  H    0.014091  -0.005098   0.011852   0.468800  -0.066804  -0.000082
    26  H   -0.060650   0.446095  -0.023909  -0.003380   0.007108  -0.003456
    27  H   -0.005738   0.015211  -0.078438  -0.078448   0.486493  -0.004821
    28  H    0.000007   0.000000  -0.000000  -0.000000   0.000000  -0.000000
    29  N    0.461219  -0.065403   0.003630   0.003642  -0.001682  -0.000048
    30  H   -0.002121  -0.011609   0.000894   0.000253  -0.000167   0.000049
    31  S    0.002489   0.001969  -0.000493  -0.000491   0.000218  -0.000004
    32  C    0.216900   0.166840  -0.108501   0.303094   0.104904  -0.005098
    33  H   -0.060626   0.008500  -0.003385  -0.023887   0.007114   0.000016
              25         26         27         28         29         30
     1  C    0.000004   0.000001  -0.000000   0.479815  -0.003021   0.000003
     2  C   -0.000004   0.000003   0.000000  -0.075364   0.017983  -0.000025
     3  C    0.000013   0.000023  -0.000001   0.012314  -0.100250  -0.000005
     4  C    0.000128  -0.001052  -0.000010  -0.004633   0.261670   0.000597
     5  C    0.000329  -0.000002   0.000002   0.014005  -0.034628  -0.000008
     6  C    0.000007  -0.000005  -0.000000  -0.072287   0.003219   0.000032
     7  C    0.000027   0.007253  -0.000010   0.000006   0.261024  -0.083476
     8  C   -0.000000  -0.000815  -0.000000   0.000008  -0.100039   0.015460
     9  C    0.000000   0.002115   0.000000  -0.000001   0.017948  -0.005096
    10  H    0.000000  -0.000003  -0.000000  -0.000000  -0.000113   0.000015
    11  C   -0.000000  -0.002046  -0.000000   0.000000  -0.002998   0.011297
    12  C    0.000000   0.000000  -0.000000  -0.000000   0.003213  -0.047603
    13  C    0.000000  -0.040505   0.000002   0.000001  -0.034596   0.479129
    14  H    0.000000  -0.000000  -0.000000  -0.004364  -0.000112   0.000000
    15  H    0.000049  -0.000020  -0.000000  -0.000048   0.004250   0.000108
    16  H   -0.000000   0.000000   0.000000  -0.005231  -0.000151  -0.000001
    17  H   -0.000000  -0.000015   0.000000   0.000000   0.000031  -0.000049
    18  H   -0.000000   0.000106   0.000000   0.000000  -0.000152  -0.004899
    19  C    0.014091  -0.060650  -0.005738   0.000007   0.461219  -0.002121
    20  C   -0.005098   0.446095   0.015211   0.000000  -0.065403  -0.011609
    21  C    0.011852  -0.023909  -0.078438  -0.000000   0.003630   0.000894
    22  C    0.468800  -0.003380  -0.078448  -0.000000   0.003642   0.000253
    23  C   -0.066804   0.007108   0.486493   0.000000  -0.001682  -0.000167
    24  H   -0.000082  -0.003456  -0.004821  -0.000000  -0.000048   0.000049
    25  H    0.563385   0.000016  -0.004824   0.000000  -0.000048   0.000000
    26  H    0.000016   0.514602  -0.000055   0.000000  -0.002283  -0.006307
    27  H   -0.004824  -0.000055   0.567264   0.000000   0.000016  -0.000000
    28  H    0.000000   0.000000   0.000000   0.559929   0.000031  -0.000000
    29  N   -0.000048  -0.002283   0.000016   0.000031   6.585316   0.004230
    30  H    0.000000  -0.006307  -0.000000  -0.000000   0.004230   0.528325
    31  S   -0.000004   0.000198   0.000001  -0.000290  -0.001338  -0.000217
    32  C   -0.071424   0.008497   0.015213  -0.000006  -0.065367  -0.001359
    33  H   -0.003451   0.000059  -0.000055  -0.000015  -0.002303  -0.000020
              31         32         33
     1  C    0.013788  -0.000316  -0.002037
     2  C   -0.090396   0.000564   0.002107
     3  C    0.361154   0.004447  -0.000777
     4  C   -0.116215  -0.042891   0.007263
     5  C    0.022332  -0.006288  -0.040587
     6  C   -0.005117   0.003407  -0.000028
     7  C   -0.116247   0.012952  -0.001050
     8  C    0.361241  -0.001142   0.000022
     9  C   -0.090455   0.000111   0.000003
    10  H   -0.003570  -0.000003  -0.000000
    11  C    0.013772  -0.000036   0.000001
    12  C   -0.005112  -0.000106  -0.000005
    13  C    0.022347  -0.003633  -0.000000
    14  H   -0.003577  -0.000006  -0.000002
    15  H   -0.000217  -0.011591  -0.006339
    16  H    0.000008   0.000120   0.000107
    17  H   -0.000290   0.000000   0.000000
    18  H    0.000008   0.000006   0.000000
    19  C    0.002489   0.216900  -0.060626
    20  C    0.001969   0.166840   0.008500
    21  C   -0.000493  -0.108501  -0.003385
    22  C   -0.000491   0.303094  -0.023887
    23  C    0.000218   0.104904   0.007114
    24  H   -0.000004  -0.005098   0.000016
    25  H   -0.000004  -0.071424  -0.003451
    26  H    0.000198   0.008497   0.000059
    27  H    0.000001   0.015213  -0.000055
    28  H   -0.000290  -0.000006  -0.000015
    29  N   -0.001338  -0.065367  -0.002303
    30  H   -0.000217  -0.001359  -0.000020
    31  S   15.779190   0.001967   0.000198
    32  C    0.001967   5.446486   0.445998
    33  H    0.000198   0.445998   0.514452
 Mulliken charges:
               1
     1  C   -0.136018
     2  C   -0.030302
     3  C   -0.093703
     4  C    0.412044
     5  C   -0.438775
     6  C    0.036997
     7  C    0.411303
     8  C   -0.093438
     9  C   -0.030337
    10  H    0.101724
    11  C   -0.135914
    12  C    0.036597
    13  C   -0.437925
    14  H    0.101726
    15  H    0.122683
    16  H    0.096514
    17  H    0.096137
    18  H    0.096492
    19  C    0.504358
    20  C   -0.413303
    21  C   -0.013399
    22  C   -0.013317
    23  C   -0.216786
    24  H    0.093035
    25  H    0.093039
    26  H    0.158428
    27  H    0.088200
    28  H    0.096124
    29  N   -0.212891
    30  H    0.122568
    31  S   -0.146846
    32  C   -0.413741
    33  H    0.158727
 Sum of Mulliken charges =  -0.00000
 Mulliken charges with hydrogens summed into heavy atoms:
               1
     1  C   -0.039895
     2  C    0.071424
     3  C   -0.093703
     4  C    0.412044
     5  C   -0.316092
     6  C    0.133512
     7  C    0.411303
     8  C   -0.093438
     9  C    0.071386
    11  C   -0.039778
    12  C    0.133089
    13  C   -0.315357
    19  C    0.504358
    20  C   -0.254875
    21  C    0.079636
    22  C    0.079722
    23  C   -0.128586
    29  N   -0.212891
    31  S   -0.146846
    32  C   -0.255014
 Electronic spatial extent (au):  <R**2>=           5304.8782
 Charge=             -0.0000 electrons
 Dipole moment (field-independent basis, Debye):
    X=             -0.8890    Y=              0.0006    Z=              1.8857  Tot=              2.0847
 Quadrupole moment (field-independent basis, Debye-Ang):
   XX=           -117.9300   YY=           -102.3218   ZZ=           -123.4837
   XY=              0.0225   XZ=              2.2623   YZ=             -0.0129
 Traceless Quadrupole moment (field-independent basis, Debye-Ang):
   XX=             -3.3515   YY=             12.2567   ZZ=             -8.9052
   XY=              0.0225   XZ=              2.2623   YZ=             -0.0129
 Octapole moment (field-independent basis, Debye-Ang**2):
  XXX=              2.6835  YYY=              0.1011  ZZZ=             11.3995  XYY=            -25.5813
  XXY=             -0.0992  XXZ=            -18.2093  XZZ=             -3.9892  YZZ=              0.0123
  YYZ=             22.0675  XYZ=              0.0228
 Hexadecapole moment (field-independent basis, Debye-Ang**3):
 XXXX=          -3437.6706 YYYY=          -2807.0041 ZZZZ=           -692.5650 XXXY=              0.3984
 XXXZ=            -18.0450 YYYX=             -0.1405 YYYZ=             -0.1106 ZZZX=             31.9572
 ZZZY=             -0.0359 XXYY=           -968.4461 XXZZ=           -755.5056 YYZZ=           -592.4403
 XXYZ=             -0.0562 YYXZ=              6.3919 ZZXY=              0.1624
 N-N= 1.568650201661D+03 E-N=-5.822813061073D+03  KE= 1.143084900821D+03
 Leave Link  601 at Wed Feb 17 14:04:40 2021, MaxMem=  5242880000 cpu:         2.7
 (Enter /opt/nce/packages/global/g09/l9999.exe)
 1\1\GINC-CN014\SP\RM06L TD-FC\Gen\C18H13N1S1\PNG4RJV\17-Feb-2021\0\\#p
  m06l chkbasis geom=allcheck Guess=Read int=ultrafine scrf=(SMD,solven
 t=n,n-DiMethylAcetamide) td=(NStates=30)\\Title\\0,1\C,0,-1.9921140051
 ,3.5178208245,-0.4496079296\C,0,-2.3283257367,2.4915905939,0.417320965
 6\C,0,-1.5531703822,1.337713974,0.457374415\C,0,-0.4398651073,1.206202
 9189,-0.3754848004\C,0,-0.1489752225,2.218487884,-1.2847446063\C,0,-0.
 9102629018,3.3751771767,-1.3085076488\C,0,-0.4235167045,-1.184210181,-
 0.3699836964\C,0,-1.5349340912,-1.3273805596,0.4634289124\C,0,-2.29397
 27992,-2.4921084935,0.4285421191\H,0,-3.1559789121,-2.5883894844,1.076
 5928509\C,0,-1.9434157008,-3.517473129,-0.4337255791\C,0,-0.8634696491
 ,-3.3637477119,-1.2931450886\C,0,-0.1183769253,-2.1965074542,-1.274529
 7247\H,0,-3.1916224505,2.5787144517,1.0649585742\H,0,0.6884354163,2.09
 5760889,-1.9595782388\H,0,-0.6630179273,4.1632460447,-2.0078934317\H,0
 ,-2.5291520627,-4.4274039545,-0.4500787679\H,0,-0.6051575815,-4.151566
 0769,-1.988794795\C,0,1.6994227787,0.0260824755,-0.0001838231\C,0,2.40
 96802801,-1.1682691923,0.1882593626\C,0,3.756659142,-1.1500176013,0.50
 78882375\C,0,3.7422290516,1.2305447188,0.4992235645\C,0,4.4444106461,0
 .0450408956,0.6571058747\H,0,4.2696864134,-2.0940780646,0.6465757265\H
 ,0,4.2438716737,2.1816945591,0.6309258242\H,0,1.9085013301,-2.12087561
 01,0.1040322841\H,0,5.4983950525,0.0523126687,0.9012818834\H,0,-2.5903
 468738,4.419503843,-0.4700326283\N,0,0.3297309138,0.0163613749,-0.3032
 896936\H,0,0.7175747632,-2.0652741349,-1.9495767025\S,0,-1.9662828055,
 0.0047262222,1.5385401649\C,0,2.3950917332,1.2303032145,0.1795069013\H
 ,0,1.8824456444,2.1761759187,0.0883734935\\Version=ES64L-G09RevE.01\St
 ate=1-A\HF=-1146.8659123\RMSD=7.730e-09\PG=C01 [X(C18H13N1S1)]\\@


 SILVERMAN'S PARADOX - IF MURPHY'S LAW CAN GO WRONG, IT WILL.
 Job cpu time:       0 days 21 hours 11 minutes 52.9 seconds.
 File lengths (MBytes):  RWF=   1820 Int=      0 D2E=      0 Chk=    444 Scr=      1
 Normal termination of Gaussian 09 at Wed Feb 17 14:04:41 2021.
