 Entering Gaussian System, Link 0=g09
 Input=/home/png4rjv/fotokatalizis/benchmark/OPCs/CA_50_states/CA_1_B3LYP-D3_def2TZVP.gjf
 Output=/home/png4rjv/fotokatalizis/benchmark/OPCs/CA_50_states/CA_1_B3LYP-D3_def2TZVP.log
 Initial command:
 /opt/nce/packages/global/g09/l1.exe "/home/png4rjv/fotokatalizis/benchmark/OPCs/CA_50_states/CA_1_B3LYP-D3_def2TZVP/Gau-64134.inp" -scrdir="/home/png4rjv/fotokatalizis/benchmark/OPCs/CA_50_states/CA_1_B3LYP-D3_def2TZVP/"
 Default is to use a total of  12 processors:
                               12 via shared-memory
                                1 via Linda
 Entering Link 1 = /opt/nce/packages/global/g09/l1.exe PID=     64135.
  
 Copyright (c) 1988,1990,1992,1993,1995,1998,2003,2009,2015,
            Gaussian, Inc.  All Rights Reserved.
  
 This is part of the Gaussian(R) 09 program.  It is based on
 the Gaussian(R) 03 system (copyright 2003, Gaussian, Inc.),
 the Gaussian(R) 98 system (copyright 1998, Gaussian, Inc.),
 the Gaussian(R) 94 system (copyright 1995, Gaussian, Inc.),
 the Gaussian 92(TM) system (copyright 1992, Gaussian, Inc.),
 the Gaussian 90(TM) system (copyright 1990, Gaussian, Inc.),
 the Gaussian 88(TM) system (copyright 1988, Gaussian, Inc.),
 the Gaussian 86(TM) system (copyright 1986, Carnegie Mellon
 University), and the Gaussian 82(TM) system (copyright 1983,
 Carnegie Mellon University). Gaussian is a federally registered
 trademark of Gaussian, Inc.
  
 This software contains proprietary and confidential information,
 including trade secrets, belonging to Gaussian, Inc.
  
 This software is provided under written license and may be
 used, copied, transmitted, or stored only in accord with that
 written license.
  
 The following legend is applicable only to US Government
 contracts under FAR:
  
                    RESTRICTED RIGHTS LEGEND
  
 Use, reproduction and disclosure by the US Government is
 subject to restrictions as set forth in subparagraphs (a)
 and (c) of the Commercial Computer Software - Restricted
 Rights clause in FAR 52.227-19.
  
 Gaussian, Inc.
 340 Quinnipiac St., Bldg. 40, Wallingford CT 06492
  
  
 ---------------------------------------------------------------
 Warning -- This program may not be used in any manner that
 competes with the business of Gaussian, Inc. or will provide
 assistance to any competitor of Gaussian, Inc.  The licensee
 of this program is prohibited from giving any competitor of
 Gaussian, Inc. access to this program.  By using this program,
 the user acknowledges that Gaussian, Inc. is engaged in the
 business of creating and licensing software in the field of
 computational chemistry and represents and warrants to the
 licensee that it is not a competitor of Gaussian, Inc. and that
 it will not use this program in any manner prohibited above.
 ---------------------------------------------------------------
  

 Cite this work as:
 Gaussian 09, Revision E.01,
 M. J. Frisch, G. W. Trucks, H. B. Schlegel, G. E. Scuseria, 
 M. A. Robb, J. R. Cheeseman, G. Scalmani, V. Barone, B. Mennucci, 
 G. A. Petersson, H. Nakatsuji, M. Caricato, X. Li, H. P. Hratchian, 
 A. F. Izmaylov, J. Bloino, G. Zheng, J. L. Sonnenberg, M. Hada, 
 M. Ehara, K. Toyota, R. Fukuda, J. Hasegawa, M. Ishida, T. Nakajima, 
 Y. Honda, O. Kitao, H. Nakai, T. Vreven, J. A. Montgomery, Jr., 
 J. E. Peralta, F. Ogliaro, M. Bearpark, J. J. Heyd, E. Brothers, 
 K. N. Kudin, V. N. Staroverov, T. Keith, R. Kobayashi, J. Normand, 
 K. Raghavachari, A. Rendell, J. C. Burant, S. S. Iyengar, J. Tomasi, 
 M. Cossi, N. Rega, J. M. Millam, M. Klene, J. E. Knox, J. B. Cross, 
 V. Bakken, C. Adamo, J. Jaramillo, R. Gomperts, R. E. Stratmann, 
 O. Yazyev, A. J. Austin, R. Cammi, C. Pomelli, J. W. Ochterski, 
 R. L. Martin, K. Morokuma, V. G. Zakrzewski, G. A. Voth, 
 P. Salvador, J. J. Dannenberg, S. Dapprich, A. D. Daniels, 
 O. Farkas, J. B. Foresman, J. V. Ortiz, J. Cioslowski, 
 and D. J. Fox, Gaussian, Inc., Wallingford CT, 2013.
 
 ******************************************
 Gaussian 09:  ES64L-G09RevE.01 30-Nov-2015
                28-Jun-2022 
 ******************************************
 %chk=cp.chk
 Default route:  MaxDisk=500GB
 ----------------------------------------------------------------------
 #p b3lyp/def2TZVP td=(NStates=50) int=ultrafine scrf=(SMD,solvent=Acet
 onitrile) EmpiricalDispersion=GD3BJ
 ----------------------------------------------------------------------
 1/38=1/1;
 2/12=2,17=6,18=5,40=1/2;
 3/5=44,7=101,11=9,16=1,25=1,30=1,70=32201,72=2,74=-5,75=-5,124=41/1,2,8,3;
 4//1;
 5/5=2,38=5,53=2/2;
 8/6=1,10=1,108=50/1;
 9/41=50,42=1,70=2/14;
 6/7=2,8=2,9=2,10=2/1;
 99/5=1,9=1/99;
 Leave Link    1 at Tue Jun 28 18:25:22 2022, MaxMem=           0 cpu:         2.2
 (Enter /opt/nce/packages/global/g09/l101.exe)
 -----
 Title
 -----
 Symbolic Z-matrix:
 Charge =  0 Multiplicity = 1
 C                     0.15837   1.15948  -0.36631 
 C                    -0.54708  -0.00051  -0.0019 
 C                     0.16999  -1.15223   0.36805 
 C                     1.5748   -1.12447   0.39852 
 C                     2.28026   0.01134  -0.00729 
 C                     1.56345   1.14277  -0.40442 
 C                     2.28917  -2.22836   0.94305 
 C                     2.26529   2.25524  -0.94729 
 N                     2.87259  -3.10871   1.40085 
 N                     2.83797   3.1436   -1.40319 
 N                    -0.50664   2.33825  -0.71988 
 C                    -1.48102   2.47841  -1.7185 
 C                    -0.41688   3.54872  -0.00887 
 C                    -1.86627   1.58112  -2.70418 
 C                    -2.02994   3.77599  -1.63362 
 C                     0.37552   3.87456   1.08383 
 C                    -1.35467   4.45474  -0.54763 
 C                    -2.86105   1.98385  -3.58587 
 H                    -1.41421   0.60482  -2.79036 
 C                    -3.02193   4.16139  -2.53367 
 C                     0.22752   5.14457   1.62775 
 H                     1.07728   3.17259   1.51167 
 C                    -1.48665   5.72248   0.01615 
 C                    -3.43999   3.25576  -3.49929 
 H                    -3.18947   1.29812  -4.35618 
 H                    -3.4543    5.15238  -2.48052 
 C                    -0.68994   6.06136   1.10108 
 H                     0.83515   5.4256    2.47823 
 H                    -2.20592   6.42622  -0.38295 
 H                    -4.21347   3.53778  -4.20179 
 H                    -0.78027   7.04212   1.5496 
 N                    -1.95032  -0.01038  -0.0094 
 C                    -2.75714  -0.84296  -0.79764 
 C                    -2.7799    0.80768   0.76984 
 C                    -2.39276  -1.77081  -1.76358 
 C                    -4.11086  -0.55759  -0.51534 
 C                    -2.44166   1.74679   1.73412 
 C                    -4.12525   0.49549   0.47666 
 C                    -3.4097   -2.45154  -2.42019 
 H                    -1.35965  -1.95586  -2.01425 
 C                    -5.11546  -1.24923  -1.19022 
 C                    -3.47693   2.40926   2.38058 
 H                    -1.414     1.95491   1.98874 
 C                    -5.1486    1.16951   1.14099 
 C                    -4.7574   -2.20173  -2.13425 
 H                    -3.14963  -3.18615  -3.17139 
 H                    -6.15729  -1.03985  -0.98345 
 C                    -4.81714   2.13152   2.08508 
 H                    -3.23738   3.15229   3.13031 
 H                    -6.18443   0.94001   0.92557 
 H                    -5.52548  -2.75044  -2.6637 
 H                    -5.60015   2.66672   2.60642 
 N                    -0.4854   -2.33211   0.73468 
 C                    -0.39318  -3.54867   0.03486 
 C                    -1.46048  -2.46517   1.73361 
 C                     0.40577  -3.88396  -1.04981 
 C                    -1.33252  -4.45024   0.57809 
 C                    -1.84339  -1.56163   2.71435 
 C                    -2.00995  -3.76301   1.6575 
 C                     0.26117  -5.15868  -1.58339 
 H                     1.1106   -3.18446  -1.47671 
 C                    -1.46125  -5.72294   0.02474 
 C                    -2.83941  -1.95715   3.59793 
 H                    -1.38723  -0.58664   2.79656 
 C                    -3.0032   -4.14117   2.55923 
 C                    -0.65917  -6.07082  -1.05342 
 H                     0.87403  -5.44777  -2.42739 
 H                    -2.1813   -6.42395   0.42719 
 C                    -3.42105  -3.2283    3.51815 
 H                    -3.16674  -1.26644   4.36429 
 H                    -3.43684  -5.13191   2.5124 
 H                    -0.74657  -7.05575  -1.49331 
 H                    -4.19577  -3.50452   4.22161 
 N                     3.67847   0.01688  -0.01284 
 C                     4.49435   0.83581   0.78017 
 C                     4.49392  -0.80816  -0.79952 
 C                     4.13443   1.78468   1.7284 
 C                     5.84362   0.53043   0.49719 
 C                     4.13352  -1.75419  -1.75035 
 C                     5.84328  -0.51274  -0.50717 
 C                     5.16079   2.44836   2.38918 
 H                     3.09881   2.00426   1.94989 
 C                     6.855     1.2088    1.17594 
 C                     5.15942  -2.42632  -2.40321 
 H                     3.09793  -1.96455  -1.98013 
 C                     6.85424  -1.19934  -1.17813 
 C                     6.50555   2.1681    2.11644 
 H                     4.91168   3.19671   3.13046 
 H                     7.89488   0.98656   0.97302 
 C                     6.50433  -2.15668  -2.12044 
 H                     4.90982  -3.17286  -3.14612 
 H                     7.8943   -0.98523  -0.96756 
 H                     7.27942   2.70437   2.65013 
 H                     7.27791  -2.69946  -2.64793 
 
 NAtoms=     94 NQM=       94 NQMF=       0 NMMI=      0 NMMIF=      0
                NMic=       0 NMicF=      0.
                    Isotopes and Nuclear Properties:
 (Nuclear quadrupole moments (NQMom) in fm**2, nuclear magnetic moments (NMagM)
  in nuclear magnetons)

  Atom         1           2           3           4           5           6           7           8           9          10
 IAtWgt=          12          12          12          12          12          12          12          12          14          14
 AtmWgt=  12.0000000  12.0000000  12.0000000  12.0000000  12.0000000  12.0000000  12.0000000  12.0000000  14.0030740  14.0030740
 NucSpn=           0           0           0           0           0           0           0           0           2           2
 AtZEff=   0.0000000   0.0000000   0.0000000   0.0000000   0.0000000   0.0000000   0.0000000   0.0000000   0.0000000   0.0000000
 NQMom=    0.0000000   0.0000000   0.0000000   0.0000000   0.0000000   0.0000000   0.0000000   0.0000000   2.0440000   2.0440000
 NMagM=    0.0000000   0.0000000   0.0000000   0.0000000   0.0000000   0.0000000   0.0000000   0.0000000   0.4037610   0.4037610
 AtZNuc=   6.0000000   6.0000000   6.0000000   6.0000000   6.0000000   6.0000000   6.0000000   6.0000000   7.0000000   7.0000000

  Atom        11          12          13          14          15          16          17          18          19          20
 IAtWgt=          14          12          12          12          12          12          12          12           1          12
 AtmWgt=  14.0030740  12.0000000  12.0000000  12.0000000  12.0000000  12.0000000  12.0000000  12.0000000   1.0078250  12.0000000
 NucSpn=           2           0           0           0           0           0           0           0           1           0
 AtZEff=   0.0000000   0.0000000   0.0000000   0.0000000   0.0000000   0.0000000   0.0000000   0.0000000   0.0000000   0.0000000
 NQMom=    2.0440000   0.0000000   0.0000000   0.0000000   0.0000000   0.0000000   0.0000000   0.0000000   0.0000000   0.0000000
 NMagM=    0.4037610   0.0000000   0.0000000   0.0000000   0.0000000   0.0000000   0.0000000   0.0000000   2.7928460   0.0000000
 AtZNuc=   7.0000000   6.0000000   6.0000000   6.0000000   6.0000000   6.0000000   6.0000000   6.0000000   1.0000000   6.0000000

  Atom        21          22          23          24          25          26          27          28          29          30
 IAtWgt=          12           1          12          12           1           1          12           1           1           1
 AtmWgt=  12.0000000   1.0078250  12.0000000  12.0000000   1.0078250   1.0078250  12.0000000   1.0078250   1.0078250   1.0078250
 NucSpn=           0           1           0           0           1           1           0           1           1           1
 AtZEff=   0.0000000   0.0000000   0.0000000   0.0000000   0.0000000   0.0000000   0.0000000   0.0000000   0.0000000   0.0000000
 NQMom=    0.0000000   0.0000000   0.0000000   0.0000000   0.0000000   0.0000000   0.0000000   0.0000000   0.0000000   0.0000000
 NMagM=    0.0000000   2.7928460   0.0000000   0.0000000   2.7928460   2.7928460   0.0000000   2.7928460   2.7928460   2.7928460
 AtZNuc=   6.0000000   1.0000000   6.0000000   6.0000000   1.0000000   1.0000000   6.0000000   1.0000000   1.0000000   1.0000000

  Atom        31          32          33          34          35          36          37          38          39          40
 IAtWgt=           1          14          12          12          12          12          12          12          12           1
 AtmWgt=   1.0078250  14.0030740  12.0000000  12.0000000  12.0000000  12.0000000  12.0000000  12.0000000  12.0000000   1.0078250
 NucSpn=           1           2           0           0           0           0           0           0           0           1
 AtZEff=   0.0000000   0.0000000   0.0000000   0.0000000   0.0000000   0.0000000   0.0000000   0.0000000   0.0000000   0.0000000
 NQMom=    0.0000000   2.0440000   0.0000000   0.0000000   0.0000000   0.0000000   0.0000000   0.0000000   0.0000000   0.0000000
 NMagM=    2.7928460   0.4037610   0.0000000   0.0000000   0.0000000   0.0000000   0.0000000   0.0000000   0.0000000   2.7928460
 AtZNuc=   1.0000000   7.0000000   6.0000000   6.0000000   6.0000000   6.0000000   6.0000000   6.0000000   6.0000000   1.0000000

  Atom        41          42          43          44          45          46          47          48          49          50
 IAtWgt=          12          12           1          12          12           1           1          12           1           1
 AtmWgt=  12.0000000  12.0000000   1.0078250  12.0000000  12.0000000   1.0078250   1.0078250  12.0000000   1.0078250   1.0078250
 NucSpn=           0           0           1           0           0           1           1           0           1           1
 AtZEff=   0.0000000   0.0000000   0.0000000   0.0000000   0.0000000   0.0000000   0.0000000   0.0000000   0.0000000   0.0000000
 NQMom=    0.0000000   0.0000000   0.0000000   0.0000000   0.0000000   0.0000000   0.0000000   0.0000000   0.0000000   0.0000000
 NMagM=    0.0000000   0.0000000   2.7928460   0.0000000   0.0000000   2.7928460   2.7928460   0.0000000   2.7928460   2.7928460
 AtZNuc=   6.0000000   6.0000000   1.0000000   6.0000000   6.0000000   1.0000000   1.0000000   6.0000000   1.0000000   1.0000000

  Atom        51          52          53          54          55          56          57          58          59          60
 IAtWgt=           1           1          14          12          12          12          12          12          12          12
 AtmWgt=   1.0078250   1.0078250  14.0030740  12.0000000  12.0000000  12.0000000  12.0000000  12.0000000  12.0000000  12.0000000
 NucSpn=           1           1           2           0           0           0           0           0           0           0
 AtZEff=   0.0000000   0.0000000   0.0000000   0.0000000   0.0000000   0.0000000   0.0000000   0.0000000   0.0000000   0.0000000
 NQMom=    0.0000000   0.0000000   2.0440000   0.0000000   0.0000000   0.0000000   0.0000000   0.0000000   0.0000000   0.0000000
 NMagM=    2.7928460   2.7928460   0.4037610   0.0000000   0.0000000   0.0000000   0.0000000   0.0000000   0.0000000   0.0000000
 AtZNuc=   1.0000000   1.0000000   7.0000000   6.0000000   6.0000000   6.0000000   6.0000000   6.0000000   6.0000000   6.0000000

  Atom        61          62          63          64          65          66          67          68          69          70
 IAtWgt=           1          12          12           1          12          12           1           1          12           1
 AtmWgt=   1.0078250  12.0000000  12.0000000   1.0078250  12.0000000  12.0000000   1.0078250   1.0078250  12.0000000   1.0078250
 NucSpn=           1           0           0           1           0           0           1           1           0           1
 AtZEff=   0.0000000   0.0000000   0.0000000   0.0000000   0.0000000   0.0000000   0.0000000   0.0000000   0.0000000   0.0000000
 NQMom=    0.0000000   0.0000000   0.0000000   0.0000000   0.0000000   0.0000000   0.0000000   0.0000000   0.0000000   0.0000000
 NMagM=    2.7928460   0.0000000   0.0000000   2.7928460   0.0000000   0.0000000   2.7928460   2.7928460   0.0000000   2.7928460
 AtZNuc=   1.0000000   6.0000000   6.0000000   1.0000000   6.0000000   6.0000000   1.0000000   1.0000000   6.0000000   1.0000000

  Atom        71          72          73          74          75          76          77          78          79          80
 IAtWgt=           1           1           1          14          12          12          12          12          12          12
 AtmWgt=   1.0078250   1.0078250   1.0078250  14.0030740  12.0000000  12.0000000  12.0000000  12.0000000  12.0000000  12.0000000
 NucSpn=           1           1           1           2           0           0           0           0           0           0
 AtZEff=   0.0000000   0.0000000   0.0000000   0.0000000   0.0000000   0.0000000   0.0000000   0.0000000   0.0000000   0.0000000
 NQMom=    0.0000000   0.0000000   0.0000000   2.0440000   0.0000000   0.0000000   0.0000000   0.0000000   0.0000000   0.0000000
 NMagM=    2.7928460   2.7928460   2.7928460   0.4037610   0.0000000   0.0000000   0.0000000   0.0000000   0.0000000   0.0000000
 AtZNuc=   1.0000000   1.0000000   1.0000000   7.0000000   6.0000000   6.0000000   6.0000000   6.0000000   6.0000000   6.0000000

  Atom        81          82          83          84          85          86          87          88          89          90
 IAtWgt=          12           1          12          12           1          12          12           1           1          12
 AtmWgt=  12.0000000   1.0078250  12.0000000  12.0000000   1.0078250  12.0000000  12.0000000   1.0078250   1.0078250  12.0000000
 NucSpn=           0           1           0           0           1           0           0           1           1           0
 AtZEff=   0.0000000   0.0000000   0.0000000   0.0000000   0.0000000   0.0000000   0.0000000   0.0000000   0.0000000   0.0000000
 NQMom=    0.0000000   0.0000000   0.0000000   0.0000000   0.0000000   0.0000000   0.0000000   0.0000000   0.0000000   0.0000000
 NMagM=    0.0000000   2.7928460   0.0000000   0.0000000   2.7928460   0.0000000   0.0000000   2.7928460   2.7928460   0.0000000
 AtZNuc=   6.0000000   1.0000000   6.0000000   6.0000000   1.0000000   6.0000000   6.0000000   1.0000000   1.0000000   6.0000000

  Atom        91          92          93          94
 IAtWgt=           1           1           1           1
 AtmWgt=   1.0078250   1.0078250   1.0078250   1.0078250
 NucSpn=           1           1           1           1
 AtZEff=   0.0000000   0.0000000   0.0000000   0.0000000
 NQMom=    0.0000000   0.0000000   0.0000000   0.0000000
 NMagM=    2.7928460   2.7928460   2.7928460   2.7928460
 AtZNuc=   1.0000000   1.0000000   1.0000000   1.0000000
 Leave Link  101 at Tue Jun 28 18:25:22 2022, MaxMem=  5242880000 cpu:         2.0
 (Enter /opt/nce/packages/global/g09/l202.exe)
 Stoichiometry    C56H32N6
 Framework group  C1[X(C56H32N6)]
 Deg. of freedom   276
 Full point group                 C1      NOp   1
 Largest Abelian subgroup         C1      NOp   1
 Largest concise Abelian subgroup C1      NOp   1
                         Standard orientation:                         
 ---------------------------------------------------------------------
 Center     Atomic      Atomic             Coordinates (Angstroms)
 Number     Number       Type             X           Y           Z
 ---------------------------------------------------------------------
      1          6           0        0.158365    1.159478   -0.366306
      2          6           0       -0.547078   -0.000513   -0.001903
      3          6           0        0.169993   -1.152231    0.368047
      4          6           0        1.574804   -1.124471    0.398522
      5          6           0        2.280256    0.011336   -0.007290
      6          6           0        1.563448    1.142769   -0.404417
      7          6           0        2.289173   -2.228356    0.943047
      8          6           0        2.265293    2.255235   -0.947290
      9          7           0        2.872587   -3.108705    1.400852
     10          7           0        2.837971    3.143604   -1.403191
     11          7           0       -0.506644    2.338246   -0.719878
     12          6           0       -1.481021    2.478409   -1.718496
     13          6           0       -0.416876    3.548724   -0.008870
     14          6           0       -1.866271    1.581123   -2.704177
     15          6           0       -2.029941    3.775989   -1.633624
     16          6           0        0.375515    3.874559    1.083834
     17          6           0       -1.354674    4.454735   -0.547630
     18          6           0       -2.861048    1.983849   -3.585865
     19          1           0       -1.414206    0.604818   -2.790362
     20          6           0       -3.021927    4.161393   -2.533671
     21          6           0        0.227524    5.144573    1.627746
     22          1           0        1.077280    3.172592    1.511668
     23          6           0       -1.486647    5.722483    0.016151
     24          6           0       -3.439992    3.255761   -3.499285
     25          1           0       -3.189466    1.298122   -4.356182
     26          1           0       -3.454304    5.152379   -2.480522
     27          6           0       -0.689942    6.061359    1.101080
     28          1           0        0.835145    5.425598    2.478228
     29          1           0       -2.205918    6.426222   -0.382948
     30          1           0       -4.213468    3.537780   -4.201793
     31          1           0       -0.780266    7.042123    1.549603
     32          7           0       -1.950319   -0.010384   -0.009398
     33          6           0       -2.757137   -0.842963   -0.797637
     34          6           0       -2.779901    0.807684    0.769836
     35          6           0       -2.392755   -1.770806   -1.763577
     36          6           0       -4.110856   -0.557589   -0.515342
     37          6           0       -2.441657    1.746790    1.734123
     38          6           0       -4.125251    0.495491    0.476655
     39          6           0       -3.409704   -2.451541   -2.420188
     40          1           0       -1.359652   -1.955861   -2.014249
     41          6           0       -5.115459   -1.249234   -1.190223
     42          6           0       -3.476928    2.409259    2.380585
     43          1           0       -1.414001    1.954909    1.988739
     44          6           0       -5.148600    1.169512    1.140985
     45          6           0       -4.757404   -2.201734   -2.134248
     46          1           0       -3.149632   -3.186151   -3.171393
     47          1           0       -6.157287   -1.039849   -0.983447
     48          6           0       -4.817140    2.131515    2.085081
     49          1           0       -3.237377    3.152292    3.130308
     50          1           0       -6.184429    0.940014    0.925574
     51          1           0       -5.525484   -2.750442   -2.663703
     52          1           0       -5.600149    2.666718    2.606416
     53          7           0       -0.485404   -2.332105    0.734678
     54          6           0       -0.393175   -3.548670    0.034860
     55          6           0       -1.460479   -2.465169    1.733611
     56          6           0        0.405773   -3.883955   -1.049810
     57          6           0       -1.332519   -4.450239    0.578085
     58          6           0       -1.843392   -1.561629    2.714353
     59          6           0       -2.009954   -3.763007    1.657496
     60          6           0        0.261167   -5.158679   -1.583388
     61          1           0        1.110598   -3.184457   -1.476707
     62          6           0       -1.461250   -5.722944    0.024738
     63          6           0       -2.839410   -1.957147    3.597927
     64          1           0       -1.387228   -0.586643    2.796555
     65          6           0       -3.003197   -4.141173    2.559229
     66          6           0       -0.659168   -6.070821   -1.053421
     67          1           0        0.874026   -5.447773   -2.427390
     68          1           0       -2.181303   -6.423946    0.427189
     69          6           0       -3.421051   -3.228295    3.518154
     70          1           0       -3.166739   -1.266440    4.364290
     71          1           0       -3.436837   -5.131912    2.512398
     72          1           0       -0.746571   -7.055747   -1.493305
     73          1           0       -4.195767   -3.504521    4.221607
     74          7           0        3.678467    0.016876   -0.012837
     75          6           0        4.494347    0.835811    0.780168
     76          6           0        4.493924   -0.808164   -0.799520
     77          6           0        4.134427    1.784682    1.728399
     78          6           0        5.843617    0.530429    0.497192
     79          6           0        4.133520   -1.754187   -1.750347
     80          6           0        5.843284   -0.512735   -0.507165
     81          6           0        5.160791    2.448363    2.389181
     82          1           0        3.098806    2.004257    1.949887
     83          6           0        6.855001    1.208797    1.175944
     84          6           0        5.159421   -2.426319   -2.403206
     85          1           0        3.097934   -1.964554   -1.980128
     86          6           0        6.854235   -1.199339   -1.178125
     87          6           0        6.505549    2.168095    2.116444
     88          1           0        4.911679    3.196709    3.130457
     89          1           0        7.894875    0.986562    0.973017
     90          6           0        6.504326   -2.156680   -2.120440
     91          1           0        4.909818   -3.172857   -3.146116
     92          1           0        7.894295   -0.985226   -0.967555
     93          1           0        7.279423    2.704365    2.650130
     94          1           0        7.277907   -2.699455   -2.647925
 ---------------------------------------------------------------------
 Rotational constants (GHZ):      0.0572777      0.0448055      0.0323954
 Leave Link  202 at Tue Jun 28 18:25:22 2022, MaxMem=  5242880000 cpu:         0.1
 (Enter /opt/nce/packages/global/g09/l301.exe)
 Standard basis: def2TZVP (5D, 7F)
 Ernie: Thresh=  0.10000D-02 Tol=  0.10000D-05 Strict=F.
 There are  2424 symmetry adapted cartesian basis functions of A   symmetry.
 There are  2114 symmetry adapted basis functions of A   symmetry.
  2114 basis functions,  3418 primitive gaussians,  2424 cartesian basis functions
   205 alpha electrons      205 beta electrons
       nuclear repulsion energy      8846.3972859682 Hartrees.
 IExCor=  402 DFT=T Ex+Corr=B3LYP ExCW=0 ScaHFX=  0.200000
 ScaDFX=  0.800000  0.720000  1.000000  0.810000 ScalE2=  1.000000  1.000000
 IRadAn=      5 IRanWt=     -1 IRanGd=            0 ICorTp=0 IEmpDi=141
 NAtoms=   94 NActive=   94 NUniq=   94 SFac= 1.00D+00 NAtFMM=   60 NAOKFM=T Big=T
 Integral buffers will be    131072 words long.
 Regular integral format.
 Two-electron integral symmetry is turned on.
 R6Disp:  Grimme-D3(BJ) Dispersion energy=       -0.3043515613 Hartrees.
 Nuclear repulsion after empirical dispersion term =     8846.0929344069 Hartrees.
 ------------------------------------------------------------------------------
 Polarizable Continuum Model (PCM)
 =================================
 Model                : PCM (using non-symmetric T matrix).
 Atomic radii         : SMD-Coulomb.
 Polarization charges : Total charges.
 Charge compensation  : None.
 Solution method      : On-the-fly selection.
 Cavity type          : VdW (van der Waals Surface) (Alpha=1.000).
 Cavity algorithm     : GePol (No added spheres)
                        Default sphere list used, NSphG=   94.
                        Lebedev-Laikov grids with approx.  5.0 points / Ang**2.
                        Smoothing algorithm: York/Karplus (Gamma=1.0000).
                        Polarization charges: spherical gaussians, with
                                              point-specific exponents (IZeta= 3).
                        Self-potential: point-specific (ISelfS= 7).
                        Self-field    : sphere-specific E.n sum rule (ISelfD= 2).
 Solvent              : Acetonitrile, Eps=  35.688000 Eps(inf)=   1.806874
 ------------------------------------------------------------------------------
 GePol: Number of generator spheres                  =      94
 GePol: Total number of spheres                      =      94
 GePol: Number of exposed spheres                    =      94 (100.00%)
 GePol: Number of points                             =    7030
 GePol: Average weight of points                     =       0.11
 GePol: Minimum weight of points                     =   0.62D-11
 GePol: Maximum weight of points                     =    0.17992
 GePol: Number of points with low weight             =     429
 GePol: Fraction of low-weight points (<1% of avg)   =       6.10%
 GePol: Cavity surface area                          =    742.605 Ang**2
 GePol: Cavity volume                                =    780.161 Ang**3
 ------------------------------------------------------------------------------
 Atomic radii for non-electrostatic terms: SMD-CDS.
 ------------------------------------------------------------------------------
 PCM non-electrostatic energy =        -0.0157271959 Hartrees.
 Nuclear repulsion after PCM non-electrostatic terms =     8846.0772072110 Hartrees.
 Leave Link  301 at Tue Jun 28 18:25:22 2022, MaxMem=  5242880000 cpu:         2.9
 (Enter /opt/nce/packages/global/g09/l302.exe)
 NPDir=0 NMtPBC=     1 NCelOv=     1 NCel=       1 NClECP=     1 NCelD=      1
         NCelK=      1 NCelE2=     1 NClLst=     1 CellRange=     0.0.
 One-electron integrals computed using PRISM.
   1 Symmetry operations used in ECPInt.
 ECPInt:  NShTT=  328455 NPrTT= 1027488 LenC2=  242404 LenP2D=  486941.
 LDataN:  DoStor=T MaxTD1= 6 Len=  172
 NBasis=  2114 RedAO= T EigKep=  2.52D-06  NBF=  2114
 NBsUse=  2113 1.00D-06 EigRej=  6.60D-07 NBFU=  2113
 Precomputing XC quadrature grid using
 IXCGrd= 4 IRadAn=           5 IRanWt=          -1 IRanGd=           0 AccXCQ= 0.00D+00.
 Generated NRdTot=       0 NPtTot=           0 NUsed=           0 NTot=          32
 NSgBfM=  2294  2298  2299  2301  2301 MxSgAt=    94 MxSgA2=    94.
 Leave Link  302 at Tue Jun 28 18:25:35 2022, MaxMem=  5242880000 cpu:       150.7
 (Enter /opt/nce/packages/global/g09/l308.exe)
 Leave Link  308 at Tue Jun 28 18:25:37 2022, MaxMem=  5242880000 cpu:        18.8
 (Enter /opt/nce/packages/global/g09/l303.exe)
 DipDrv:  MaxL=1.
 Leave Link  303 at Tue Jun 28 18:25:38 2022, MaxMem=  5242880000 cpu:        10.1
 (Enter /opt/nce/packages/global/g09/l401.exe)
 ExpMin= 9.52D-02 ExpMax= 1.97D+04 ExpMxC= 6.73D+02 IAcc=3 IRadAn=         5 AccDes= 0.00D+00
 Harris functional with IExCor=  402 and IRadAn=       5 diagonalized for initial guess.
 HarFok:  IExCor=  402 AccDes= 0.00D+00 IRadAn=         5 IDoV= 1 UseB2=F ITyADJ=14
 ICtDFT=  3500011 ScaDFX=  1.000000  1.000000  1.000000  1.000000
 FoFCou: FMM=F IPFlag=           0 FMFlag=      100000 FMFlg1=        2001
         NFxFlg=           0 DoJE=T BraDBF=F KetDBF=T FulRan=T
         wScrn=  0.000000 ICntrl=     500 IOpCl=  0 I1Cent=   200000004 NGrid=           0
         NMat0=    1 NMatS0=      1 NMatT0=    0 NMatD0=    1 NMtDS0=    0 NMtDT0=    0
 Petite list used in FoFCou.
 Harris En= -2483.05288679468    
 JPrj=0 DoOrth=F DoCkMO=F.
 Leave Link  401 at Tue Jun 28 18:26:17 2022, MaxMem=  5242880000 cpu:       469.6
 (Enter /opt/nce/packages/global/g09/l502.exe)
 Closed shell SCF:
 Using DIIS extrapolation, IDIIS=  1040.
 Integral symmetry usage will be decided dynamically.
 IVT=    17692622 IEndB=    17692622 NGot=  5242880000 MDV=  5231082219
 LenX=  5231082219 LenY=  5225204019
 Requested convergence on RMS density matrix=1.00D-08 within 128 cycles.
 Requested convergence on MAX density matrix=1.00D-06.
 Requested convergence on             energy=1.00D-06.
 No special actions if energy rises.
 Fock matrices will be formed incrementally for  20 cycles.

 Cycle   1  Pass 1  IDiag  1:
 FoFJK:  IHMeth= 1 ICntrl=       0 DoSepK=F KAlg= 0 I1Cent=   0 FoldK=F
 IRaf= 670000000 NMat=   1 IRICut=       1 DoRegI=T DoRafI=F ISym2E= 0.
 FoFCou: FMM=T IPFlag=           0 FMFlag=      100000 FMFlg1=        2001
         NFxFlg=           0 DoJE=F BraDBF=F KetDBF=F FulRan=T
         wScrn=  0.000000 ICntrl=       0 IOpCl=  0 I1Cent=           0 NGrid=           0
         NMat0=    1 NMatS0=      1 NMatT0=    0 NMatD0=    1 NMtDS0=    0 NMtDT0=    0
 Symmetry not used in FoFCou.
 FMM levels:  10  Number of levels for PrismC:   9
 Inv3:  Mode=1 IEnd=   148262700.
 Iteration    1 A*A^-1 deviation from unit magnitude is 6.33D-15 for   7014.
 Iteration    1 A*A^-1 deviation from orthogonality  is 4.83D-15 for   6016   5106.
 Iteration    1 A^-1*A deviation from unit magnitude is 6.11D-15 for   7018.
 Iteration    1 A^-1*A deviation from orthogonality  is 6.69D-10 for   3194   3162.
 Iteration    2 A*A^-1 deviation from unit magnitude is 3.11D-15 for   2712.
 Iteration    2 A*A^-1 deviation from orthogonality  is 3.77D-15 for   5082    632.
 Iteration    2 A^-1*A deviation from unit magnitude is 1.11D-15 for   1233.
 Iteration    2 A^-1*A deviation from orthogonality  is 3.64D-16 for   4717   1106.
 E= -2481.64990572324    
 DIIS: error= 1.72D-02 at cycle   1 NSaved=   1.
 NSaved= 1 IEnMin= 1 EnMin= -2481.64990572324     IErMin= 1 ErrMin= 1.72D-02
 ErrMax= 1.72D-02  0.00D+00 EMaxC= 1.00D-01 BMatC= 1.41D+00 BMatP= 1.41D+00
 IDIUse=3 WtCom= 8.28D-01 WtEn= 1.72D-01
 Coeff-Com:  0.100D+01
 Coeff-En:   0.100D+01
 Coeff:      0.100D+01
 Gap=     0.253 Goal=   None    Shift=    0.000
 GapD=    0.253 DampG=1.000 DampE=0.500 DampFc=0.5000 IDamp=-1.
 Damping current iteration by 5.00D-01
 RMSDP=2.17D-03 MaxDP=3.29D-01              OVMax= 3.24D-01

 Cycle   2  Pass 1  IDiag  1:
 RMSU=  1.08D-03    CP:  9.70D-01
 E= -2482.16264008465     Delta-E=       -0.512734361411 Rises=F Damp=T
 DIIS: error= 5.98D-03 at cycle   2 NSaved=   2.
 NSaved= 2 IEnMin= 2 EnMin= -2482.16264008465     IErMin= 2 ErrMin= 5.98D-03
 ErrMax= 5.98D-03  0.00D+00 EMaxC= 1.00D-01 BMatC= 1.74D-01 BMatP= 1.41D+00
 IDIUse=3 WtCom= 9.40D-01 WtEn= 5.98D-02
 Coeff-Com:  0.950D-01 0.905D+00
 Coeff-En:   0.205D+00 0.795D+00
 Coeff:      0.102D+00 0.898D+00
 Gap=     0.153 Goal=   None    Shift=    0.000
 RMSDP=9.31D-04 MaxDP=1.47D-01 DE=-5.13D-01 OVMax= 2.92D-01

 Cycle   3  Pass 1  IDiag  1:
 RMSU=  7.48D-04    CP:  9.04D-01  5.51D-01
 E= -2482.73687540037     Delta-E=       -0.574235315715 Rises=F Damp=F
 DIIS: error= 1.19D-02 at cycle   3 NSaved=   3.
 NSaved= 3 IEnMin= 3 EnMin= -2482.73687540037     IErMin= 2 ErrMin= 5.98D-03
 ErrMax= 1.19D-02  0.00D+00 EMaxC= 1.00D-01 BMatC= 2.79D-01 BMatP= 1.74D-01
 IDIUse=2 WtCom= 0.00D+00 WtEn= 1.00D+00
 Coeff-En:   0.000D+00 0.000D+00 0.100D+01
 Coeff:      0.000D+00 0.000D+00 0.100D+01
 Gap=     0.130 Goal=   None    Shift=    0.000
 RMSDP=1.44D-03 MaxDP=2.46D-01 DE=-5.74D-01 OVMax= 3.96D-01

 Cycle   4  Pass 1  IDiag  1:
 RMSU=  9.25D-04    CP:  9.22D-01  1.35D+00  8.49D-02
 E= -2481.57891050737     Delta-E=        1.157964892993 Rises=F Damp=F
 DIIS: error= 2.28D-02 at cycle   4 NSaved=   4.
 NSaved= 4 IEnMin= 3 EnMin= -2482.73687540037     IErMin= 2 ErrMin= 5.98D-03
 ErrMax= 2.28D-02  0.00D+00 EMaxC= 1.00D-01 BMatC= 1.42D+00 BMatP= 1.74D-01
 IDIUse=2 WtCom= 0.00D+00 WtEn= 1.00D+00
 Coeff-En:   0.000D+00 0.000D+00 0.781D+00 0.219D+00
 Coeff:      0.000D+00 0.000D+00 0.781D+00 0.219D+00
 Gap=     0.128 Goal=   None    Shift=    0.000
 RMSDP=9.98D-04 MaxDP=2.06D-01 DE= 1.16D+00 OVMax= 1.88D-01

 Cycle   5  Pass 1  IDiag  1:
 RMSU=  2.44D-04    CP:  9.12D-01  7.78D-01  6.42D-01  3.35D-01
 E= -2482.90712984361     Delta-E=       -1.328219336234 Rises=F Damp=F
 DIIS: error= 6.61D-03 at cycle   5 NSaved=   5.
 NSaved= 5 IEnMin= 5 EnMin= -2482.90712984361     IErMin= 2 ErrMin= 5.98D-03
 ErrMax= 6.61D-03  0.00D+00 EMaxC= 1.00D-01 BMatC= 1.09D-01 BMatP= 1.74D-01
 IDIUse=3 WtCom= 9.34D-01 WtEn= 6.61D-02
 Coeff-Com:  0.571D-02-0.358D-02 0.320D+00-0.618D-01 0.740D+00
 Coeff-En:   0.000D+00 0.000D+00 0.330D+00 0.000D+00 0.670D+00
 Coeff:      0.533D-02-0.334D-02 0.320D+00-0.577D-01 0.735D+00
 Gap=     0.122 Goal=   None    Shift=    0.000
 RMSDP=2.24D-04 MaxDP=2.16D-02 DE=-1.33D+00 OVMax= 6.01D-02

 Cycle   6  Pass 1  IDiag  1:
 RMSU=  4.59D-05    CP:  9.09D-01  6.72D-01  7.93D-01  1.96D-01  6.97D-01
 E= -2483.01368267339     Delta-E=       -0.106552829786 Rises=F Damp=F
 DIIS: error= 7.78D-04 at cycle   6 NSaved=   6.
 NSaved= 6 IEnMin= 6 EnMin= -2483.01368267339     IErMin= 6 ErrMin= 7.78D-04
 ErrMax= 7.78D-04  0.00D+00 EMaxC= 1.00D-01 BMatC= 1.60D-03 BMatP= 1.09D-01
 IDIUse=3 WtCom= 9.92D-01 WtEn= 7.78D-03
 Coeff-Com:  0.651D-03 0.304D-02 0.164D+00-0.630D-01 0.483D+00 0.412D+00
 Coeff-En:   0.000D+00 0.000D+00 0.000D+00 0.000D+00 0.000D+00 0.100D+01
 Coeff:      0.646D-03 0.301D-02 0.163D+00-0.625D-01 0.479D+00 0.417D+00
 Gap=     0.120 Goal=   None    Shift=    0.000
 RMSDP=2.40D-05 MaxDP=2.38D-03 DE=-1.07D-01 OVMax= 6.89D-03

 Cycle   7  Pass 1  IDiag  1:
 RMSU=  1.68D-05    CP:  9.09D-01  6.68D-01  7.92D-01  1.94D-01  7.33D-01
                    CP:  6.94D-01
 E= -2483.01502775393     Delta-E=       -0.001345080542 Rises=F Damp=F
 DIIS: error= 1.90D-04 at cycle   7 NSaved=   7.
 NSaved= 7 IEnMin= 7 EnMin= -2483.01502775393     IErMin= 7 ErrMin= 1.90D-04
 ErrMax= 1.90D-04  0.00D+00 EMaxC= 1.00D-01 BMatC= 7.65D-05 BMatP= 1.60D-03
 IDIUse=3 WtCom= 9.98D-01 WtEn= 1.90D-03
 Coeff-Com:  0.106D-03 0.974D-03 0.472D-01-0.230D-01 0.145D+00 0.181D+00
 Coeff-Com:  0.648D+00
 Coeff-En:   0.000D+00 0.000D+00 0.000D+00 0.000D+00 0.000D+00 0.000D+00
 Coeff-En:   0.100D+01
 Coeff:      0.105D-03 0.972D-03 0.471D-01-0.230D-01 0.145D+00 0.181D+00
 Coeff:      0.649D+00
 Gap=     0.119 Goal=   None    Shift=    0.000
 RMSDP=7.82D-06 MaxDP=6.09D-04 DE=-1.35D-03 OVMax= 2.46D-03

 Cycle   8  Pass 1  IDiag  1:
 RMSU=  5.63D-06    CP:  9.08D-01  6.68D-01  7.95D-01  1.95D-01  7.27D-01
                    CP:  7.71D-01  8.15D-01
 E= -2483.01507795552     Delta-E=       -0.000050201583 Rises=F Damp=F
 DIIS: error= 1.00D-04 at cycle   8 NSaved=   8.
 NSaved= 8 IEnMin= 8 EnMin= -2483.01507795552     IErMin= 8 ErrMin= 1.00D-04
 ErrMax= 1.00D-04  0.00D+00 EMaxC= 1.00D-01 BMatC= 2.79D-05 BMatP= 7.65D-05
 IDIUse=3 WtCom= 9.99D-01 WtEn= 1.00D-03
 Coeff-Com:  0.137D-03-0.183D-03 0.106D-01-0.620D-02 0.288D-01 0.556D-01
 Coeff-Com:  0.448D+00 0.463D+00
 Coeff-En:   0.000D+00 0.000D+00 0.000D+00 0.000D+00 0.000D+00 0.000D+00
 Coeff-En:   0.238D+00 0.762D+00
 Coeff:      0.137D-03-0.183D-03 0.106D-01-0.619D-02 0.288D-01 0.556D-01
 Coeff:      0.448D+00 0.463D+00
 Gap=     0.119 Goal=   None    Shift=    0.000
 RMSDP=3.26D-06 MaxDP=4.04D-04 DE=-5.02D-05 OVMax= 1.14D-03

 Cycle   9  Pass 1  IDiag  1:
 RMSU=  1.95D-06    CP:  9.08D-01  6.68D-01  7.95D-01  1.94D-01  7.26D-01
                    CP:  7.55D-01  9.12D-01  6.90D-01
 E= -2483.01510457077     Delta-E=       -0.000026615249 Rises=F Damp=F
 DIIS: error= 1.80D-05 at cycle   9 NSaved=   9.
 NSaved= 9 IEnMin= 9 EnMin= -2483.01510457077     IErMin= 9 ErrMin= 1.80D-05
 ErrMax= 1.80D-05  0.00D+00 EMaxC= 1.00D-01 BMatC= 1.28D-06 BMatP= 2.79D-05
 IDIUse=1 WtCom= 1.00D+00 WtEn= 0.00D+00
 Coeff-Com:  0.107D-03-0.260D-03 0.126D-02-0.910D-03 0.184D-03 0.104D-01
 Coeff-Com:  0.183D+00 0.245D+00 0.561D+00
 Coeff:      0.107D-03-0.260D-03 0.126D-02-0.910D-03 0.184D-03 0.104D-01
 Coeff:      0.183D+00 0.245D+00 0.561D+00
 Gap=     0.120 Goal=   None    Shift=    0.000
 RMSDP=9.48D-07 MaxDP=7.75D-05 DE=-2.66D-05 OVMax= 2.63D-04

 Cycle  10  Pass 1  IDiag  1:
 RMSU=  6.11D-07    CP:  9.08D-01  6.68D-01  7.95D-01  1.94D-01  7.25D-01
                    CP:  7.58D-01  9.22D-01  7.20D-01  7.67D-01
 E= -2483.01510578458     Delta-E=       -0.000001213810 Rises=F Damp=F
 DIIS: error= 9.43D-06 at cycle  10 NSaved=  10.
 NSaved=10 IEnMin=10 EnMin= -2483.01510578458     IErMin=10 ErrMin= 9.43D-06
 ErrMax= 9.43D-06  0.00D+00 EMaxC= 1.00D-01 BMatC= 1.45D-07 BMatP= 1.28D-06
 IDIUse=1 WtCom= 1.00D+00 WtEn= 0.00D+00
 Coeff-Com:  0.461D-04-0.136D-03-0.416D-03 0.150D-03-0.274D-02-0.487D-04
 Coeff-Com:  0.436D-01 0.719D-01 0.311D+00 0.577D+00
 Coeff:      0.461D-04-0.136D-03-0.416D-03 0.150D-03-0.274D-02-0.487D-04
 Coeff:      0.436D-01 0.719D-01 0.311D+00 0.577D+00
 Gap=     0.119 Goal=   None    Shift=    0.000
 RMSDP=2.94D-07 MaxDP=3.14D-05 DE=-1.21D-06 OVMax= 8.07D-05

 Cycle  11  Pass 1  IDiag  1:
 RMSU=  2.21D-07    CP:  9.08D-01  6.68D-01  7.95D-01  1.94D-01  7.25D-01
                    CP:  7.60D-01  9.26D-01  7.20D-01  8.11D-01  8.22D-01
 E= -2483.01510591555     Delta-E=       -0.000000130971 Rises=F Damp=F
 DIIS: error= 1.95D-06 at cycle  11 NSaved=  11.
 NSaved=11 IEnMin=11 EnMin= -2483.01510591555     IErMin=11 ErrMin= 1.95D-06
 ErrMax= 1.95D-06  0.00D+00 EMaxC= 1.00D-01 BMatC= 1.10D-08 BMatP= 1.45D-07
 IDIUse=1 WtCom= 1.00D+00 WtEn= 0.00D+00
 Coeff-Com:  0.125D-04-0.378D-04-0.390D-03 0.169D-03-0.160D-02-0.422D-03
 Coeff-Com:  0.837D-02 0.182D-01 0.114D+00 0.285D+00 0.577D+00
 Coeff:      0.125D-04-0.378D-04-0.390D-03 0.169D-03-0.160D-02-0.422D-03
 Coeff:      0.837D-02 0.182D-01 0.114D+00 0.285D+00 0.577D+00
 Gap=     0.119 Goal=   None    Shift=    0.000
 RMSDP=7.64D-08 MaxDP=7.49D-06 DE=-1.31D-07 OVMax= 2.87D-05

 Cycle  12  Pass 1  IDiag  1:
 RMSU=  6.47D-08    CP:  9.08D-01  6.68D-01  7.95D-01  1.94D-01  7.25D-01
                    CP:  7.60D-01  9.25D-01  7.23D-01  8.19D-01  8.44D-01
                    CP:  8.85D-01
 E= -2483.01510592524     Delta-E=       -0.000000009692 Rises=F Damp=F
 DIIS: error= 1.18D-06 at cycle  12 NSaved=  12.
 NSaved=12 IEnMin=12 EnMin= -2483.01510592524     IErMin=12 ErrMin= 1.18D-06
 ErrMax= 1.18D-06  0.00D+00 EMaxC= 1.00D-01 BMatC= 1.96D-09 BMatP= 1.10D-08
 IDIUse=1 WtCom= 1.00D+00 WtEn= 0.00D+00
 Coeff-Com:  0.296D-06-0.685D-05-0.142D-03 0.701D-04-0.414D-03 0.109D-03
 Coeff-Com: -0.177D-02-0.715D-03 0.141D-01 0.654D-01 0.311D+00 0.612D+00
 Coeff:      0.296D-06-0.685D-05-0.142D-03 0.701D-04-0.414D-03 0.109D-03
 Coeff:     -0.177D-02-0.715D-03 0.141D-01 0.654D-01 0.311D+00 0.612D+00
 Gap=     0.119 Goal=   None    Shift=    0.000
 RMSDP=3.69D-08 MaxDP=4.29D-06 DE=-9.69D-09 OVMax= 7.43D-06

 Cycle  13  Pass 1  IDiag  1:
 RMSU=  2.35D-08    CP:  9.08D-01  6.68D-01  7.95D-01  1.94D-01  7.25D-01
                    CP:  7.60D-01  9.25D-01  7.24D-01  8.23D-01  8.50D-01
                    CP:  9.38D-01  8.70D-01
 E= -2483.01510592710     Delta-E=       -0.000000001863 Rises=F Damp=F
 DIIS: error= 2.62D-07 at cycle  13 NSaved=  13.
 NSaved=13 IEnMin=13 EnMin= -2483.01510592710     IErMin=13 ErrMin= 2.62D-07
 ErrMax= 2.62D-07  0.00D+00 EMaxC= 1.00D-01 BMatC= 1.80D-10 BMatP= 1.96D-09
 IDIUse=1 WtCom= 1.00D+00 WtEn= 0.00D+00
 Coeff-Com: -0.166D-05 0.930D-08-0.295D-04 0.142D-04-0.129D-04 0.194D-03
 Coeff-Com: -0.179D-02-0.238D-02-0.657D-02-0.152D-03 0.966D-01 0.297D+00
 Coeff-Com:  0.617D+00
 Coeff:     -0.166D-05 0.930D-08-0.295D-04 0.142D-04-0.129D-04 0.194D-03
 Coeff:     -0.179D-02-0.238D-02-0.657D-02-0.152D-03 0.966D-01 0.297D+00
 Coeff:      0.617D+00
 Gap=     0.119 Goal=   None    Shift=    0.000
 RMSDP=2.07D-08 MaxDP=1.88D-06 DE=-1.86D-09 OVMax= 2.85D-06

 Cycle  14  Pass 1  IDiag  1:
 RMSU=  1.70D-08    CP:  9.08D-01  6.68D-01  7.95D-01  1.94D-01  7.25D-01
                    CP:  7.60D-01  9.25D-01  7.24D-01  8.24D-01  8.57D-01
                    CP:  9.51D-01  9.32D-01  1.06D+00
 E= -2483.01510592731     Delta-E=       -0.000000000213 Rises=F Damp=F
 DIIS: error= 9.33D-08 at cycle  14 NSaved=  14.
 NSaved=14 IEnMin=14 EnMin= -2483.01510592731     IErMin=14 ErrMin= 9.33D-08
 ErrMax= 9.33D-08  0.00D+00 EMaxC= 1.00D-01 BMatC= 2.91D-11 BMatP= 1.80D-10
 IDIUse=1 WtCom= 1.00D+00 WtEn= 0.00D+00
 Coeff-Com: -0.125D-05 0.228D-05-0.349D-05-0.237D-06 0.320D-04 0.860D-04
 Coeff-Com: -0.729D-03-0.110D-02-0.510D-02-0.786D-02 0.132D-01 0.775D-01
 Coeff-Com:  0.361D+00 0.563D+00
 Coeff:     -0.125D-05 0.228D-05-0.349D-05-0.237D-06 0.320D-04 0.860D-04
 Coeff:     -0.729D-03-0.110D-02-0.510D-02-0.786D-02 0.132D-01 0.775D-01
 Coeff:      0.361D+00 0.563D+00
 Gap=     0.119 Goal=   None    Shift=    0.000
 RMSDP=1.87D-08 MaxDP=1.09D-06 DE=-2.13D-10 OVMax= 1.21D-06

 Cycle  15  Pass 1  IDiag  1:
 RMSU=  1.34D-08    CP:  9.08D-01  6.68D-01  7.95D-01  1.94D-01  7.25D-01
                    CP:  7.61D-01  9.25D-01  7.24D-01  8.25D-01  8.58D-01
                    CP:  9.62D-01  9.46D-01  1.39D+00  1.58D+00
 E= -2483.01510592716     Delta-E=        0.000000000155 Rises=F Damp=F
 DIIS: error= 2.69D-08 at cycle  15 NSaved=  15.
 NSaved=15 IEnMin=14 EnMin= -2483.01510592731     IErMin=15 ErrMin= 2.69D-08
 ErrMax= 2.69D-08  0.00D+00 EMaxC= 1.00D-01 BMatC= 2.28D-12 BMatP= 2.91D-11
 IDIUse=1 WtCom= 1.00D+00 WtEn= 0.00D+00
 Coeff-Com: -0.602D-06 0.155D-05-0.961D-06-0.638D-06 0.134D-04 0.270D-04
 Coeff-Com: -0.269D-03-0.405D-03-0.208D-02-0.363D-02 0.181D-02 0.218D-01
 Coeff-Com:  0.148D+00 0.292D+00 0.543D+00
 Coeff:     -0.602D-06 0.155D-05-0.961D-06-0.638D-06 0.134D-04 0.270D-04
 Coeff:     -0.269D-03-0.405D-03-0.208D-02-0.363D-02 0.181D-02 0.218D-01
 Coeff:      0.148D+00 0.292D+00 0.543D+00
 Gap=     0.119 Goal=   None    Shift=    0.000
 RMSDP=2.62D-08 MaxDP=1.85D-06 DE= 1.55D-10 OVMax= 3.62D-07

 Cycle  16  Pass 1  IDiag  1:
 RMSU=  1.19D-08    CP:  9.08D-01  6.68D-01  7.95D-01  1.94D-01  7.25D-01
                    CP:  7.61D-01  9.25D-01  7.24D-01  8.25D-01  8.57D-01
                    CP:  9.66D-01  9.77D-01  1.72D+00  2.49D+00  2.16D+00
 E= -2483.01510592709     Delta-E=        0.000000000067 Rises=F Damp=F
 DIIS: error= 3.23D-08 at cycle  16 NSaved=  16.
 NSaved=16 IEnMin=14 EnMin= -2483.01510592731     IErMin=15 ErrMin= 2.69D-08
 ErrMax= 3.23D-08  0.00D+00 EMaxC= 1.00D-01 BMatC= 1.21D-12 BMatP= 2.28D-12
 IDIUse=1 WtCom= 1.00D+00 WtEn= 0.00D+00
 Coeff-Com: -0.444D-06 0.117D-05-0.726D-06-0.426D-06 0.923D-05 0.173D-04
 Coeff-Com: -0.194D-03-0.288D-03-0.150D-02-0.264D-02 0.952D-03 0.145D-01
 Coeff-Com:  0.105D+00 0.212D+00 0.436D+00 0.236D+00
 Coeff:     -0.444D-06 0.117D-05-0.726D-06-0.426D-06 0.923D-05 0.173D-04
 Coeff:     -0.194D-03-0.288D-03-0.150D-02-0.264D-02 0.952D-03 0.145D-01
 Coeff:      0.105D+00 0.212D+00 0.436D+00 0.236D+00
 Gap=     0.119 Goal=   None    Shift=    0.000
 RMSDP=1.93D-08 MaxDP=1.34D-06 DE= 6.73D-11 OVMax= 4.46D-08

 Cycle  17  Pass 1  IDiag  1:
 RMSU=  5.42D-09    CP:  9.08D-01  6.68D-01  7.95D-01  1.94D-01  7.25D-01
                    CP:  7.61D-01  9.25D-01  7.24D-01  8.25D-01  8.56D-01
                    CP:  9.68D-01  9.92D-01  1.95D+00  3.00D+00  3.00D+00
                    CP:  1.71D+00
 E= -2483.01510592724     Delta-E=       -0.000000000146 Rises=F Damp=F
 DIIS: error= 4.51D-08 at cycle  17 NSaved=  17.
 NSaved=17 IEnMin=14 EnMin= -2483.01510592731     IErMin=15 ErrMin= 2.69D-08
 ErrMax= 4.51D-08  0.00D+00 EMaxC= 1.00D-01 BMatC= 1.81D-12 BMatP= 1.21D-12
 IDIUse=1 WtCom= 1.00D+00 WtEn= 0.00D+00
 Coeff-Com: -0.315D-06 0.100D-05-0.572D-06-0.249D-06 0.419D-05 0.327D-05
 Coeff-Com: -0.112D-03-0.158D-03-0.900D-03-0.176D-02-0.114D-02 0.372D-02
 Coeff-Com:  0.601D-01 0.148D+00 0.496D+00 0.135D+01-0.106D+01
 Coeff:     -0.315D-06 0.100D-05-0.572D-06-0.249D-06 0.419D-05 0.327D-05
 Coeff:     -0.112D-03-0.158D-03-0.900D-03-0.176D-02-0.114D-02 0.372D-02
 Coeff:      0.601D-01 0.148D+00 0.496D+00 0.135D+01-0.106D+01
 Gap=     0.119 Goal=   None    Shift=    0.000
 RMSDP=4.15D-08 MaxDP=2.70D-06 DE=-1.46D-10 OVMax= 5.12D-08

 Cycle  18  Pass 1  IDiag  1:
 RMSU=  1.98D-08    CP:  9.08D-01  6.68D-01  7.95D-01  1.94D-01  7.25D-01
                    CP:  7.61D-01  9.25D-01  7.24D-01  8.24D-01  8.58D-01
                    CP:  9.67D-01  9.59D-01  1.68D+00  2.03D+00  1.69D+00
                    CP: -2.39D-02 -1.66D+00
 E= -2483.01510592730     Delta-E=       -0.000000000060 Rises=F Damp=F
 DIIS: error= 2.33D-08 at cycle  18 NSaved=  18.
 NSaved=18 IEnMin=14 EnMin= -2483.01510592731     IErMin=18 ErrMin= 2.33D-08
 ErrMax= 2.33D-08  0.00D+00 EMaxC= 1.00D-01 BMatC= 6.16D-13 BMatP= 1.21D-12
 IDIUse=1 WtCom= 1.00D+00 WtEn= 0.00D+00
 Coeff-Com: -0.270D-06 0.824D-06-0.307D-06-0.279D-06 0.436D-05 0.389D-05
 Coeff-Com: -0.980D-04-0.140D-03-0.803D-03-0.156D-02-0.869D-03 0.369D-02
 Coeff-Com:  0.531D-01 0.128D+00 0.415D+00 0.111D+01-0.975D+00 0.267D+00
 Coeff:     -0.270D-06 0.824D-06-0.307D-06-0.279D-06 0.436D-05 0.389D-05
 Coeff:     -0.980D-04-0.140D-03-0.803D-03-0.156D-02-0.869D-03 0.369D-02
 Coeff:      0.531D-01 0.128D+00 0.415D+00 0.111D+01-0.975D+00 0.267D+00
 Gap=     0.119 Goal=   None    Shift=    0.000
 RMSDP=9.71D-09 MaxDP=6.63D-07 DE=-6.00D-11 OVMax= 1.54D-08

 Error on total polarization charges =  0.09088
 SCF Done:  E(RB3LYP) =  -2483.01510593     A.U. after   18 cycles
            NFock= 18  Conv=0.97D-08     -V/T= 2.0052
 KE= 2.470257553361D+03 PE=-2.345281193200D+04 EE= 9.653462065497D+03
 SMD-CDS (non-electrostatic) energy       (kcal/mol) =      -9.87
 (included in total energy above)
 Leave Link  502 at Tue Jun 28 21:48:10 2022, MaxMem=  5242880000 cpu:    145171.7
 (Enter /opt/nce/packages/global/g09/l801.exe)
 DoSCS=F DFT=T ScalE2(SS,OS)=  1.000000  1.000000
 ExpMin= 9.52D-02 ExpMax= 1.97D+04 ExpMxC= 6.73D+02 IAcc=3 IRadAn=         5 AccDes= 0.00D+00
 HarFok:  IExCor=  205 AccDes= 0.00D+00 IRadAn=         5 IDoV=-2 UseB2=F ITyADJ=14
 ICtDFT= 12500011 ScaDFX=  1.000000  1.000000  1.000000  1.000000
 Largest valence mixing into a core orbital is  5.98D-05
 Largest core mixing into a valence orbital is  2.37D-05
 Range of M.O.s used for correlation:    63  2113
 NBasis=  2114 NAE=   205 NBE=   205 NFC=    62 NFV=     0
 NROrb=   2051 NOA=   143 NOB=   143 NVA=  1908 NVB=  1908

 **** Warning!!: The largest alpha MO coefficient is  0.61121294D+02

 Leave Link  801 at Tue Jun 28 21:48:11 2022, MaxMem=  5242880000 cpu:         9.1
 (Enter /opt/nce/packages/global/g09/l914.exe)
 RHF ground state
 MDV=  5242880000 DFT=T DoStab=F Mixed=T DoRPA=T DoScal=F NonHer=T
 Would need an additional       7552511300000 words for in-memory AO integral storage.
 NEqPCM:  Using non-equilibrium solvation (IEInf=1, Eps=  35.6880, EpsInf=   1.8069)
 Inv3:  Mode=1 IEnd=   148262700.
 Iteration    1 A*A^-1 deviation from unit magnitude is 8.88D-15 for   7008.
 Iteration    1 A*A^-1 deviation from orthogonality  is 3.59D-15 for   2625    558.
 Iteration    1 A^-1*A deviation from unit magnitude is 8.44D-15 for   7008.
 Iteration    1 A^-1*A deviation from orthogonality  is 8.97D-15 for   4316   4314.
 Making orbital integer symmetry assigments:
 Orbital symmetries:
       Occupied  (A) (A) (A) (A) (A) (A) (A) (A) (A) (A) (A) (A)
                 (A) (A) (A) (A) (A) (A) (A) (A) (A) (A) (A) (A)
                 (A) (A) (A) (A) (A) (A) (A) (A) (A) (A) (A) (A)
                 (A) (A) (A) (A) (A) (A) (A) (A) (A) (A) (A) (A)
                 (A) (A) (A) (A) (A) (A) (A) (A) (A) (A) (A) (A)
                 (A) (A) (A) (A) (A) (A) (A) (A) (A) (A) (A) (A)
                 (A) (A) (A) (A) (A) (A) (A) (A) (A) (A) (A) (A)
                 (A) (A) (A) (A) (A) (A) (A) (A) (A) (A) (A) (A)
                 (A) (A) (A) (A) (A) (A) (A) (A) (A) (A) (A) (A)
                 (A) (A) (A) (A) (A) (A) (A) (A) (A) (A) (A) (A)
                 (A) (A) (A) (A) (A) (A) (A) (A) (A) (A) (A) (A)
                 (A) (A) (A) (A) (A) (A) (A) (A) (A) (A) (A) (A)
                 (A) (A) (A) (A) (A) (A) (A) (A) (A) (A) (A) (A)
                 (A) (A) (A) (A) (A) (A) (A) (A) (A) (A) (A) (A)
                 (A) (A) (A) (A) (A) (A) (A) (A) (A) (A) (A) (A)
                 (A) (A) (A) (A) (A) (A) (A) (A) (A) (A) (A) (A)
                 (A) (A) (A) (A) (A) (A) (A) (A) (A) (A) (A) (A)
                 (A)
       Virtual   (A) (A) (A) (A) (A) (A) (A) (A) (A) (A) (A) (A)
                 (A) (A) (A) (A) (A) (A) (A) (A) (A) (A) (A) (A)
                 (A) (A) (A) (A) (A) (A) (A) (A) (A) (A) (A) (A)
                 (A) (A) (A) (A) (A) (A) (A) (A) (A) (A) (A) (A)
                 (A) (A) (A) (A) (A) (A) (A) (A) (A) (A) (A) (A)
                 (A) (A) (A) (A) (A) (A) (A) (A) (A) (A) (A) (A)
                 (A) (A) (A) (A) (A) (A) (A) (A) (A) (A) (A) (A)
                 (A) (A) (A) (A) (A) (A) (A) (A) (A) (A) (A) (A)
                 (A) (A) (A) (A) (A) (A) (A) (A) (A) (A) (A) (A)
                 (A) (A) (A) (A) (A) (A) (A) (A) (A) (A) (A) (A)
                 (A) (A) (A) (A) (A) (A) (A) (A) (A) (A) (A) (A)
                 (A) (A) (A) (A) (A) (A) (A) (A) (A) (A) (A) (A)
                 (A) (A) (A) (A) (A) (A) (A) (A) (A) (A) (A) (A)
                 (A) (A) (A) (A) (A) (A) (A) (A) (A) (A) (A) (A)
                 (A) (A) (A) (A) (A) (A) (A) (A) (A) (A) (A) (A)
                 (A) (A) (A) (A) (A) (A) (A) (A) (A) (A) (A) (A)
                 (A) (A) (A) (A) (A) (A) (A) (A) (A) (A) (A) (A)
                 (A) (A) (A) (A) (A) (A) (A) (A) (A) (A) (A) (A)
                 (A) (A) (A) (A) (A) (A) (A) (A) (A) (A) (A) (A)
                 (A) (A) (A) (A) (A) (A) (A) (A) (A) (A) (A) (A)
                 (A) (A) (A) (A) (A) (A) (A) (A) (A) (A) (A) (A)
                 (A) (A) (A) (A) (A) (A) (A) (A) (A) (A) (A) (A)
                 (A) (A) (A) (A) (A) (A) (A) (A) (A) (A) (A) (A)
                 (A) (A) (A) (A) (A) (A) (A) (A) (A) (A) (A) (A)
                 (A) (A) (A) (A) (A) (A) (A) (A) (A) (A) (A) (A)
                 (A) (A) (A) (A) (A) (A) (A) (A) (A) (A) (A) (A)
                 (A) (A) (A) (A) (A) (A) (A) (A) (A) (A) (A) (A)
                 (A) (A) (A) (A) (A) (A) (A) (A) (A) (A) (A) (A)
                 (A) (A) (A) (A) (A) (A) (A) (A) (A) (A) (A) (A)
                 (A) (A) (A) (A) (A) (A) (A) (A) (A) (A) (A) (A)
                 (A) (A) (A) (A) (A) (A) (A) (A) (A) (A) (A) (A)
                 (A) (A) (A) (A) (A) (A) (A) (A) (A) (A) (A) (A)
                 (A) (A) (A) (A) (A) (A) (A) (A) (A) (A) (A) (A)
                 (A) (A) (A) (A) (A) (A) (A) (A) (A) (A) (A) (A)
                 (A) (A) (A) (A) (A) (A) (A) (A) (A) (A) (A) (A)
                 (A) (A) (A) (A) (A) (A) (A) (A) (A) (A) (A) (A)
                 (A) (A) (A) (A) (A) (A) (A) (A) (A) (A) (A) (A)
                 (A) (A) (A) (A) (A) (A) (A) (A) (A) (A) (A) (A)
                 (A) (A) (A) (A) (A) (A) (A) (A) (A) (A) (A) (A)
                 (A) (A) (A) (A) (A) (A) (A) (A) (A) (A) (A) (A)
                 (A) (A) (A) (A) (A) (A) (A) (A) (A) (A) (A) (A)
                 (A) (A) (A) (A) (A) (A) (A) (A) (A) (A) (A) (A)
                 (A) (A) (A) (A) (A) (A) (A) (A) (A) (A) (A) (A)
                 (A) (A) (A) (A) (A) (A) (A) (A) (A) (A) (A) (A)
                 (A) (A) (A) (A) (A) (A) (A) (A) (A) (A) (A) (A)
                 (A) (A) (A) (A) (A) (A) (A) (A) (A) (A) (A) (A)
                 (A) (A) (A) (A) (A) (A) (A) (A) (A) (A) (A) (A)
                 (A) (A) (A) (A) (A) (A) (A) (A) (A) (A) (A) (A)
                 (A) (A) (A) (A) (A) (A) (A) (A) (A) (A) (A) (A)
                 (A) (A) (A) (A) (A) (A) (A) (A) (A) (A) (A) (A)
                 (A) (A) (A) (A) (A) (A) (A) (A) (A) (A) (A) (A)
                 (A) (A) (A) (A) (A) (A) (A) (A) (A) (A) (A) (A)
                 (A) (A) (A) (A) (A) (A) (A) (A) (A) (A) (A) (A)
                 (A) (A) (A) (A) (A) (A) (A) (A) (A) (A) (A) (A)
                 (A) (A) (A) (A) (A) (A) (A) (A) (A) (A) (A) (A)
                 (A) (A) (A) (A) (A) (A) (A) (A) (A) (A) (A) (A)
                 (A) (A) (A) (A) (A) (A) (A) (A) (A) (A) (A) (A)
                 (A) (A) (A) (A) (A) (A) (A) (A) (A) (A) (A) (A)
                 (A) (A) (A) (A) (A) (A) (A) (A) (A) (A) (A) (A)
                 (A) (A) (A) (A) (A) (A) (A) (A) (A) (A) (A) (A)
                 (A) (A) (A) (A) (A) (A) (A) (A) (A) (A) (A) (A)
                 (A) (A) (A) (A) (A) (A) (A) (A) (A) (A) (A) (A)
                 (A) (A) (A) (A) (A) (A) (A) (A) (A) (A) (A) (A)
                 (A) (A) (A) (A) (A) (A) (A) (A) (A) (A) (A) (A)
                 (A) (A) (A) (A) (A) (A) (A) (A) (A) (A) (A) (A)
                 (A) (A) (A) (A) (A) (A) (A) (A) (A) (A) (A) (A)
                 (A) (A) (A) (A) (A) (A) (A) (A) (A) (A) (A) (A)
                 (A) (A) (A) (A) (A) (A) (A) (A) (A) (A) (A) (A)
                 (A) (A) (A) (A) (A) (A) (A) (A) (A) (A) (A) (A)
                 (A) (A) (A) (A) (A) (A) (A) (A) (A) (A) (A) (A)
                 (A) (A) (A) (A) (A) (A) (A) (A) (A) (A) (A) (A)
                 (A) (A) (A) (A) (A) (A) (A) (A) (A) (A) (A) (A)
                 (A) (A) (A) (A) (A) (A) (A) (A) (A) (A) (A) (A)
                 (A) (A) (A) (A) (A) (A) (A) (A) (A) (A) (A) (A)
                 (A) (A) (A) (A) (A) (A) (A) (A) (A) (A) (A) (A)
                 (A) (A) (A) (A) (A) (A) (A) (A) (A) (A) (A) (A)
                 (A) (A) (A) (A) (A) (A) (A) (A) (A) (A) (A) (A)
                 (A) (A) (A) (A) (A) (A) (A) (A) (A) (A) (A) (A)
                 (A) (A) (A) (A) (A) (A) (A) (A) (A) (A) (A) (A)
                 (A) (A) (A) (A) (A) (A) (A) (A) (A) (A) (A) (A)
                 (A) (A) (A) (A) (A) (A) (A) (A) (A) (A) (A) (A)
                 (A) (A) (A) (A) (A) (A) (A) (A) (A) (A) (A) (A)
                 (A) (A) (A) (A) (A) (A) (A) (A) (A) (A) (A) (A)
                 (A) (A) (A) (A) (A) (A) (A) (A) (A) (A) (A) (A)
                 (A) (A) (A) (A) (A) (A) (A) (A) (A) (A) (A) (A)
                 (A) (A) (A) (A) (A) (A) (A) (A) (A) (A) (A) (A)
                 (A) (A) (A) (A) (A) (A) (A) (A) (A) (A) (A) (A)
                 (A) (A) (A) (A) (A) (A) (A) (A) (A) (A) (A) (A)
                 (A) (A) (A) (A) (A) (A) (A) (A) (A) (A) (A) (A)
                 (A) (A) (A) (A) (A) (A) (A) (A) (A) (A) (A) (A)
                 (A) (A) (A) (A) (A) (A) (A) (A) (A) (A) (A) (A)
                 (A) (A) (A) (A) (A) (A) (A) (A) (A) (A) (A) (A)
                 (A) (A) (A) (A) (A) (A) (A) (A) (A) (A) (A) (A)
                 (A) (A) (A) (A) (A) (A) (A) (A) (A) (A) (A) (A)
                 (A) (A) (A) (A) (A) (A) (A) (A) (A) (A) (A) (A)
                 (A) (A) (A) (A) (A) (A) (A) (A) (A) (A) (A) (A)
                 (A) (A) (A) (A) (A) (A) (A) (A) (A) (A) (A) (A)
                 (A) (A) (A) (A) (A) (A) (A) (A) (A) (A) (A) (A)
                 (A) (A) (A) (A) (A) (A) (A) (A) (A) (A) (A) (A)
                 (A) (A) (A) (A) (A) (A) (A) (A) (A) (A) (A) (A)
                 (A) (A) (A) (A) (A) (A) (A) (A) (A) (A) (A) (A)
                 (A) (A) (A) (A) (A) (A) (A) (A) (A) (A) (A) (A)
                 (A) (A) (A) (A) (A) (A) (A) (A) (A) (A) (A) (A)
                 (A) (A) (A) (A) (A) (A) (A) (A) (A) (A) (A) (A)
                 (A) (A) (A) (A) (A) (A) (A) (A) (A) (A) (A) (A)
                 (A) (A) (A) (A) (A) (A) (A) (A) (A) (A) (A) (A)
                 (A) (A) (A) (A) (A) (A) (A) (A) (A) (A) (A) (A)
                 (A) (A) (A) (A) (A) (A) (A) (A) (A) (A) (A) (A)
                 (A) (A) (A) (A) (A) (A) (A) (A) (A) (A) (A) (A)
                 (A) (A) (A) (A) (A) (A) (A) (A) (A) (A) (A) (A)
                 (A) (A) (A) (A) (A) (A) (A) (A) (A) (A) (A) (A)
                 (A) (A) (A) (A) (A) (A) (A) (A) (A) (A) (A) (A)
                 (A) (A) (A) (A) (A) (A) (A) (A) (A) (A) (A) (A)
                 (A) (A) (A) (A) (A) (A) (A) (A) (A) (A) (A) (A)
                 (A) (A) (A) (A) (A) (A) (A) (A) (A) (A) (A) (A)
                 (A) (A) (A) (A) (A) (A) (A) (A) (A) (A) (A) (A)
                 (A) (A) (A) (A) (A) (A) (A) (A) (A) (A) (A) (A)
                 (A) (A) (A) (A) (A) (A) (A) (A) (A) (A) (A) (A)
                 (A) (A) (A) (A) (A) (A) (A) (A) (A) (A) (A) (A)
                 (A) (A) (A) (A) (A) (A) (A) (A) (A) (A) (A) (A)
                 (A) (A) (A) (A) (A) (A) (A) (A) (A) (A) (A) (A)
                 (A) (A) (A) (A) (A) (A) (A) (A) (A) (A) (A) (A)
                 (A) (A) (A) (A) (A) (A) (A) (A) (A) (A) (A) (A)
                 (A) (A) (A) (A) (A) (A) (A) (A) (A) (A) (A) (A)
                 (A) (A) (A) (A) (A) (A) (A) (A) (A) (A) (A) (A)
                 (A) (A) (A) (A) (A) (A) (A) (A) (A) (A) (A) (A)
                 (A) (A) (A) (A) (A) (A) (A) (A) (A) (A) (A) (A)
                 (A) (A) (A) (A) (A) (A) (A) (A) (A) (A) (A) (A)
                 (A) (A) (A) (A) (A) (A) (A) (A) (A) (A) (A) (A)
                 (A) (A) (A) (A) (A) (A) (A) (A) (A) (A) (A) (A)
                 (A) (A) (A) (A) (A) (A) (A) (A) (A) (A) (A) (A)
                 (A) (A) (A) (A) (A) (A) (A) (A) (A) (A) (A) (A)
                 (A) (A) (A) (A) (A) (A) (A) (A) (A) (A) (A) (A)
                 (A) (A) (A) (A) (A) (A) (A) (A) (A) (A) (A) (A)
                 (A) (A) (A) (A) (A) (A) (A) (A) (A) (A) (A) (A)
                 (A) (A) (A) (A) (A) (A) (A) (A) (A) (A) (A) (A)
                 (A) (A) (A) (A) (A) (A) (A) (A) (A) (A) (A) (A)
                 (A) (A) (A) (A) (A) (A) (A) (A) (A) (A) (A) (A)
                 (A) (A) (A) (A) (A) (A) (A) (A) (A) (A) (A) (A)
                 (A) (A) (A) (A) (A) (A) (A) (A) (A) (A) (A) (A)
                 (A) (A) (A) (A) (A) (A) (A) (A) (A) (A) (A) (A)
                 (A) (A) (A) (A) (A) (A) (A) (A) (A) (A) (A) (A)
                 (A) (A) (A) (A) (A) (A) (A) (A) (A) (A) (A) (A)
                 (A) (A) (A) (A) (A) (A) (A) (A) (A) (A) (A) (A)
                 (A) (A) (A) (A) (A) (A) (A) (A) (A) (A) (A) (A)
                 (A) (A) (A) (A) (A) (A) (A) (A) (A) (A) (A) (A)
                 (A) (A) (A) (A) (A) (A) (A) (A) (A) (A) (A) (A)
                 (A) (A) (A) (A) (A) (A) (A) (A) (A) (A) (A) (A)
                 (A) (A) (A) (A) (A) (A) (A) (A) (A) (A) (A) (A)
                 (A) (A) (A) (A) (A) (A) (A) (A) (A) (A) (A) (A)
                 (A) (A) (A) (A) (A) (A) (A) (A) (A) (A) (A) (A)
                 (A) (A) (A) (A) (A) (A) (A) (A) (A) (A) (A) (A)
                 (A) (A) (A) (A) (A) (A) (A) (A) (A) (A) (A) (A)
                 (A) (A) (A) (A) (A) (A) (A) (A) (A) (A) (A) (A)
                 (A) (A) (A) (A) (A) (A) (A) (A) (A) (A) (A) (A)
                 (A) (A) (A) (A) (A) (A) (A) (A) (A) (A) (A) (A)
                 (A) (A) (A) (A) (A) (A) (A) (A) (A) (A) (A) (A)
                 (A) (A) (A) (A) (A) (A) (A) (A) (A) (A) (A) (A)
                 (A) (A) (A) (A) (A) (A) (A) (A) (A) (A) (A) (A)
   200 initial guesses have been made.
 Convergence on wavefunction:    0.001000000000000
 Davidson Disk Diagonalization:  ConvIn= 1.00D-03 SkipCon=T Conv= 1.00D-03.
 Max sub-space:   800 roots to seek:   200 dimension of matrix:       545688
 Iteration     1 Dimension   200 NMult     0 NNew    200
 CISAX will form    60 AO SS matrices at one time.
 NMat=    60 NSing=    60 JSym2X= 0.
 FoFJK:  IHMeth= 1 ICntrl=       0 DoSepK=F KAlg= 0 I1Cent=   0 FoldK=F
 IRaf=         0 NMat= 120 IRICut=       1 DoRegI=T DoRafI=F ISym2E= 0.
 NMat=    60 NSing=    60 JSym2X= 0.
 NMat=    60 NSing=    60 JSym2X= 0.
 NMat=    20 NSing=    20 JSym2X= 0.
 New state      2 was old state      3
 New state      3 was old state      2
 New state      7 was old state      8
 New state      8 was old state      7
 New state     10 was old state     12
 New state     11 was old state     10
 New state     12 was old state     11
 New state     17 was old state     19
 New state     19 was old state     20
 New state     20 was old state     22
 New state     22 was old state     23
 New state     23 was old state     17
 New state     24 was old state     26
 New state     26 was old state     27
 New state     27 was old state     29
 New state     28 was old state     34
 New state     29 was old state     30
 New state     30 was old state     32
 New state     31 was old state     24
 New state     32 was old state     31
 New state     33 was old state     41
 New state     34 was old state     33
 New state     35 was old state     28
 New state     36 was old state     38
 New state     37 was old state     40
 New state     38 was old state     53
 New state     39 was old state     35
 New state     40 was old state     39
 New state     41 was old state     37
 New state     42 was old state     49
 New state     43 was old state     36
 New state     44 was old state     50
 New state     45 was old state     56
 New state     46 was old state     43
 New state     47 was old state     57
 New state     48 was old state     44
 New state     49 was old state     45
 New state     50 was old state     46
 Excitation Energies [eV] at current iteration:
 Root      1 :     2.671296729410371
 Root      2 :     2.887235925689244
 Root      3 :     2.914626791634304
 Root      4 :     2.939395228264968
 Root      5 :     3.066196206752415
 Root      6 :     3.102592552779088
 Root      7 :     3.160265150694540
 Root      8 :     3.162910231064198
 Root      9 :     3.245435835044193
 Root     10 :     3.306105481199646
 Root     11 :     3.314242188839353
 Root     12 :     3.407021553567883
 Root     13 :     3.470039276796704
 Root     14 :     3.496883905760093
 Root     15 :     3.622020140139659
 Root     16 :     3.683732860796916
 Root     17 :     3.998960621048094
 Root     18 :     4.067751433507153
 Root     19 :     4.084446688302131
 Root     20 :     4.095528290289968
 Root     21 :     4.134648887741738
 Root     22 :     4.174619590024117
 Root     23 :     4.191918876062788
 Root     24 :     4.220537843859000
 Root     25 :     4.298226576542349
 Root     26 :     4.303931828081971
 Root     27 :     4.326341188988206
 Root     28 :     4.342939521192814
 Root     29 :     4.378029965776337
 Root     30 :     4.395691473701812
 Root     31 :     4.402633091588398
 Root     32 :     4.430827413783653
 Root     33 :     4.433444247973820
 Root     34 :     4.462307287766818
 Root     35 :     4.466886428259697
 Root     36 :     4.470981520751310
 Root     37 :     4.483798925793327
 Root     38 :     4.503796287728960
 Root     39 :     4.517152264575081
 Root     40 :     4.517398181905961
 Root     41 :     4.525564200551448
 Root     42 :     4.536248618431006
 Root     43 :     4.557730053949100
 Root     44 :     4.587706050057641
 Root     45 :     4.632234717455111
 Root     46 :     4.666076687891712
 Root     47 :     4.674334451956335
 Root     48 :     4.680067764838375
 Root     49 :     4.682718417414657
 Root     50 :     4.701948058853183
 Root     51 :     4.708694765180973
 Root     52 :     4.744498325564932
 Root     53 :     4.754771652175582
 Root     54 :     4.772027312864738
 Root     55 :     4.774191545420439
 Root     56 :     4.791450903556901
 Root     57 :     4.797936636955392
 Root     58 :     4.854195118821907
 Root     59 :     4.884331054208687
 Root     60 :     4.898638558062359
 Root     61 :     4.970162296975269
 Root     62 :     4.997728232059839
 Root     63 :     5.002839694070179
 Root     64 :     5.059053633713733
 Root     65 :     5.071087779835667
 Root     66 :     5.093087723353379
 Root     67 :     5.142018543127699
 Root     68 :     5.183378569271535
 Root     69 :     5.213570885531950
 Root     70 :     5.228591667979462
 Root     71 :     5.230198496458294
 Root     72 :     5.246816590397374
 Root     73 :     5.250675786338942
 Root     74 :     5.272014928415245
 Root     75 :     5.276646192316850
 Root     76 :     5.288095481931799
 Root     77 :     5.299902147864197
 Root     78 :     5.308193872739462
 Root     79 :     5.321863193115452
 Root     80 :     5.337052763805434
 Root     81 :     5.341738154824744
 Root     82 :     5.360277831818832
 Root     83 :     5.361327260840272
 Root     84 :     5.373907823008534
 Root     85 :     5.388840785093029
 Root     86 :     5.392254691291492
 Root     87 :     5.409624871932443
 Root     88 :     5.411411987168660
 Root     89 :     5.418401394824393
 Root     90 :     5.427111870562343
 Root     91 :     5.428490009287957
 Root     92 :     5.447285801106282
 Root     93 :     5.448701092540841
 Root     94 :     5.464237775000360
 Root     95 :     5.469571478505487
 Root     96 :     5.477017824331098
 Root     97 :     5.497246480686726
 Root     98 :     5.513957797329470
 Root     99 :     5.521617828522562
 Root    100 :     5.533150605846267
 Root    101 :     5.542723882348968
 Root    102 :     5.549588231532957
 Root    103 :     5.550861454564611
 Root    104 :     5.552703299689490
 Root    105 :     5.564532192746575
 Root    106 :     5.576281627121826
 Root    107 :     5.585307071378117
 Root    108 :     5.589678260115032
 Root    109 :     5.603288457839581
 Root    110 :     5.618374901308650
 Root    111 :     5.623397007533402
 Root    112 :     5.631524909728949
 Root    113 :     5.636086219486780
 Root    114 :     5.642138477952174
 Root    115 :     5.644867785222086
 Root    116 :     5.658629015566886
 Root    117 :     5.662476393952802
 Root    118 :     5.675221037933818
 Root    119 :     5.677087545067044
 Root    120 :     5.681492618296205
 Root    121 :     5.687037502584519
 Root    122 :     5.690583211397489
 Root    123 :     5.692643230453818
 Root    124 :     5.700088294027887
 Root    125 :     5.705641293513931
 Root    126 :     5.706037233734622
 Root    127 :     5.720573665749378
 Root    128 :     5.722255682249306
 Root    129 :     5.745263428467869
 Root    130 :     5.749374894167397
 Root    131 :     5.753532847737149
 Root    132 :     5.761938578905205
 Root    133 :     5.772951672232224
 Root    134 :     5.778654429190545
 Root    135 :     5.781148867613608
 Root    136 :     5.809116621877880
 Root    137 :     5.813442132852958
 Root    138 :     5.816907292707557
 Root    139 :     5.826453993551867
 Root    140 :     5.846619221004074
 Root    141 :     5.848796935163887
 Root    142 :     5.878012278410207
 Root    143 :     5.887429180100990
 Root    144 :     5.904679767914899
 Root    145 :     5.915453526181682
 Root    146 :     5.922476262196438
 Root    147 :     5.926802768325332
 Root    148 :     5.937892526236969
 Root    149 :     5.978246458829332
 Root    150 :     5.990945959727078
 Root    151 :     6.000437771289564
 Root    152 :     6.012232996205523
 Root    153 :     6.024805333661472
 Root    154 :     6.031926035701428
 Root    155 :     6.050456221317879
 Root    156 :     6.062766616811173
 Root    157 :     6.081851440109282
 Root    158 :     6.084979439437387
 Root    159 :     6.100074608938333
 Root    160 :     6.113204384290267
 Root    161 :     6.117769120816225
 Root    162 :     6.124886025073421
 Root    163 :     6.128493128313442
 Root    164 :     6.138934237248916
 Root    165 :     6.142393041892976
 Root    166 :     6.157082505489782
 Root    167 :     6.158713495445710
 Root    168 :     6.166747914591242
 Root    169 :     6.171914609476304
 Root    170 :     6.181295399019380
 Root    171 :     6.198232558974645
 Root    172 :     6.205187123125875
 Root    173 :     6.224230967425282
 Root    174 :     6.227362744487982
 Root    175 :     6.238975074163358
 Root    176 :     6.250476557425131
 Root    177 :     6.254956703123352
 Root    178 :     6.263090745567897
 Root    179 :     6.265625271901112
 Root    180 :     6.293207698588901
 Root    181 :     6.297591283857596
 Root    182 :     6.303115613384648
 Root    183 :     6.312141877735080
 Root    184 :     6.323361139413978
 Root    185 :     6.340575106679499
 Root    186 :     6.377581801339113
 Root    187 :     6.496540799455934
 Root    188 :     6.518199372920196
 Root    189 :     6.562591934245361
 Root    190 :     6.609841117159691
 Root    191 :     6.678608007066082
 Root    192 :     6.747428432808443
 Root    193 :     6.798824501748983
 Root    194 :     6.979907425107656
 Root    195 :     7.003940394400676
 Root    196 :     7.126495816989272
 Root    197 :     7.166314577182079
 Root    198 :     7.552283274126667
 Root    199 :     7.563522410205056
 Root    200 :     8.037887926962140
 Iteration     2 Dimension   300 NMult   200 NNew    100
 CISAX will form    60 AO SS matrices at one time.
 NMat=    60 NSing=    60 JSym2X= 0.
 NMat=    40 NSing=    40 JSym2X= 0.
 Root      1 not converged, maximum delta is    0.024589690139845
 Root      2 not converged, maximum delta is    0.155626070276375
 Root      3 not converged, maximum delta is    0.181219119992580
 Root      4 not converged, maximum delta is    0.159640432152669
 Root      5 not converged, maximum delta is    0.240320881519849
 Root      6 not converged, maximum delta is    0.248283728318707
 Root      7 not converged, maximum delta is    0.027529756166601
 Root      8 not converged, maximum delta is    0.049342437003210
 Root      9 not converged, maximum delta is    0.054120403220285
 Root     10 not converged, maximum delta is    0.205101565367355
 Root     11 not converged, maximum delta is    0.071835617957093
 Root     12 not converged, maximum delta is    0.206635233298400
 Root     13 not converged, maximum delta is    0.063151659588266
 Root     14 not converged, maximum delta is    0.059740127290919
 Root     15 not converged, maximum delta is    0.087516397010481
 Root     16 not converged, maximum delta is    0.018785365375872
 Root     17 not converged, maximum delta is    0.025858181417433
 New state     18 was old state     21
 Root     18 not converged, maximum delta is    0.326978290934224
 New state     19 was old state     18
 Root     19 not converged, maximum delta is    0.152627420566157
 New state     20 was old state     19
 Root     20 not converged, maximum delta is    0.417556888827666
 New state     21 was old state     23
 Root     21 not converged, maximum delta is    0.303798739557956
 New state     22 was old state     20
 Root     22 not converged, maximum delta is    0.055799506685860
 New state     23 was old state     22
 Root     23 not converged, maximum delta is    0.018424579630536
 New state     24 was old state     26
 Root     24 not converged, maximum delta is    0.245397600606483
 Root     25 not converged, maximum delta is    0.307225756291308
 New state     26 was old state     24
 Root     26 not converged, maximum delta is    0.091971908279847
 New state     27 was old state     28
 Root     27 not converged, maximum delta is    0.418875446716546
 New state     28 was old state     27
 Root     28 not converged, maximum delta is    0.313388277468115
 New state     29 was old state     32
 Root     29 not converged, maximum delta is    0.295149756169835
 New state     30 was old state     29
 Root     30 not converged, maximum delta is    0.233769113770968
 New state     31 was old state     30
 Root     31 not converged, maximum delta is    0.232021698837334
 New state     32 was old state     31
 Root     32 not converged, maximum delta is    0.131081177231425
 Root     33 not converged, maximum delta is    0.245784121685070
 New state     34 was old state     37
 Root     34 not converged, maximum delta is    0.320649688053645
 New state     35 was old state     34
 Root     35 not converged, maximum delta is    0.114789816373328
 Root     36 not converged, maximum delta is    0.515629563708876
 New state     37 was old state     38
 Root     37 not converged, maximum delta is    0.243250635046017
 New state     38 was old state     35
 Root     38 not converged, maximum delta is    0.299650297167903
 Root     39 not converged, maximum delta is    0.230409843095690
 Root     40 not converged, maximum delta is    0.168706979236788
 Root     41 not converged, maximum delta is    0.357415060828629
 Root     42 not converged, maximum delta is    0.205701788411197
 New state     43 was old state     54
 Root     43 not converged, maximum delta is    0.373984432426176
 New state     44 was old state     43
 Root     44 not converged, maximum delta is    0.222627626812269
 New state     45 was old state     44
 Root     45 not converged, maximum delta is    0.220030860478108
 New state     46 was old state     57
 Root     46 not converged, maximum delta is    0.264319980796796
 New state     47 was old state     45
 Root     47 not converged, maximum delta is    0.368174759534361
 New state     48 was old state     56
 Root     48 not converged, maximum delta is    0.197016493229574
 New state     49 was old state     52
 Root     49 not converged, maximum delta is    0.304299460533783
 New state     50 was old state     47
 Root     50 not converged, maximum delta is    0.291638951003537
 Excitation Energies [eV] at current iteration:
 Root      1 :     2.621747111208109   Change is   -0.049549618202262
 Root      2 :     2.854259612162030   Change is   -0.032976313527214
 Root      3 :     2.861589706712458   Change is   -0.053037084921845
 Root      4 :     2.912081842359282   Change is   -0.027313385905686
 Root      5 :     3.026316768629071   Change is   -0.039879438123344
 Root      6 :     3.032196575375261   Change is   -0.070395977403827
 Root      7 :     3.145804225398732   Change is   -0.014460925295808
 Root      8 :     3.159129816686565   Change is   -0.003780414377632
 Root      9 :     3.237172970913967   Change is   -0.008262864130226
 Root     10 :     3.255565202298957   Change is   -0.050540278900689
 Root     11 :     3.278309786011039   Change is   -0.035932402828314
 Root     12 :     3.329179918110006   Change is   -0.077841635457877
 Root     13 :     3.453732363917664   Change is   -0.016306912879039
 Root     14 :     3.481348731429404   Change is   -0.015535174330689
 Root     15 :     3.600391633651811   Change is   -0.021628506487848
 Root     16 :     3.674719678207563   Change is   -0.009013182589354
 Root     17 :     3.987003933124128   Change is   -0.011956687923966
 Root     18 :     4.004683719618078   Change is   -0.129965168123660
 Root     19 :     4.012773524975224   Change is   -0.054977908531928
 Root     20 :     4.030805146635998   Change is   -0.053641541666133
 Root     21 :     4.067559402064600   Change is   -0.124359473998188
 Root     22 :     4.075306148636454   Change is   -0.020222141653514
 Root     23 :     4.165482332378236   Change is   -0.009137257645880
 Root     24 :     4.187767547896311   Change is   -0.116164280185660
 Root     25 :     4.197373239380611   Change is   -0.100853337161737
 Root     26 :     4.204532567109278   Change is   -0.016005276749722
 Root     27 :     4.268994454501249   Change is   -0.073945066691564
 Root     28 :     4.272635310978488   Change is   -0.053705878009718
 Root     29 :     4.307401058244437   Change is   -0.123426355539216
 Root     30 :     4.328496173744419   Change is   -0.049533792031918
 Root     31 :     4.331501449439660   Change is   -0.064190024262152
 Root     32 :     4.397272763711479   Change is   -0.005360327876919
 Root     33 :     4.409858367175988   Change is   -0.023585880797832
 Root     34 :     4.436566577380657   Change is   -0.047232348412669
 Root     35 :     4.445273283922882   Change is   -0.017034003843936
 Root     36 :     4.451384141180331   Change is   -0.019597379570978
[...]
 Alpha virt. eigenvalues --    3.17145   3.17365   3.17594   3.17687   3.17885
 Alpha virt. eigenvalues --    3.18016   3.18506   3.18644   3.18919   3.19149
 Alpha virt. eigenvalues --    3.19220   3.19371   3.19424   3.19955   3.20137
 Alpha virt. eigenvalues --    3.20442   3.20744   3.21070   3.21228   3.21535
 Alpha virt. eigenvalues --    3.21740   3.21840   3.21972   3.22170   3.22347
 Alpha virt. eigenvalues --    3.22570   3.22871   3.22887   3.23183   3.23383
 Alpha virt. eigenvalues --    3.23585   3.23702   3.24130   3.24211   3.24336
 Alpha virt. eigenvalues --    3.24637   3.24828   3.25193   3.25319   3.25545
 Alpha virt. eigenvalues --    3.25640   3.25901   3.26254   3.26427   3.26588
 Alpha virt. eigenvalues --    3.26905   3.27269   3.27362   3.28243   3.28327
 Alpha virt. eigenvalues --    3.28405   3.28677   3.29029   3.29173   3.29297
 Alpha virt. eigenvalues --    3.29979   3.30066   3.30279   3.30929   3.30942
 Alpha virt. eigenvalues --    3.31053   3.31606   3.31650   3.31873   3.32142
 Alpha virt. eigenvalues --    3.32359   3.32436   3.32863   3.32912   3.33159
 Alpha virt. eigenvalues --    3.33746   3.33891   3.34087   3.34244   3.34509
 Alpha virt. eigenvalues --    3.34882   3.35006   3.35360   3.35642   3.35825
 Alpha virt. eigenvalues --    3.36025   3.36269   3.36302   3.36431   3.36496
 Alpha virt. eigenvalues --    3.36787   3.36964   3.37148   3.37205   3.37450
 Alpha virt. eigenvalues --    3.38005   3.38150   3.38268   3.38509   3.39210
 Alpha virt. eigenvalues --    3.39267   3.39542   3.39585   3.39890   3.40196
 Alpha virt. eigenvalues --    3.40257   3.40465   3.40548   3.40570   3.40964
 Alpha virt. eigenvalues --    3.41351   3.41411   3.41709   3.42173   3.42350
 Alpha virt. eigenvalues --    3.42409   3.42600   3.42891   3.43110   3.43348
 Alpha virt. eigenvalues --    3.43517   3.44078   3.44139   3.44336   3.44565
 Alpha virt. eigenvalues --    3.44800   3.44950   3.45241   3.45269   3.45614
 Alpha virt. eigenvalues --    3.45725   3.46186   3.46325   3.46342   3.47067
 Alpha virt. eigenvalues --    3.47335   3.47448   3.48019   3.48072   3.48514
 Alpha virt. eigenvalues --    3.48651   3.48972   3.49220   3.49419   3.49593
 Alpha virt. eigenvalues --    3.49712   3.50133   3.50430   3.50518   3.50617
 Alpha virt. eigenvalues --    3.50900   3.50961   3.51164   3.51419   3.51464
 Alpha virt. eigenvalues --    3.51881   3.52244   3.52315   3.52390   3.52706
 Alpha virt. eigenvalues --    3.52904   3.52962   3.53014   3.53164   3.53515
 Alpha virt. eigenvalues --    3.53678   3.53738   3.54329   3.54508   3.55055
 Alpha virt. eigenvalues --    3.55123   3.55357   3.55514   3.55931   3.56086
 Alpha virt. eigenvalues --    3.56518   3.56789   3.56901   3.57084   3.57460
 Alpha virt. eigenvalues --    3.57546   3.57679   3.57971   3.58244   3.58281
 Alpha virt. eigenvalues --    3.58542   3.58830   3.58969   3.59088   3.59234
 Alpha virt. eigenvalues --    3.59635   3.59974   3.60050   3.60295   3.60418
 Alpha virt. eigenvalues --    3.60993   3.61196   3.61291   3.61568   3.61829
 Alpha virt. eigenvalues --    3.61937   3.62207   3.62705   3.62988   3.63078
 Alpha virt. eigenvalues --    3.63251   3.63302   3.63760   3.63902   3.64254
 Alpha virt. eigenvalues --    3.64442   3.64607   3.64941   3.65004   3.65286
 Alpha virt. eigenvalues --    3.65611   3.65634   3.66460   3.66697   3.66892
 Alpha virt. eigenvalues --    3.67265   3.67692   3.68476   3.69282   3.69673
 Alpha virt. eigenvalues --    3.70026   3.70348   3.70762   3.71011   3.71482
 Alpha virt. eigenvalues --    3.71618   3.72492   3.72536   3.73941   3.74575
 Alpha virt. eigenvalues --    3.75482   3.76640   3.77050   3.78198   3.78660
 Alpha virt. eigenvalues --    3.79558   3.79726   3.80421   3.80814   3.80958
 Alpha virt. eigenvalues --    3.81014   3.81385   3.81690   3.82552   3.82724
 Alpha virt. eigenvalues --    3.83406   3.83791   3.84272   3.84288   3.84630
 Alpha virt. eigenvalues --    3.85258   3.85930   3.86272   3.86705   3.88006
 Alpha virt. eigenvalues --    3.88298   3.89174   3.89209   3.89542   3.90341
 Alpha virt. eigenvalues --    3.90746   3.91199   3.91626   3.92371   3.92925
 Alpha virt. eigenvalues --    3.93185   3.93812   3.94744   3.94844   3.94901
 Alpha virt. eigenvalues --    3.95154   3.95413   3.95469   3.95633   3.95889
 Alpha virt. eigenvalues --    3.96137   3.96754   3.96839   3.96996   3.97563
 Alpha virt. eigenvalues --    3.97697   3.97921   3.98049   3.98555   3.99233
 Alpha virt. eigenvalues --    3.99302   3.99516   3.99585   3.99767   4.00009
 Alpha virt. eigenvalues --    4.00528   4.00753   4.01130   4.01592   4.01732
 Alpha virt. eigenvalues --    4.02387   4.03381   4.03663   4.04469   4.04536
 Alpha virt. eigenvalues --    4.05216   4.06418   4.06600   4.07486   4.08155
 Alpha virt. eigenvalues --    4.08604   4.09206   4.09594   4.09975   4.10168
 Alpha virt. eigenvalues --    4.10634   4.11164   4.11252   4.11873   4.11951
 Alpha virt. eigenvalues --    4.12295   4.12343   4.12816   4.13091   4.13600
 Alpha virt. eigenvalues --    4.13629   4.13929   4.14374   4.14583   4.14816
 Alpha virt. eigenvalues --    4.15277   4.15648   4.16110   4.16323   4.16712
 Alpha virt. eigenvalues --    4.16899   4.17274   4.17332   4.18004   4.18173
 Alpha virt. eigenvalues --    4.18268   4.19163   4.19304   4.19443   4.19868
 Alpha virt. eigenvalues --    4.20117   4.20171   4.20256   4.20667   4.20966
 Alpha virt. eigenvalues --    4.21044   4.21260   4.21440   4.21450   4.21777
 Alpha virt. eigenvalues --    4.22172   4.22224   4.22380   4.22440   4.22778
 Alpha virt. eigenvalues --    4.23108   4.23469   4.23750   4.23962   4.24474
 Alpha virt. eigenvalues --    4.24516   4.25021   4.25317   4.26276   4.26489
 Alpha virt. eigenvalues --    4.27139   4.27952   4.28059   4.28123   4.28160
 Alpha virt. eigenvalues --    4.28689   4.29188   4.29265   4.29713   4.30211
 Alpha virt. eigenvalues --    4.30762   4.30905   4.30974   4.31655   4.31719
 Alpha virt. eigenvalues --    4.32122   4.32281   4.32538   4.32616   4.32939
 Alpha virt. eigenvalues --    4.32942   4.33352   4.33882   4.34450   4.34461
 Alpha virt. eigenvalues --    4.34785   4.35406   4.35706   4.36501   4.36566
 Alpha virt. eigenvalues --    4.37079   4.37505   4.38278   4.38608   4.38962
 Alpha virt. eigenvalues --    4.40811   4.41721   4.41746   4.43218   4.43339
 Alpha virt. eigenvalues --    4.43847   4.44126   4.44844   4.45002   4.45426
 Alpha virt. eigenvalues --    4.45542   4.47282   4.47329   4.48069   4.48570
 Alpha virt. eigenvalues --    4.48957   4.49128   4.51155   4.51254   4.53344
 Alpha virt. eigenvalues --    4.54048   4.54153   4.55205   4.55292   4.55960
 Alpha virt. eigenvalues --    4.56208   4.56911   4.57374   4.57769   4.57816
 Alpha virt. eigenvalues --    4.58397   4.58641   4.59843   4.60160   4.60778
 Alpha virt. eigenvalues --    4.61238   4.61528   4.61617   4.61830   4.62388
 Alpha virt. eigenvalues --    4.64015   4.64595   4.65198   4.66797   4.67487
 Alpha virt. eigenvalues --    4.67622   4.68109   4.69432   4.70152   4.70989
 Alpha virt. eigenvalues --    4.71588   4.72447   4.72493   4.72785   4.73488
 Alpha virt. eigenvalues --    4.73651   4.73885   4.74629   4.74794   4.74912
 Alpha virt. eigenvalues --    4.75415   4.75766   4.76250   4.76413   4.76662
 Alpha virt. eigenvalues --    4.77579   4.78353   4.79034   4.79176   4.79781
 Alpha virt. eigenvalues --    4.80340   4.81256   4.82171   4.82565   4.82693
 Alpha virt. eigenvalues --    4.83317   4.83362   4.84762   4.84895   4.85302
 Alpha virt. eigenvalues --    4.85778   4.86240   4.86332   4.87103   4.87426
 Alpha virt. eigenvalues --    4.88435   4.88826   4.89235   4.89951   4.90535
 Alpha virt. eigenvalues --    4.92084   4.94303   4.94913   4.95077   4.96516
 Alpha virt. eigenvalues --    4.96748   4.97441   4.97482   4.98033   4.99005
 Alpha virt. eigenvalues --    4.99432   4.99762   5.00111   5.01136   5.01273
 Alpha virt. eigenvalues --    5.01739   5.02015   5.03118   5.03845   5.05142
 Alpha virt. eigenvalues --    5.06847   5.06981   5.07242   5.07685   5.07995
 Alpha virt. eigenvalues --    5.08216   5.08754   5.09183   5.10936   5.12606
 Alpha virt. eigenvalues --    5.13195   5.13711   5.14185   5.17157   5.17667
 Alpha virt. eigenvalues --    5.17987   5.18697   5.18774   5.19389   5.19502
 Alpha virt. eigenvalues --    5.20587   5.20713   5.21289   5.21337   5.23207
 Alpha virt. eigenvalues --    5.23295   5.23683   5.24098   5.25328   5.26846
 Alpha virt. eigenvalues --    5.27873   5.28943   5.30501   5.30593   5.32128
 Alpha virt. eigenvalues --    5.32560   5.33515   5.33795   5.35324   5.35997
 Alpha virt. eigenvalues --    5.36288   5.36815   5.37248   5.37612   5.37936
 Alpha virt. eigenvalues --    5.37991   5.39005   5.39214   5.39380   5.40042
 Alpha virt. eigenvalues --    5.42506   5.43009   5.44296   5.45511   5.45879
 Alpha virt. eigenvalues --    5.46496   5.48310   5.50645   5.51634   5.54179
 Alpha virt. eigenvalues --    5.56486   5.57838   5.58702   5.60015   5.60178
 Alpha virt. eigenvalues --    5.61296   5.61414   5.62709   5.63042   5.64008
 Alpha virt. eigenvalues --    5.64376   5.64952   5.65759   5.67381   5.68825
 Alpha virt. eigenvalues --    5.68925   5.70389   5.71105   5.71832   5.73931
 Alpha virt. eigenvalues --    5.75693   5.75940   5.77147   5.78114   5.78203
 Alpha virt. eigenvalues --    5.80067   5.80337   5.80392   5.83051   5.84026
 Alpha virt. eigenvalues --    5.85129   5.87194   5.87548   5.87805   5.89583
 Alpha virt. eigenvalues --    5.93803   5.94474   5.95014   5.97417   5.99568
 Alpha virt. eigenvalues --    6.01433   6.15018   6.16352   6.18250   6.18648
 Alpha virt. eigenvalues --    6.22943   6.29196   6.30560   6.33320   6.34389
 Alpha virt. eigenvalues --    6.36921   6.47356   6.47548   6.48907   6.59607
 Alpha virt. eigenvalues --    6.66725  22.22385  22.26149  22.27746  22.33764
 Alpha virt. eigenvalues --   22.46871  22.48563  22.48824  22.50217  22.59207
 Alpha virt. eigenvalues --   22.60020  22.60617  22.61100  22.62733  22.63846
 Alpha virt. eigenvalues --   22.65865  22.66269  22.67502  22.68377  22.70579
 Alpha virt. eigenvalues --   22.71446  22.73289  22.74774  22.75065  22.75269
 Alpha virt. eigenvalues --   22.76571  22.77569  22.80941  22.81766  22.84266
 Alpha virt. eigenvalues --   22.92248  22.95231  22.95476  22.99380  23.00375
 Alpha virt. eigenvalues --   23.01625  23.02557  23.05923  23.15299  23.20194
 Alpha virt. eigenvalues --   23.21802  23.22248  23.23221  23.24889  23.25359
 Alpha virt. eigenvalues --   23.25824  23.51715  23.52181  23.53334  23.55229
 Alpha virt. eigenvalues --   23.58196  23.76634  23.77810  23.78406  23.79967
 Alpha virt. eigenvalues --   23.80376  23.93341  32.27088  32.28333  33.30529
 Alpha virt. eigenvalues --   33.40336  33.42556  33.58021
          Condensed to atoms (all electrons):
 Mulliken charges:
               1
     1  C    0.063474
     2  C   -0.019679
     3  C    0.062399
     4  C    0.065450
     5  C    0.061057
     6  C    0.068304
     7  C   -0.192704
     8  C   -0.192552
     9  N   -0.019513
    10  N   -0.019619
    11  N    0.103085
    12  C    0.147082
    13  C    0.040709
    14  C   -0.256539
    15  C    0.058450
    16  C   -0.245835
    17  C    0.016506
    18  C   -0.159159
    19  H    0.165081
    20  C   -0.224607
    21  C   -0.152126
    22  H    0.196845
    23  C   -0.246739
    24  C   -0.146573
    25  H    0.148810
    26  H    0.148017
    27  C   -0.145216
    28  H    0.149459
    29  H    0.147319
    30  H    0.145930
    31  H    0.146059
    32  N    0.239084
    33  C    0.077602
    34  C    0.087753
    35  C   -0.311522
    36  C    0.055736
    37  C   -0.313325
    38  C    0.052079
    39  C   -0.129152
    40  H    0.160090
    41  C   -0.236390
    42  C   -0.128725
    43  H    0.162599
    44  C   -0.234487
    45  C   -0.150739
    46  H    0.148564
    47  H    0.145271
    48  C   -0.152491
    49  H    0.148683
    50  H    0.145262
    51  H    0.144553
    52  H    0.144531
    53  N    0.101854
    54  C    0.045997
    55  C    0.144883
    56  C   -0.244759
    57  C    0.015658
    58  C   -0.255480
    59  C    0.059324
    60  C   -0.151988
    61  H    0.196770
    62  C   -0.245885
    63  C   -0.159424
    64  H    0.164433
    65  C   -0.226331
    66  C   -0.146053
    67  H    0.149303
    68  H    0.147317
    69  C   -0.145305
    70  H    0.148553
    71  H    0.148022
    72  H    0.145991
    73  H    0.145948
    74  N    0.040653
    75  C    0.115038
    76  C    0.113311
    77  C   -0.249675
    78  C    0.014978
    79  C   -0.248447
    80  C    0.017632
    81  C   -0.149648
    82  H    0.177528
    83  C   -0.228689
    84  C   -0.147345
    85  H    0.173399
    86  C   -0.228589
    87  C   -0.150487
    88  H    0.150732
    89  H    0.148992
    90  C   -0.150506
    91  H    0.150993
    92  H    0.148998
    93  H    0.147038
    94  H    0.147115
 Sum of Mulliken charges =  -0.00000
 Mulliken charges with hydrogens summed into heavy atoms:
               1
     1  C    0.063474
     2  C   -0.019679
     3  C    0.062399
     4  C    0.065450
     5  C    0.061057
     6  C    0.068304
     7  C   -0.192704
     8  C   -0.192552
     9  N   -0.019513
    10  N   -0.019619
    11  N    0.103085
    12  C    0.147082
    13  C    0.040709
    14  C   -0.091458
    15  C    0.058450
    16  C   -0.048991
    17  C    0.016506
    18  C   -0.010349
    20  C   -0.076590
    21  C   -0.002666
    23  C   -0.099419
    24  C   -0.000643
    27  C    0.000843
    32  N    0.239084
    33  C    0.077602
    34  C    0.087753
    35  C   -0.151433
    36  C    0.055736
    37  C   -0.150726
    38  C    0.052079
    39  C    0.019412
    41  C   -0.091119
    42  C    0.019958
    44  C   -0.089225
    45  C   -0.006186
    48  C   -0.007960
    53  N    0.101854
    54  C    0.045997
    55  C    0.144883
    56  C   -0.047989
    57  C    0.015658
    58  C   -0.091047
    59  C    0.059324
    60  C   -0.002685
    62  C   -0.098568
    63  C   -0.010871
    65  C   -0.078309
    66  C   -0.000062
    69  C    0.000643
    74  N    0.040653
    75  C    0.115038
    76  C    0.113311
    77  C   -0.072148
    78  C    0.014978
    79  C   -0.075048
    80  C    0.017632
    81  C    0.001084
    83  C   -0.079696
    84  C    0.003649
    86  C   -0.079591
    87  C   -0.003448
    90  C   -0.003391
 Electronic spatial extent (au):  <R**2>=          34778.0072
 Charge=             -0.0000 electrons
 Dipole moment (field-independent basis, Debye):
    X=             -5.1430    Y=             -0.0377    Z=              0.0030  Tot=              5.1431
 Quadrupole moment (field-independent basis, Debye-Ang):
   XX=           -344.6258   YY=           -356.7727   ZZ=           -344.1702
   XY=             -0.1087   XZ=             -0.0856   YZ=             39.0609
 Traceless Quadrupole moment (field-independent basis, Debye-Ang):
   XX=              3.8971   YY=             -8.2498   ZZ=              4.3527
   XY=             -0.1087   XZ=             -0.0856   YZ=             39.0609
 Octapole moment (field-independent basis, Debye-Ang**2):
  XXX=             -7.5023  YYY=             -2.0275  ZZZ=              0.0126  XYY=           -179.8792
  XXY=             -0.4032  XXZ=             -0.0261  XZZ=            -53.8154  YZZ=             -0.0080
  YYZ=              1.0191  XYZ=            117.9960
 Hexadecapole moment (field-independent basis, Debye-Ang**3):
 XXXX=         -22263.8665 YYYY=         -17108.0916 ZZZZ=          -6534.3148 XXXY=              1.9035
 XXXZ=              3.9846 YYYX=            -11.2709 YYYZ=            624.8823 ZZZX=              0.2003
 ZZZY=            299.9796 XXYY=          -7121.8202 XXZZ=          -5008.3596 YYZZ=          -3929.9692
 XXYZ=            393.8587 YYXZ=             -0.6252 ZZXY=              0.9235
 N-N= 8.846077207211D+03 E-N=-2.345281193087D+04  KE= 2.470257553361D+03
 Leave Link  601 at Fri Jul  1 04:42:10 2022, MaxMem=  5242880000 cpu:        21.5
 (Enter /opt/nce/packages/global/g09/l9999.exe)
 1\1\GINC-CN005\SP\RB3LYP TD-FC\def2TZVP\C56H32N6\PNG4RJV\01-Jul-2022\0
 \\#p b3lyp/def2TZVP td=(NStates=50) int=ultrafine scrf=(SMD,solvent=Ac
 etonitrile) EmpiricalDispersion=GD3BJ\\Title\\0,1\C,0,0.158365,1.15947
 8,-0.366306\C,0,-0.547078,-0.000513,-0.001903\C,0,0.169993,-1.152231,0
 .368047\C,0,1.574804,-1.124471,0.398522\C,0,2.280256,0.011336,-0.00729
 \C,0,1.563448,1.142769,-0.404417\C,0,2.289173,-2.228356,0.943047\C,0,2
 .265293,2.255235,-0.94729\N,0,2.872587,-3.108705,1.400852\N,0,2.837971
 ,3.143604,-1.403191\N,0,-0.506644,2.338246,-0.719878\C,0,-1.481021,2.4
 78409,-1.718496\C,0,-0.416876,3.548724,-0.00887\C,0,-1.866271,1.581123
 ,-2.704177\C,0,-2.029941,3.775989,-1.633624\C,0,0.375515,3.874559,1.08
 3834\C,0,-1.354674,4.454735,-0.54763\C,0,-2.861048,1.983849,-3.585865\
 H,0,-1.414206,0.604818,-2.790362\C,0,-3.021927,4.161393,-2.533671\C,0,
 0.227524,5.144573,1.627746\H,0,1.07728,3.172592,1.511668\C,0,-1.486647
 ,5.722483,0.016151\C,0,-3.439992,3.255761,-3.499285\H,0,-3.189466,1.29
 8122,-4.356182\H,0,-3.454304,5.152379,-2.480522\C,0,-0.689942,6.061359
 ,1.10108\H,0,0.835145,5.425598,2.478228\H,0,-2.205918,6.426222,-0.3829
 48\H,0,-4.213468,3.53778,-4.201793\H,0,-0.780266,7.042123,1.549603\N,0
 ,-1.950319,-0.010384,-0.009398\C,0,-2.757137,-0.842963,-0.797637\C,0,-
 2.779901,0.807684,0.769836\C,0,-2.392755,-1.770806,-1.763577\C,0,-4.11
 0856,-0.557589,-0.515342\C,0,-2.441657,1.74679,1.734123\C,0,-4.125251,
 0.495491,0.476655\C,0,-3.409704,-2.451541,-2.420188\H,0,-1.359652,-1.9
 55861,-2.014249\C,0,-5.115459,-1.249234,-1.190223\C,0,-3.476928,2.4092
 59,2.380585\H,0,-1.414001,1.954909,1.988739\C,0,-5.1486,1.169512,1.140
 985\C,0,-4.757404,-2.201734,-2.134248\H,0,-3.149632,-3.186151,-3.17139
 3\H,0,-6.157287,-1.039849,-0.983447\C,0,-4.81714,2.131515,2.085081\H,0
 ,-3.237377,3.152292,3.130308\H,0,-6.184429,0.940014,0.925574\H,0,-5.52
 5484,-2.750442,-2.663703\H,0,-5.600149,2.666718,2.606416\N,0,-0.485404
 ,-2.332105,0.734678\C,0,-0.393175,-3.54867,0.03486\C,0,-1.460479,-2.46
 5169,1.733611\C,0,0.405773,-3.883955,-1.04981\C,0,-1.332519,-4.450239,
 0.578085\C,0,-1.843392,-1.561629,2.714353\C,0,-2.009954,-3.763007,1.65
 7496\C,0,0.261167,-5.158679,-1.583388\H,0,1.110598,-3.184457,-1.476707
 \C,0,-1.46125,-5.722944,0.024738\C,0,-2.83941,-1.957147,3.597927\H,0,-
 1.387228,-0.586643,2.796555\C,0,-3.003197,-4.141173,2.559229\C,0,-0.65
 9168,-6.070821,-1.053421\H,0,0.874026,-5.447773,-2.42739\H,0,-2.181303
 ,-6.423946,0.427189\C,0,-3.421051,-3.228295,3.518154\H,0,-3.166739,-1.
 26644,4.36429\H,0,-3.436837,-5.131912,2.512398\H,0,-0.746571,-7.055747
 ,-1.493305\H,0,-4.195767,-3.504521,4.221607\N,0,3.678467,0.016876,-0.0
 12837\C,0,4.494347,0.835811,0.780168\C,0,4.493924,-0.808164,-0.79952\C
 ,0,4.134427,1.784682,1.728399\C,0,5.843617,0.530429,0.497192\C,0,4.133
 52,-1.754187,-1.750347\C,0,5.843284,-0.512735,-0.507165\C,0,5.160791,2
 .448363,2.389181\H,0,3.098806,2.004257,1.949887\C,0,6.855001,1.208797,
 1.175944\C,0,5.159421,-2.426319,-2.403206\H,0,3.097934,-1.964554,-1.98
 0128\C,0,6.854235,-1.199339,-1.178125\C,0,6.505549,2.168095,2.116444\H
 ,0,4.911679,3.196709,3.130457\H,0,7.894875,0.986562,0.973017\C,0,6.504
 326,-2.15668,-2.12044\H,0,4.909818,-3.172857,-3.146116\H,0,7.894295,-0
 .985226,-0.967555\H,0,7.279423,2.704365,2.65013\H,0,7.277907,-2.699455
 ,-2.647925\\Version=ES64L-G09RevE.01\State=1-A\HF=-2483.0151059\RMSD=9
 .707e-09\PG=C01 [X(C56H32N6)]\\@


 IF YOU GET CONFUSED, LOGIC OUT YOUR DILEMMA

           --  PICKER X-RAY CORP.    DIGITAL PRINTER MANUAL CA. 1964
 Job cpu time:      28 days 22 hours 40 minutes  1.0 seconds.
 File lengths (MBytes):  RWF=  29908 Int=      0 D2E=      0 Chk=   6203 Scr=      1
 Normal termination of Gaussian 09 at Fri Jul  1 04:42:22 2022.
