 Entering Gaussian System, Link 0=g09
 Input=/home/png4rjv/fotokatalizis/benchmark/OPCs/CA_50_states/CA_1_B97D3_def2TZVP.gjf
 Output=/home/png4rjv/fotokatalizis/benchmark/OPCs/CA_50_states/CA_1_B97D3_def2TZVP.log
 Initial command:
 /opt/nce/packages/global/g09/l1.exe "/home/png4rjv/fotokatalizis/benchmark/OPCs/CA_50_states/CA_1_B97D3_def2TZVP/Gau-59463.inp" -scrdir="/home/png4rjv/fotokatalizis/benchmark/OPCs/CA_50_states/CA_1_B97D3_def2TZVP/"
 Default is to use a total of  12 processors:
                               12 via shared-memory
                                1 via Linda
 Entering Link 1 = /opt/nce/packages/global/g09/l1.exe PID=     59464.
  
 Copyright (c) 1988,1990,1992,1993,1995,1998,2003,2009,2015,
            Gaussian, Inc.  All Rights Reserved.
  
 This is part of the Gaussian(R) 09 program.  It is based on
 the Gaussian(R) 03 system (copyright 2003, Gaussian, Inc.),
 the Gaussian(R) 98 system (copyright 1998, Gaussian, Inc.),
 the Gaussian(R) 94 system (copyright 1995, Gaussian, Inc.),
 the Gaussian 92(TM) system (copyright 1992, Gaussian, Inc.),
 the Gaussian 90(TM) system (copyright 1990, Gaussian, Inc.),
 the Gaussian 88(TM) system (copyright 1988, Gaussian, Inc.),
 the Gaussian 86(TM) system (copyright 1986, Carnegie Mellon
 University), and the Gaussian 82(TM) system (copyright 1983,
 Carnegie Mellon University). Gaussian is a federally registered
 trademark of Gaussian, Inc.
  
 This software contains proprietary and confidential information,
 including trade secrets, belonging to Gaussian, Inc.
  
 This software is provided under written license and may be
 used, copied, transmitted, or stored only in accord with that
 written license.
  
 The following legend is applicable only to US Government
 contracts under FAR:
  
                    RESTRICTED RIGHTS LEGEND
  
 Use, reproduction and disclosure by the US Government is
 subject to restrictions as set forth in subparagraphs (a)
 and (c) of the Commercial Computer Software - Restricted
 Rights clause in FAR 52.227-19.
  
 Gaussian, Inc.
 340 Quinnipiac St., Bldg. 40, Wallingford CT 06492
  
  
 ---------------------------------------------------------------
 Warning -- This program may not be used in any manner that
 competes with the business of Gaussian, Inc. or will provide
 assistance to any competitor of Gaussian, Inc.  The licensee
 of this program is prohibited from giving any competitor of
 Gaussian, Inc. access to this program.  By using this program,
 the user acknowledges that Gaussian, Inc. is engaged in the
 business of creating and licensing software in the field of
 computational chemistry and represents and warrants to the
 licensee that it is not a competitor of Gaussian, Inc. and that
 it will not use this program in any manner prohibited above.
 ---------------------------------------------------------------
  

 Cite this work as:
 Gaussian 09, Revision E.01,
 M. J. Frisch, G. W. Trucks, H. B. Schlegel, G. E. Scuseria, 
 M. A. Robb, J. R. Cheeseman, G. Scalmani, V. Barone, B. Mennucci, 
 G. A. Petersson, H. Nakatsuji, M. Caricato, X. Li, H. P. Hratchian, 
 A. F. Izmaylov, J. Bloino, G. Zheng, J. L. Sonnenberg, M. Hada, 
 M. Ehara, K. Toyota, R. Fukuda, J. Hasegawa, M. Ishida, T. Nakajima, 
 Y. Honda, O. Kitao, H. Nakai, T. Vreven, J. A. Montgomery, Jr., 
 J. E. Peralta, F. Ogliaro, M. Bearpark, J. J. Heyd, E. Brothers, 
 K. N. Kudin, V. N. Staroverov, T. Keith, R. Kobayashi, J. Normand, 
 K. Raghavachari, A. Rendell, J. C. Burant, S. S. Iyengar, J. Tomasi, 
 M. Cossi, N. Rega, J. M. Millam, M. Klene, J. E. Knox, J. B. Cross, 
 V. Bakken, C. Adamo, J. Jaramillo, R. Gomperts, R. E. Stratmann, 
 O. Yazyev, A. J. Austin, R. Cammi, C. Pomelli, J. W. Ochterski, 
 R. L. Martin, K. Morokuma, V. G. Zakrzewski, G. A. Voth, 
 P. Salvador, J. J. Dannenberg, S. Dapprich, A. D. Daniels, 
 O. Farkas, J. B. Foresman, J. V. Ortiz, J. Cioslowski, 
 and D. J. Fox, Gaussian, Inc., Wallingford CT, 2013.
 
 ******************************************
 Gaussian 09:  ES64L-G09RevE.01 30-Nov-2015
                28-Jun-2022 
 ******************************************
 %chk=cp.chk
 Default route:  MaxDisk=500GB
 ----------------------------------------------------------------------
 #p B97D3/def2TZVP td=(NStates=50) int=ultrafine scrf=(SMD,solvent=Acet
 onitrile)
 ----------------------------------------------------------------------
 1/38=1/1;
 2/12=2,17=6,18=5,40=1/2;
 3/5=44,7=101,11=9,16=1,25=1,30=1,70=32201,72=2,74=-59,75=-5/1,2,8,3;
 4//1;
 5/5=2,38=5,53=2/2;
 8/6=1,10=1,108=50/1;
 9/41=50,42=1,70=2/14;
 6/7=2,8=2,9=2,10=2/1;
 99/5=1,9=1/99;
 Leave Link    1 at Tue Jun 28 18:25:22 2022, MaxMem=           0 cpu:         1.9
 (Enter /opt/nce/packages/global/g09/l101.exe)
 -----
 Title
 -----
 Symbolic Z-matrix:
 Charge =  0 Multiplicity = 1
 C                    -0.16911   1.16585   0.36699 
 C                     0.53914   0.00071  -0.00242 
 C                    -0.18029  -1.15632  -0.37755 
 C                    -1.59337  -1.13033  -0.40767 
 C                    -2.30145   0.01235   0.00213 
 C                    -1.58243   1.15088   0.40326 
 C                    -2.3062   -2.22742  -0.96495 
 C                    -2.28271   2.25679   0.95868 
 N                    -2.89278  -3.11016  -1.43978 
 N                    -2.85824   3.148     1.43122 
 N                     0.49918   2.33965   0.73757 
 C                     1.49464   2.45305   1.72562 
 C                     0.4141    3.56454   0.03924 
 C                     1.87795   1.53635   2.70043 
 C                     2.06453   3.75042   1.64511 
 C                    -0.38814   3.91297  -1.04476 
 C                     1.38063   4.45338   0.57726 
 C                     2.89939   1.91354   3.57292 
 H                     1.40634   0.56447   2.78364 
 C                     3.08129   4.10936   2.53697 
 C                    -0.22521   5.19136  -1.58153 
 H                    -1.10732   3.22245  -1.47207 
 C                     1.52661   5.72841   0.01967 
 C                     3.50184   3.18053   3.48855 
 H                     3.2292    1.21046   4.33333 
 H                     3.53017   5.09804   2.48829 
 C                     0.71733   6.09132  -1.05616 
 H                    -0.84135   5.49045  -2.42549 
 H                     2.26746   6.418     0.41593 
 H                     4.29555   3.44237   4.18334 
 H                     0.81884   7.07861  -1.49904 
 N                     1.94338  -0.00915   0.00619 
 C                     2.75099  -0.86113   0.78141 
 C                     2.77459   0.82853  -0.75909 
 C                     2.38291  -1.80698   1.73458 
 C                     4.11214  -0.56715   0.50315 
 C                     2.43388   1.78461  -1.712 
 C                     4.12706   0.50885  -0.46738 
 C                     3.40365  -2.50513   2.38053 
 H                     1.34517  -1.99234   1.98368 
 C                     5.11881  -1.27622   1.16829 
 C                     3.47389   2.46472  -2.34634 
 H                     1.40199   1.99199  -1.96773 
 C                     5.15339   1.20054  -1.12052 
 C                     4.75664  -2.25137   2.09691 
 H                     3.14076  -3.2562    3.12094 
 H                     6.16515  -1.06204   0.96614 
 C                     4.81902   2.18436  -2.05043 
 H                     3.23248   3.22335  -3.08635 
 H                     6.19346   0.96701  -0.90775 
 H                     5.52728  -2.81413   2.61724 
 H                     5.60525   2.73383  -2.56154 
 N                     0.47831  -2.33295  -0.75521 
 C                     0.38432  -3.56087  -0.06385 
 C                     1.47729  -2.44647  -1.73973 
 C                    -0.42775  -3.91071   1.01197 
 C                     1.35027  -4.45106  -0.60015 
 C                     1.866    -1.52814  -2.71077 
 C                     2.04218  -3.74623  -1.66175 
 C                    -0.27464  -5.19224   1.54392 
 H                    -1.14708  -3.21721   1.43425 
 C                     1.4867   -5.7293   -0.0474 
 C                     2.89016  -1.90539  -3.5801 
 H                     1.39513  -0.55575  -2.79504 
 C                     3.06183  -4.10515  -2.55032 
 C                     0.66815  -6.09355   1.02102 
 H                    -0.89868  -5.49324   2.38138 
 H                     2.22672  -6.4207   -0.44202 
 C                     3.4895   -3.17392  -3.49641 
 H                     3.22481  -1.20118  -4.33737 
 H                     3.5077   -5.09523  -2.50304 
 H                     0.76186  -7.08359   1.45943 
 H                     4.28607  -3.43542  -4.18806 
 N                    -3.70144   0.01708   0.00874 
 C                    -4.52032   0.85531  -0.76965 
 C                    -4.51747  -0.82623   0.78438 
 C                    -4.15957   1.82069  -1.70744 
 C                    -5.87644   0.54222  -0.4873 
 C                    -4.15338  -1.78832   1.72423 
 C                    -5.8746   -0.52173   0.49796 
 C                    -5.1916    2.49966  -2.35731 
 H                    -3.11996   2.0407   -1.92929 
 C                    -6.89188   1.23597  -1.156 
 C                    -5.18295  -2.47421   2.37068 
 H                    -3.11312  -1.99985   1.95071 
 C                    -6.88755  -1.22219   1.16331 
 C                    -6.54111   2.21544  -2.08433 
 H                    -4.94174   3.26255  -3.09012 
 H                    -7.93564   1.00886  -0.95486 
 C                    -6.53343  -2.19949   2.09267 
 H                    -4.93032  -3.23484   3.10487 
 H                    -7.93213  -1.00217   0.95861 
 H                    -7.31897   2.7638   -2.60919 
 H                    -7.30937  -2.75319   2.61475 
 
 NAtoms=     94 NQM=       94 NQMF=       0 NMMI=      0 NMMIF=      0
                NMic=       0 NMicF=      0.
                    Isotopes and Nuclear Properties:
 (Nuclear quadrupole moments (NQMom) in fm**2, nuclear magnetic moments (NMagM)
  in nuclear magnetons)

  Atom         1           2           3           4           5           6           7           8           9          10
 IAtWgt=          12          12          12          12          12          12          12          12          14          14
 AtmWgt=  12.0000000  12.0000000  12.0000000  12.0000000  12.0000000  12.0000000  12.0000000  12.0000000  14.0030740  14.0030740
 NucSpn=           0           0           0           0           0           0           0           0           2           2
 AtZEff=   0.0000000   0.0000000   0.0000000   0.0000000   0.0000000   0.0000000   0.0000000   0.0000000   0.0000000   0.0000000
 NQMom=    0.0000000   0.0000000   0.0000000   0.0000000   0.0000000   0.0000000   0.0000000   0.0000000   2.0440000   2.0440000
 NMagM=    0.0000000   0.0000000   0.0000000   0.0000000   0.0000000   0.0000000   0.0000000   0.0000000   0.4037610   0.4037610
 AtZNuc=   6.0000000   6.0000000   6.0000000   6.0000000   6.0000000   6.0000000   6.0000000   6.0000000   7.0000000   7.0000000

  Atom        11          12          13          14          15          16          17          18          19          20
 IAtWgt=          14          12          12          12          12          12          12          12           1          12
 AtmWgt=  14.0030740  12.0000000  12.0000000  12.0000000  12.0000000  12.0000000  12.0000000  12.0000000   1.0078250  12.0000000
 NucSpn=           2           0           0           0           0           0           0           0           1           0
 AtZEff=   0.0000000   0.0000000   0.0000000   0.0000000   0.0000000   0.0000000   0.0000000   0.0000000   0.0000000   0.0000000
 NQMom=    2.0440000   0.0000000   0.0000000   0.0000000   0.0000000   0.0000000   0.0000000   0.0000000   0.0000000   0.0000000
 NMagM=    0.4037610   0.0000000   0.0000000   0.0000000   0.0000000   0.0000000   0.0000000   0.0000000   2.7928460   0.0000000
 AtZNuc=   7.0000000   6.0000000   6.0000000   6.0000000   6.0000000   6.0000000   6.0000000   6.0000000   1.0000000   6.0000000

  Atom        21          22          23          24          25          26          27          28          29          30
 IAtWgt=          12           1          12          12           1           1          12           1           1           1
 AtmWgt=  12.0000000   1.0078250  12.0000000  12.0000000   1.0078250   1.0078250  12.0000000   1.0078250   1.0078250   1.0078250
 NucSpn=           0           1           0           0           1           1           0           1           1           1
 AtZEff=   0.0000000   0.0000000   0.0000000   0.0000000   0.0000000   0.0000000   0.0000000   0.0000000   0.0000000   0.0000000
 NQMom=    0.0000000   0.0000000   0.0000000   0.0000000   0.0000000   0.0000000   0.0000000   0.0000000   0.0000000   0.0000000
 NMagM=    0.0000000   2.7928460   0.0000000   0.0000000   2.7928460   2.7928460   0.0000000   2.7928460   2.7928460   2.7928460
 AtZNuc=   6.0000000   1.0000000   6.0000000   6.0000000   1.0000000   1.0000000   6.0000000   1.0000000   1.0000000   1.0000000

  Atom        31          32          33          34          35          36          37          38          39          40
 IAtWgt=           1          14          12          12          12          12          12          12          12           1
 AtmWgt=   1.0078250  14.0030740  12.0000000  12.0000000  12.0000000  12.0000000  12.0000000  12.0000000  12.0000000   1.0078250
 NucSpn=           1           2           0           0           0           0           0           0           0           1
 AtZEff=   0.0000000   0.0000000   0.0000000   0.0000000   0.0000000   0.0000000   0.0000000   0.0000000   0.0000000   0.0000000
 NQMom=    0.0000000   2.0440000   0.0000000   0.0000000   0.0000000   0.0000000   0.0000000   0.0000000   0.0000000   0.0000000
 NMagM=    2.7928460   0.4037610   0.0000000   0.0000000   0.0000000   0.0000000   0.0000000   0.0000000   0.0000000   2.7928460
 AtZNuc=   1.0000000   7.0000000   6.0000000   6.0000000   6.0000000   6.0000000   6.0000000   6.0000000   6.0000000   1.0000000

  Atom        41          42          43          44          45          46          47          48          49          50
 IAtWgt=          12          12           1          12          12           1           1          12           1           1
 AtmWgt=  12.0000000  12.0000000   1.0078250  12.0000000  12.0000000   1.0078250   1.0078250  12.0000000   1.0078250   1.0078250
 NucSpn=           0           0           1           0           0           1           1           0           1           1
 AtZEff=   0.0000000   0.0000000   0.0000000   0.0000000   0.0000000   0.0000000   0.0000000   0.0000000   0.0000000   0.0000000
 NQMom=    0.0000000   0.0000000   0.0000000   0.0000000   0.0000000   0.0000000   0.0000000   0.0000000   0.0000000   0.0000000
 NMagM=    0.0000000   0.0000000   2.7928460   0.0000000   0.0000000   2.7928460   2.7928460   0.0000000   2.7928460   2.7928460
 AtZNuc=   6.0000000   6.0000000   1.0000000   6.0000000   6.0000000   1.0000000   1.0000000   6.0000000   1.0000000   1.0000000

  Atom        51          52          53          54          55          56          57          58          59          60
 IAtWgt=           1           1          14          12          12          12          12          12          12          12
 AtmWgt=   1.0078250   1.0078250  14.0030740  12.0000000  12.0000000  12.0000000  12.0000000  12.0000000  12.0000000  12.0000000
 NucSpn=           1           1           2           0           0           0           0           0           0           0
 AtZEff=   0.0000000   0.0000000   0.0000000   0.0000000   0.0000000   0.0000000   0.0000000   0.0000000   0.0000000   0.0000000
 NQMom=    0.0000000   0.0000000   2.0440000   0.0000000   0.0000000   0.0000000   0.0000000   0.0000000   0.0000000   0.0000000
 NMagM=    2.7928460   2.7928460   0.4037610   0.0000000   0.0000000   0.0000000   0.0000000   0.0000000   0.0000000   0.0000000
 AtZNuc=   1.0000000   1.0000000   7.0000000   6.0000000   6.0000000   6.0000000   6.0000000   6.0000000   6.0000000   6.0000000

  Atom        61          62          63          64          65          66          67          68          69          70
 IAtWgt=           1          12          12           1          12          12           1           1          12           1
 AtmWgt=   1.0078250  12.0000000  12.0000000   1.0078250  12.0000000  12.0000000   1.0078250   1.0078250  12.0000000   1.0078250
 NucSpn=           1           0           0           1           0           0           1           1           0           1
 AtZEff=   0.0000000   0.0000000   0.0000000   0.0000000   0.0000000   0.0000000   0.0000000   0.0000000   0.0000000   0.0000000
 NQMom=    0.0000000   0.0000000   0.0000000   0.0000000   0.0000000   0.0000000   0.0000000   0.0000000   0.0000000   0.0000000
 NMagM=    2.7928460   0.0000000   0.0000000   2.7928460   0.0000000   0.0000000   2.7928460   2.7928460   0.0000000   2.7928460
 AtZNuc=   1.0000000   6.0000000   6.0000000   1.0000000   6.0000000   6.0000000   1.0000000   1.0000000   6.0000000   1.0000000

  Atom        71          72          73          74          75          76          77          78          79          80
 IAtWgt=           1           1           1          14          12          12          12          12          12          12
 AtmWgt=   1.0078250   1.0078250   1.0078250  14.0030740  12.0000000  12.0000000  12.0000000  12.0000000  12.0000000  12.0000000
 NucSpn=           1           1           1           2           0           0           0           0           0           0
 AtZEff=   0.0000000   0.0000000   0.0000000   0.0000000   0.0000000   0.0000000   0.0000000   0.0000000   0.0000000   0.0000000
 NQMom=    0.0000000   0.0000000   0.0000000   2.0440000   0.0000000   0.0000000   0.0000000   0.0000000   0.0000000   0.0000000
 NMagM=    2.7928460   2.7928460   2.7928460   0.4037610   0.0000000   0.0000000   0.0000000   0.0000000   0.0000000   0.0000000
 AtZNuc=   1.0000000   1.0000000   1.0000000   7.0000000   6.0000000   6.0000000   6.0000000   6.0000000   6.0000000   6.0000000

  Atom        81          82          83          84          85          86          87          88          89          90
 IAtWgt=          12           1          12          12           1          12          12           1           1          12
 AtmWgt=  12.0000000   1.0078250  12.0000000  12.0000000   1.0078250  12.0000000  12.0000000   1.0078250   1.0078250  12.0000000
 NucSpn=           0           1           0           0           1           0           0           1           1           0
 AtZEff=   0.0000000   0.0000000   0.0000000   0.0000000   0.0000000   0.0000000   0.0000000   0.0000000   0.0000000   0.0000000
 NQMom=    0.0000000   0.0000000   0.0000000   0.0000000   0.0000000   0.0000000   0.0000000   0.0000000   0.0000000   0.0000000
 NMagM=    0.0000000   2.7928460   0.0000000   0.0000000   2.7928460   0.0000000   0.0000000   2.7928460   2.7928460   0.0000000
 AtZNuc=   6.0000000   1.0000000   6.0000000   6.0000000   1.0000000   6.0000000   6.0000000   1.0000000   1.0000000   6.0000000

  Atom        91          92          93          94
 IAtWgt=           1           1           1           1
 AtmWgt=   1.0078250   1.0078250   1.0078250   1.0078250
 NucSpn=           1           1           1           1
 AtZEff=   0.0000000   0.0000000   0.0000000   0.0000000
 NQMom=    0.0000000   0.0000000   0.0000000   0.0000000
 NMagM=    2.7928460   2.7928460   2.7928460   2.7928460
 AtZNuc=   1.0000000   1.0000000   1.0000000   1.0000000
 Leave Link  101 at Tue Jun 28 18:25:22 2022, MaxMem=  5242880000 cpu:         2.0
 (Enter /opt/nce/packages/global/g09/l202.exe)
 Stoichiometry    C56H32N6
 Framework group  C1[X(C56H32N6)]
 Deg. of freedom   276
 Full point group                 C1      NOp   1
 Largest Abelian subgroup         C1      NOp   1
 Largest concise Abelian subgroup C1      NOp   1
                         Standard orientation:                         
 ---------------------------------------------------------------------
 Center     Atomic      Atomic             Coordinates (Angstroms)
 Number     Number       Type             X           Y           Z
 ---------------------------------------------------------------------
      1          6           0       -0.169110    1.165849    0.366994
      2          6           0        0.539138    0.000706   -0.002415
      3          6           0       -0.180287   -1.156316   -0.377547
      4          6           0       -1.593374   -1.130330   -0.407665
      5          6           0       -2.301449    0.012354    0.002127
      6          6           0       -1.582432    1.150877    0.403259
      7          6           0       -2.306199   -2.227419   -0.964951
      8          6           0       -2.282708    2.256785    0.958681
      9          7           0       -2.892782   -3.110155   -1.439782
     10          7           0       -2.858237    3.147998    1.431219
     11          7           0        0.499183    2.339648    0.737573
     12          6           0        1.494635    2.453055    1.725622
     13          6           0        0.414096    3.564544    0.039242
     14          6           0        1.877954    1.536352    2.700428
     15          6           0        2.064533    3.750419    1.645112
     16          6           0       -0.388140    3.912974   -1.044764
     17          6           0        1.380634    4.453384    0.577260
     18          6           0        2.899386    1.913535    3.572920
     19          1           0        1.406343    0.564473    2.783640
     20          6           0        3.081295    4.109359    2.536973
     21          6           0       -0.225210    5.191361   -1.581527
     22          1           0       -1.107320    3.222452   -1.472069
     23          6           0        1.526613    5.728412    0.019667
     24          6           0        3.501844    3.180528    3.488547
     25          1           0        3.229197    1.210461    4.333329
     26          1           0        3.530170    5.098036    2.488289
     27          6           0        0.717327    6.091316   -1.056159
     28          1           0       -0.841353    5.490447   -2.425487
     29          1           0        2.267457    6.417995    0.415933
     30          1           0        4.295553    3.442374    4.183338
     31          1           0        0.818836    7.078609   -1.499038
     32          7           0        1.943384   -0.009153    0.006187
     33          6           0        2.750987   -0.861130    0.781410
     34          6           0        2.774594    0.828531   -0.759092
     35          6           0        2.382905   -1.806979    1.734575
     36          6           0        4.112144   -0.567147    0.503147
     37          6           0        2.433878    1.784613   -1.711999
     38          6           0        4.127065    0.508846   -0.467383
     39          6           0        3.403651   -2.505125    2.380526
     40          1           0        1.345166   -1.992342    1.983675
     41          6           0        5.118811   -1.276221    1.168286
     42          6           0        3.473890    2.464719   -2.346342
     43          1           0        1.401991    1.991988   -1.967728
     44          6           0        5.153385    1.200543   -1.120518
     45          6           0        4.756640   -2.251365    2.096912
     46          1           0        3.140756   -3.256202    3.120943
     47          1           0        6.165146   -1.062035    0.966136
     48          6           0        4.819015    2.184356   -2.050430
     49          1           0        3.232478    3.223354   -3.086353
     50          1           0        6.193459    0.967012   -0.907754
     51          1           0        5.527281   -2.814133    2.617235
     52          1           0        5.605246    2.733827   -2.561544
     53          7           0        0.478310   -2.332951   -0.755205
     54          6           0        0.384319   -3.560871   -0.063852
     55          6           0        1.477287   -2.446467   -1.739729
     56          6           0       -0.427752   -3.910713    1.011974
     57          6           0        1.350265   -4.451062   -0.600150
     58          6           0        1.866002   -1.528142   -2.710773
     59          6           0        2.042181   -3.746230   -1.661751
     60          6           0       -0.274640   -5.192241    1.543923
     61          1           0       -1.147083   -3.217207    1.434249
     62          6           0        1.486703   -5.729298   -0.047397
     63          6           0        2.890162   -1.905392   -3.580097
     64          1           0        1.395133   -0.555753   -2.795038
     65          6           0        3.061829   -4.105146   -2.550316
     66          6           0        0.668148   -6.093546    1.021018
     67          1           0       -0.898681   -5.493241    2.381375
     68          1           0        2.226720   -6.420699   -0.442021
     69          6           0        3.489504   -3.173919   -3.496407
     70          1           0        3.224806   -1.201177   -4.337369
     71          1           0        3.507700   -5.095231   -2.503042
     72          1           0        0.761859   -7.083586    1.459430
     73          1           0        4.286069   -3.435417   -4.188062
     74          7           0       -3.701440    0.017076    0.008742
     75          6           0       -4.520320    0.855313   -0.769650
     76          6           0       -4.517468   -0.826232    0.784383
     77          6           0       -4.159566    1.820694   -1.707435
     78          6           0       -5.876443    0.542223   -0.487302
     79          6           0       -4.153381   -1.788319    1.724229
     80          6           0       -5.874595   -0.521730    0.497963
     81          6           0       -5.191603    2.499659   -2.357308
     82          1           0       -3.119958    2.040703   -1.929291
     83          6           0       -6.891880    1.235968   -1.156001
     84          6           0       -5.182946   -2.474208    2.370684
     85          1           0       -3.113117   -1.999845    1.950705
     86          6           0       -6.887545   -1.222194    1.163313
     87          6           0       -6.541106    2.215438   -2.084330
     88          1           0       -4.941737    3.262548   -3.090116
     89          1           0       -7.935639    1.008861   -0.954859
     90          6           0       -6.533432   -2.199490    2.092667
     91          1           0       -4.930322   -3.234843    3.104867
     92          1           0       -7.932126   -1.002170    0.958606
     93          1           0       -7.318970    2.763802   -2.609190
     94          1           0       -7.309370   -2.753194    2.614751
 ---------------------------------------------------------------------
 Rotational constants (GHZ):      0.0572819      0.0445480      0.0321237
 Leave Link  202 at Tue Jun 28 18:25:22 2022, MaxMem=  5242880000 cpu:         0.1
 (Enter /opt/nce/packages/global/g09/l301.exe)
 Standard basis: def2TZVP (5D, 7F)
 Ernie: Thresh=  0.10000D-02 Tol=  0.10000D-05 Strict=F.
 There are  2424 symmetry adapted cartesian basis functions of A   symmetry.
 There are  2114 symmetry adapted basis functions of A   symmetry.
  2114 basis functions,  3418 primitive gaussians,  2424 cartesian basis functions
   205 alpha electrons      205 beta electrons
       nuclear repulsion energy      8825.8574748602 Hartrees.
 IExCor= 3630 DFT=T Ex+Corr=B97D3 ExCW=0 ScaHFX=  0.000000
 ScaDFX=  1.000000  1.000000  1.000000  1.000000 ScalE2=  1.000000  1.000000
 IRadAn=      5 IRanWt=     -1 IRanGd=            0 ICorTp=0 IEmpDi=141
 NAtoms=   94 NActive=   94 NUniq=   94 SFac= 1.00D+00 NAtFMM=   60 NAOKFM=T Big=T
 Integral buffers will be    131072 words long.
 Regular integral format.
 Two-electron integral symmetry is turned on.
 R6Disp:  Grimme-D3(BJ) Dispersion energy=       -0.4497587805 Hartrees.
 Nuclear repulsion after empirical dispersion term =     8825.4077160796 Hartrees.
 ------------------------------------------------------------------------------
 Polarizable Continuum Model (PCM)
 =================================
 Model                : PCM (using non-symmetric T matrix).
 Atomic radii         : SMD-Coulomb.
 Polarization charges : Total charges.
 Charge compensation  : None.
 Solution method      : On-the-fly selection.
 Cavity type          : VdW (van der Waals Surface) (Alpha=1.000).
 Cavity algorithm     : GePol (No added spheres)
                        Default sphere list used, NSphG=   94.
                        Lebedev-Laikov grids with approx.  5.0 points / Ang**2.
                        Smoothing algorithm: York/Karplus (Gamma=1.0000).
                        Polarization charges: spherical gaussians, with
                                              point-specific exponents (IZeta= 3).
                        Self-potential: point-specific (ISelfS= 7).
                        Self-field    : sphere-specific E.n sum rule (ISelfD= 2).
 Solvent              : Acetonitrile, Eps=  35.688000 Eps(inf)=   1.806874
 ------------------------------------------------------------------------------
 GePol: Number of generator spheres                  =      94
 GePol: Total number of spheres                      =      94
 GePol: Number of exposed spheres                    =      94 (100.00%)
 GePol: Number of points                             =    7070
 GePol: Average weight of points                     =       0.11
 GePol: Minimum weight of points                     =   0.24D-11
 GePol: Maximum weight of points                     =    0.17992
 GePol: Number of points with low weight             =     476
 GePol: Fraction of low-weight points (<1% of avg)   =       6.73%
 GePol: Cavity surface area                          =    745.146 Ang**2
 GePol: Cavity volume                                =    783.650 Ang**3
 ------------------------------------------------------------------------------
 Atomic radii for non-electrostatic terms: SMD-CDS.
 ------------------------------------------------------------------------------
 PCM non-electrostatic energy =        -0.0154613162 Hartrees.
 Nuclear repulsion after PCM non-electrostatic terms =     8825.3922547635 Hartrees.
 Leave Link  301 at Tue Jun 28 18:25:22 2022, MaxMem=  5242880000 cpu:         2.4
 (Enter /opt/nce/packages/global/g09/l302.exe)
 NPDir=0 NMtPBC=     1 NCelOv=     1 NCel=       1 NClECP=     1 NCelD=      1
         NCelK=      1 NCelE2=     1 NClLst=     1 CellRange=     0.0.
 One-electron integrals computed using PRISM.
   1 Symmetry operations used in ECPInt.
 ECPInt:  NShTT=  328455 NPrTT= 1027488 LenC2=  241975 LenP2D=  485998.
 LDataN:  DoStor=T MaxTD1= 6 Len=  172
 NBasis=  2114 RedAO= T EigKep=  2.72D-06  NBF=  2114
 NBsUse=  2113 1.00D-06 EigRej=  7.25D-07 NBFU=  2113
 Precomputing XC quadrature grid using
 IXCGrd= 4 IRadAn=           5 IRanWt=          -1 IRanGd=           0 AccXCQ= 0.00D+00.
 Generated NRdTot=       0 NPtTot=           0 NUsed=           0 NTot=          32
 NSgBfM=  2312  2312  2313  2313  2313 MxSgAt=    94 MxSgA2=    94.
 Leave Link  302 at Tue Jun 28 18:25:35 2022, MaxMem=  5242880000 cpu:       148.8
 (Enter /opt/nce/packages/global/g09/l308.exe)
 Leave Link  308 at Tue Jun 28 18:25:37 2022, MaxMem=  5242880000 cpu:        18.9
 (Enter /opt/nce/packages/global/g09/l303.exe)
 DipDrv:  MaxL=1.
 Leave Link  303 at Tue Jun 28 18:25:38 2022, MaxMem=  5242880000 cpu:        10.1
 (Enter /opt/nce/packages/global/g09/l401.exe)
 ExpMin= 9.52D-02 ExpMax= 1.97D+04 ExpMxC= 6.73D+02 IAcc=3 IRadAn=         5 AccDes= 0.00D+00
 Harris functional with IExCor= 3630 and IRadAn=       5 diagonalized for initial guess.
 HarFok:  IExCor= 3630 AccDes= 0.00D+00 IRadAn=         5 IDoV= 1 UseB2=F ITyADJ=14
 ICtDFT=  3500011 ScaDFX=  1.000000  1.000000  1.000000  1.000000
 FoFCou: FMM=F IPFlag=           0 FMFlag=      100000 FMFlg1=        2001
         NFxFlg=           0 DoJE=T BraDBF=F KetDBF=T FulRan=T
         wScrn=  0.000000 ICntrl=     500 IOpCl=  0 I1Cent=   200000004 NGrid=           0
         NMat0=    1 NMatS0=      1 NMatT0=    0 NMatD0=    1 NMtDS0=    0 NMtDT0=    0
 Petite list used in FoFCou.
 Harris En= -2481.73962648443    
 JPrj=0 DoOrth=F DoCkMO=F.
 Leave Link  401 at Tue Jun 28 18:26:17 2022, MaxMem=  5242880000 cpu:       467.8
 (Enter /opt/nce/packages/global/g09/l502.exe)
 Closed shell SCF:
 Using DIIS extrapolation, IDIIS=  1040.
 Integral symmetry usage will be decided dynamically.
 IVT=    17692622 IEndB=    17692622 NGot=  5242880000 MDV=  5231082219
 LenX=  5231082219 LenY=  5225204019
 Requested convergence on RMS density matrix=1.00D-08 within 128 cycles.
 Requested convergence on MAX density matrix=1.00D-06.
 Requested convergence on             energy=1.00D-06.
 No special actions if energy rises.
 Fock matrices will be formed incrementally for  20 cycles.

 Cycle   1  Pass 1  IDiag  1:
 FoFJK:  IHMeth= 1 ICntrl=     500 DoSepK=F KAlg= 0 I1Cent=   0 FoldK=F
 IRaf= 670000000 NMat=   1 IRICut=       1 DoRegI=T DoRafI=F ISym2E= 0.
 FoFCou: FMM=T IPFlag=           0 FMFlag=      100000 FMFlg1=        2001
         NFxFlg=           0 DoJE=T BraDBF=F KetDBF=F FulRan=T
         wScrn=  0.000000 ICntrl=     500 IOpCl=  0 I1Cent=           0 NGrid=           0
         NMat0=    1 NMatS0=      1 NMatT0=    0 NMatD0=    1 NMtDS0=    0 NMtDT0=    0
 Symmetry not used in FoFCou.
 FMM levels:  10  Number of levels for PrismC:   9
 Inv3:  Mode=1 IEnd=   149954700.
 Iteration    1 A*A^-1 deviation from unit magnitude is 1.38D-14 for   7070.
 Iteration    1 A*A^-1 deviation from orthogonality  is 4.77D-15 for   7032   2128.
 Iteration    1 A^-1*A deviation from unit magnitude is 1.35D-14 for   7070.
 Iteration    1 A^-1*A deviation from orthogonality  is 9.47D-08 for   3211   3178.
 Iteration    2 A*A^-1 deviation from unit magnitude is 2.89D-15 for    269.
 Iteration    2 A*A^-1 deviation from orthogonality  is 3.31D-15 for   3368    193.
 Iteration    2 A^-1*A deviation from unit magnitude is 7.77D-16 for    125.
 Iteration    2 A^-1*A deviation from orthogonality  is 4.10D-16 for   2752    892.
 E= -2479.96650150917    
 DIIS: error= 1.47D-02 at cycle   1 NSaved=   1.
 NSaved= 1 IEnMin= 1 EnMin= -2479.96650150917     IErMin= 1 ErrMin= 1.47D-02
 ErrMax= 1.47D-02  0.00D+00 EMaxC= 1.00D-01 BMatC= 1.12D+00 BMatP= 1.12D+00
 IDIUse=3 WtCom= 8.53D-01 WtEn= 1.47D-01
 Coeff-Com:  0.100D+01
 Coeff-En:   0.100D+01
 Coeff:      0.100D+01
 Gap=     0.202 Goal=   None    Shift=    0.000
 GapD=    0.202 DampG=1.000 DampE=0.500 DampFc=0.5000 IDamp=-1.
 Damping current iteration by 5.00D-01
 RMSDP=2.97D-03 MaxDP=4.95D-01              OVMax= 8.10D-01

 Cycle   2  Pass 1  IDiag  1:
 RMSU=  1.49D-03    CP:  9.92D-01
 E= -2479.92565313068     Delta-E=        0.040848378490 Rises=F Damp=T
 DIIS: error= 9.12D-03 at cycle   2 NSaved=   2.
 NSaved= 2 IEnMin= 1 EnMin= -2479.96650150917     IErMin= 2 ErrMin= 9.12D-03
 ErrMax= 9.12D-03  0.00D+00 EMaxC= 1.00D-01 BMatC= 3.42D-01 BMatP= 1.12D+00
 IDIUse=3 WtCom= 9.09D-01 WtEn= 9.12D-02
 Coeff-Com:  0.288D+00 0.712D+00
 Coeff-En:   0.515D+00 0.485D+00
 Coeff:      0.309D+00 0.691D+00
 Gap=     0.025 Goal=   None    Shift=    0.000
 RMSDP=1.24D-03 MaxDP=1.77D-01 DE= 4.08D-02 OVMax= 6.90D-01

 Cycle   3  Pass 1  IDiag  1:
 RMSU=  1.03D-03    CP:  9.36D-01  5.59D-01
 E= -2480.47010974818     Delta-E=       -0.544456617497 Rises=F Damp=F
 DIIS: error= 1.39D-02 at cycle   3 NSaved=   3.
 NSaved= 3 IEnMin= 3 EnMin= -2480.47010974818     IErMin= 2 ErrMin= 9.12D-03
 ErrMax= 1.39D-02  0.00D+00 EMaxC= 1.00D-01 BMatC= 5.35D-01 BMatP= 3.42D-01
 IDIUse=2 WtCom= 0.00D+00 WtEn= 1.00D+00
 Coeff-En:   0.000D+00 0.312D+00 0.688D+00
 Coeff:      0.000D+00 0.312D+00 0.688D+00
 Gap=     0.190 Goal=   None    Shift=    0.000
 RMSDP=1.28D-03 MaxDP=1.64D-01 DE=-5.44D-01 OVMax= 4.05D-01

 Cycle   4  Pass 1  IDiag  1:
 RMSU=  8.82D-04    CP:  9.47D-01  8.15D-01  1.76D-01
 E= -2480.03104775038     Delta-E=        0.439061997795 Rises=F Damp=F
 DIIS: error= 2.13D-02 at cycle   4 NSaved=   4.
 NSaved= 4 IEnMin= 3 EnMin= -2480.47010974818     IErMin= 2 ErrMin= 9.12D-03
 ErrMax= 2.13D-02  0.00D+00 EMaxC= 1.00D-01 BMatC= 9.71D-01 BMatP= 3.42D-01
 IDIUse=2 WtCom= 0.00D+00 WtEn= 1.00D+00
 Coeff-En:   0.000D+00 0.000D+00 0.592D+00 0.408D+00
 Coeff:      0.000D+00 0.000D+00 0.592D+00 0.408D+00
 Gap=     0.038 Goal=   None    Shift=    0.000
 RMSDP=9.31D-04 MaxDP=1.80D-01 DE= 4.39D-01 OVMax= 2.60D-01

 Cycle   5  Pass 1  IDiag  1:
 RMSU=  4.91D-04    CP:  9.40D-01  4.70D-01  4.49D-01  3.96D-01
 E= -2481.03228945271     Delta-E=       -1.001241702328 Rises=F Damp=F
 DIIS: error= 4.75D-03 at cycle   5 NSaved=   5.
 NSaved= 5 IEnMin= 5 EnMin= -2481.03228945271     IErMin= 5 ErrMin= 4.75D-03
 ErrMax= 4.75D-03  0.00D+00 EMaxC= 1.00D-01 BMatC= 7.13D-02 BMatP= 3.42D-01
 IDIUse=3 WtCom= 9.53D-01 WtEn= 4.75D-02
 Coeff-Com:  0.285D-01 0.572D-01 0.346D+00 0.233D+00 0.335D+00
 Coeff-En:   0.000D+00 0.000D+00 0.351D-02 0.000D+00 0.996D+00
 Coeff:      0.271D-01 0.545D-01 0.330D+00 0.222D+00 0.366D+00
 Gap=     0.080 Goal=   None    Shift=    0.000
 RMSDP=3.21D-04 MaxDP=4.26D-02 DE=-1.00D+00 OVMax= 9.04D-02

 Cycle   6  Pass 1  IDiag  1:
 RMSU=  1.37D-04    CP:  9.40D-01  5.40D-01  5.68D-01  4.18D-01  5.10D-01
 E= -2481.09573355419     Delta-E=       -0.063444101483 Rises=F Damp=F
 DIIS: error= 2.26D-03 at cycle   6 NSaved=   6.
 NSaved= 6 IEnMin= 6 EnMin= -2481.09573355419     IErMin= 6 ErrMin= 2.26D-03
 ErrMax= 2.26D-03  0.00D+00 EMaxC= 1.00D-01 BMatC= 9.46D-03 BMatP= 7.13D-02
 IDIUse=3 WtCom= 9.77D-01 WtEn= 2.26D-02
 Coeff-Com: -0.429D-02 0.344D-02 0.765D-01 0.523D-01 0.259D+00 0.613D+00
 Coeff-En:   0.000D+00 0.000D+00 0.000D+00 0.000D+00 0.126D+00 0.874D+00
 Coeff:     -0.419D-02 0.336D-02 0.747D-01 0.511D-01 0.256D+00 0.619D+00
 Gap=     0.077 Goal=   None    Shift=    0.000
 RMSDP=7.98D-05 MaxDP=8.91D-03 DE=-6.34D-02 OVMax= 2.51D-02

 Cycle   7  Pass 1  IDiag  1:
 RMSU=  6.72D-05    CP:  9.40D-01  5.32D-01  5.56D-01  4.12D-01  5.69D-01
                    CP:  8.12D-01
 E= -2481.10093704568     Delta-E=       -0.005203491484 Rises=F Damp=F
 DIIS: error= 9.49D-04 at cycle   7 NSaved=   7.
 NSaved= 7 IEnMin= 7 EnMin= -2481.10093704568     IErMin= 7 ErrMin= 9.49D-04
 ErrMax= 9.49D-04  0.00D+00 EMaxC= 1.00D-01 BMatC= 3.58D-03 BMatP= 9.46D-03
 IDIUse=3 WtCom= 9.91D-01 WtEn= 9.49D-03
 Coeff-Com: -0.539D-02 0.346D-02 0.114D-01 0.469D-02 0.132D+00 0.471D+00
 Coeff-Com:  0.384D+00
 Coeff-En:   0.000D+00 0.000D+00 0.000D+00 0.000D+00 0.000D+00 0.329D+00
 Coeff-En:   0.671D+00
 Coeff:     -0.534D-02 0.343D-02 0.113D-01 0.465D-02 0.130D+00 0.469D+00
 Coeff:      0.386D+00
 Gap=     0.073 Goal=   None    Shift=    0.000
 RMSDP=4.34D-05 MaxDP=3.89D-03 DE=-5.20D-03 OVMax= 1.62D-02

 Cycle   8  Pass 1  IDiag  1:
 RMSU=  2.07D-05    CP:  9.40D-01  5.32D-01  5.54D-01  4.11D-01  5.90D-01
                    CP:  8.73D-01  4.70D-01
 E= -2481.10459299590     Delta-E=       -0.003655950220 Rises=F Damp=F
 DIIS: error= 2.66D-04 at cycle   8 NSaved=   8.
 NSaved= 8 IEnMin= 8 EnMin= -2481.10459299590     IErMin= 8 ErrMin= 2.66D-04
 ErrMax= 2.66D-04  0.00D+00 EMaxC= 1.00D-01 BMatC= 2.46D-04 BMatP= 3.58D-03
 IDIUse=3 WtCom= 9.97D-01 WtEn= 2.66D-03
 Coeff-Com: -0.332D-02 0.296D-02 0.254D-02-0.661D-03 0.706D-01 0.273D+00
 Coeff-Com:  0.266D+00 0.389D+00
 Coeff-En:   0.000D+00 0.000D+00 0.000D+00 0.000D+00 0.000D+00 0.000D+00
 Coeff-En:   0.203D-01 0.980D+00
 Coeff:     -0.331D-02 0.295D-02 0.254D-02-0.659D-03 0.705D-01 0.273D+00
 Coeff:      0.265D+00 0.390D+00
 Gap=     0.072 Goal=   None    Shift=    0.000
 RMSDP=1.19D-05 MaxDP=1.45D-03 DE=-3.66D-03 OVMax= 4.86D-03

 Cycle   9  Pass 1  IDiag  1:
 RMSU=  8.56D-06    CP:  9.40D-01  5.30D-01  5.53D-01  4.10D-01  5.97D-01
                    CP:  8.58D-01  5.07D-01  7.06D-01
 E= -2481.10483023408     Delta-E=       -0.000237238182 Rises=F Damp=F
 DIIS: error= 1.54D-04 at cycle   9 NSaved=   9.
 NSaved= 9 IEnMin= 9 EnMin= -2481.10483023408     IErMin= 9 ErrMin= 1.54D-04
 ErrMax= 1.54D-04  0.00D+00 EMaxC= 1.00D-01 BMatC= 2.55D-05 BMatP= 2.46D-04
 IDIUse=3 WtCom= 9.98D-01 WtEn= 1.54D-03
 Coeff-Com: -0.162D-02 0.247D-02 0.591D-03-0.120D-02 0.315D-01 0.123D+00
 Coeff-Com:  0.129D+00 0.265D+00 0.451D+00
 Coeff-En:   0.000D+00 0.000D+00 0.000D+00 0.000D+00 0.000D+00 0.000D+00
 Coeff-En:   0.000D+00 0.869D-01 0.913D+00
 Coeff:     -0.161D-02 0.246D-02 0.590D-03-0.120D-02 0.314D-01 0.123D+00
 Coeff:      0.129D+00 0.264D+00 0.452D+00
 Gap=     0.072 Goal=   None    Shift=    0.000
 RMSDP=3.63D-06 MaxDP=4.27D-04 DE=-2.37D-04 OVMax= 1.82D-03

 Cycle  10  Pass 1  IDiag  1:
 RMSU=  2.96D-06    CP:  9.40D-01  5.30D-01  5.53D-01  4.10D-01  5.97D-01
                    CP:  8.61D-01  5.01D-01  7.61D-01  8.13D-01
 E= -2481.10485434179     Delta-E=       -0.000024107712 Rises=F Damp=F
 DIIS: error= 3.37D-05 at cycle  10 NSaved=  10.
 NSaved=10 IEnMin=10 EnMin= -2481.10485434179     IErMin=10 ErrMin= 3.37D-05
 ErrMax= 3.37D-05  0.00D+00 EMaxC= 1.00D-01 BMatC= 2.98D-06 BMatP= 2.55D-05
 IDIUse=1 WtCom= 1.00D+00 WtEn= 0.00D+00
 Coeff-Com: -0.485D-03 0.749D-03-0.187D-03-0.563D-03 0.851D-02 0.287D-01
 Coeff-Com:  0.331D-01 0.948D-01 0.290D+00 0.546D+00
 Coeff:     -0.485D-03 0.749D-03-0.187D-03-0.563D-03 0.851D-02 0.287D-01
 Coeff:      0.331D-01 0.948D-01 0.290D+00 0.546D+00
 Gap=     0.072 Goal=   None    Shift=    0.000
 RMSDP=1.30D-06 MaxDP=1.08D-04 DE=-2.41D-05 OVMax= 3.70D-04

 Cycle  11  Pass 1  IDiag  1:
 RMSU=  8.26D-07    CP:  9.40D-01  5.30D-01  5.53D-01  4.10D-01  5.96D-01
                    CP:  8.61D-01  5.05D-01  7.68D-01  8.46D-01  7.74D-01
 E= -2481.10485714017     Delta-E=       -0.000002798377 Rises=F Damp=F
 DIIS: error= 8.83D-06 at cycle  11 NSaved=  11.
 NSaved=11 IEnMin=11 EnMin= -2481.10485714017     IErMin=11 ErrMin= 8.83D-06
 ErrMax= 8.83D-06  0.00D+00 EMaxC= 1.00D-01 BMatC= 2.28D-07 BMatP= 2.98D-06
 IDIUse=1 WtCom= 1.00D+00 WtEn= 0.00D+00
 Coeff-Com: -0.153D-03 0.232D-03-0.120D-03-0.183D-03 0.254D-02 0.632D-02
 Coeff-Com:  0.794D-02 0.325D-01 0.132D+00 0.308D+00 0.511D+00
 Coeff:     -0.153D-03 0.232D-03-0.120D-03-0.183D-03 0.254D-02 0.632D-02
 Coeff:      0.794D-02 0.325D-01 0.132D+00 0.308D+00 0.511D+00
 Gap=     0.072 Goal=   None    Shift=    0.000
 RMSDP=3.95D-07 MaxDP=6.11D-05 DE=-2.80D-06 OVMax= 1.45D-04

 Cycle  12  Pass 1  IDiag  1:
 RMSU=  2.72D-07    CP:  9.40D-01  5.30D-01  5.53D-01  4.10D-01  5.97D-01
                    CP:  8.61D-01  5.06D-01  7.72D-01  8.56D-01  8.04D-01
                    CP:  8.21D-01
 E= -2481.10485734056     Delta-E=       -0.000000200387 Rises=F Damp=F
 DIIS: error= 2.49D-06 at cycle  12 NSaved=  12.
 NSaved=12 IEnMin=12 EnMin= -2481.10485734056     IErMin=12 ErrMin= 2.49D-06
 ErrMax= 2.49D-06  0.00D+00 EMaxC= 1.00D-01 BMatC= 3.59D-08 BMatP= 2.28D-07
 IDIUse=1 WtCom= 1.00D+00 WtEn= 0.00D+00
 Coeff-Com: -0.143D-04 0.132D-04-0.505D-04-0.931D-05 0.143D-03-0.998D-03
 Coeff-Com: -0.915D-03 0.390D-02 0.325D-01 0.936D-01 0.317D+00 0.555D+00
 Coeff:     -0.143D-04 0.132D-04-0.505D-04-0.931D-05 0.143D-03-0.998D-03
 Coeff:     -0.915D-03 0.390D-02 0.325D-01 0.936D-01 0.317D+00 0.555D+00
 Gap=     0.072 Goal=   None    Shift=    0.000
 RMSDP=1.64D-07 MaxDP=2.14D-05 DE=-2.00D-07 OVMax= 4.42D-05

 Cycle  13  Pass 1  IDiag  1:
 RMSU=  1.15D-07    CP:  9.40D-01  5.30D-01  5.53D-01  4.10D-01  5.97D-01
                    CP:  8.61D-01  5.06D-01  7.74D-01  8.60D-01  8.04D-01
                    CP:  8.58D-01  8.87D-01
 E= -2481.10485737364     Delta-E=       -0.000000033078 Rises=F Damp=F
 DIIS: error= 6.60D-07 at cycle  13 NSaved=  13.
 NSaved=13 IEnMin=13 EnMin= -2481.10485737364     IErMin=13 ErrMin= 6.60D-07
 ErrMax= 6.60D-07  0.00D+00 EMaxC= 1.00D-01 BMatC= 3.18D-09 BMatP= 3.59D-08
 IDIUse=1 WtCom= 1.00D+00 WtEn= 0.00D+00
 Coeff-Com: -0.191D-05 0.258D-05-0.253D-04 0.261D-05-0.490D-04-0.785D-03
 Coeff-Com: -0.804D-03 0.852D-03 0.119D-01 0.365D-01 0.160D+00 0.333D+00
 Coeff-Com:  0.460D+00
 Coeff:     -0.191D-05 0.258D-05-0.253D-04 0.261D-05-0.490D-04-0.785D-03
 Coeff:     -0.804D-03 0.852D-03 0.119D-01 0.365D-01 0.160D+00 0.333D+00
 Coeff:      0.460D+00
 Gap=     0.072 Goal=   None    Shift=    0.000
 RMSDP=4.65D-08 MaxDP=4.35D-06 DE=-3.31D-08 OVMax= 1.43D-05

 Cycle  14  Pass 1  IDiag  1:
 RMSU=  3.55D-08    CP:  9.40D-01  5.30D-01  5.53D-01  4.10D-01  5.97D-01
                    CP:  8.61D-01  5.06D-01  7.74D-01  8.61D-01  8.05D-01
                    CP:  8.63D-01  9.50D-01  8.27D-01
 E= -2481.10485737590     Delta-E=       -0.000000002266 Rises=F Damp=F
 DIIS: error= 4.01D-07 at cycle  14 NSaved=  14.
 NSaved=14 IEnMin=14 EnMin= -2481.10485737590     IErMin=14 ErrMin= 4.01D-07
 ErrMax= 4.01D-07  0.00D+00 EMaxC= 1.00D-01 BMatC= 6.09D-10 BMatP= 3.18D-09
 IDIUse=1 WtCom= 1.00D+00 WtEn= 0.00D+00
 Coeff-Com:  0.384D-07 0.208D-06-0.968D-05 0.395D-05-0.479D-04-0.304D-03
 Coeff-Com: -0.318D-03 0.131D-03 0.300D-02 0.940D-02 0.581D-01 0.138D+00
 Coeff-Com:  0.321D+00 0.471D+00
 Coeff:      0.384D-07 0.208D-06-0.968D-05 0.395D-05-0.479D-04-0.304D-03
 Coeff:     -0.318D-03 0.131D-03 0.300D-02 0.940D-02 0.581D-01 0.138D+00
 Coeff:      0.321D+00 0.471D+00
 Gap=     0.072 Goal=   None    Shift=    0.000
 RMSDP=2.25D-08 MaxDP=3.48D-06 DE=-2.27D-09 OVMax= 5.32D-06

 Cycle  15  Pass 1  IDiag  1:
 RMSU=  1.52D-08    CP:  9.40D-01  5.30D-01  5.53D-01  4.10D-01  5.97D-01
                    CP:  8.61D-01  5.06D-01  7.74D-01  8.60D-01  8.05D-01
                    CP:  8.70D-01  9.53D-01  8.63D-01  7.85D-01
 E= -2481.10485737632     Delta-E=       -0.000000000418 Rises=F Damp=F
 DIIS: error= 2.13D-07 at cycle  15 NSaved=  15.
 NSaved=15 IEnMin=15 EnMin= -2481.10485737632     IErMin=15 ErrMin= 2.13D-07
 ErrMax= 2.13D-07  0.00D+00 EMaxC= 1.00D-01 BMatC= 8.66D-11 BMatP= 6.09D-10
 IDIUse=1 WtCom= 1.00D+00 WtEn= 0.00D+00
 Coeff-Com: -0.356D-07-0.139D-06-0.461D-05 0.253D-05-0.269D-04-0.119D-03
 Coeff-Com: -0.122D-03 0.461D-04 0.925D-03 0.283D-02 0.242D-01 0.622D-01
 Coeff-Com:  0.177D+00 0.329D+00 0.404D+00
 Coeff:     -0.356D-07-0.139D-06-0.461D-05 0.253D-05-0.269D-04-0.119D-03
 Coeff:     -0.122D-03 0.461D-04 0.925D-03 0.283D-02 0.242D-01 0.622D-01
 Coeff:      0.177D+00 0.329D+00 0.404D+00
 Gap=     0.072 Goal=   None    Shift=    0.000
 RMSDP=9.32D-09 MaxDP=1.75D-06 DE=-4.18D-10 OVMax= 2.29D-06

 Cycle  16  Pass 1  IDiag  1:
 RMSU=  5.79D-09    CP:  9.40D-01  5.30D-01  5.53D-01  4.10D-01  5.97D-01
                    CP:  8.61D-01  5.06D-01  7.74D-01  8.60D-01  8.05D-01
                    CP:  8.73D-01  9.57D-01  8.60D-01  8.54D-01  7.32D-01
 E= -2481.10485737650     Delta-E=       -0.000000000184 Rises=F Damp=F
 DIIS: error= 1.02D-07 at cycle  16 NSaved=  16.
 NSaved=16 IEnMin=16 EnMin= -2481.10485737650     IErMin=16 ErrMin= 1.02D-07
 ErrMax= 1.02D-07  0.00D+00 EMaxC= 1.00D-01 BMatC= 1.75D-11 BMatP= 8.66D-11
 IDIUse=1 WtCom= 1.00D+00 WtEn= 0.00D+00
 Coeff-Com: -0.426D-07-0.244D-06-0.152D-05 0.105D-05-0.105D-04-0.230D-04
 Coeff-Com: -0.195D-04 0.593D-05-0.652D-05-0.196D-04 0.490D-02 0.154D-01
 Coeff-Com:  0.595D-01 0.139D+00 0.314D+00 0.467D+00
 Coeff:     -0.426D-07-0.244D-06-0.152D-05 0.105D-05-0.105D-04-0.230D-04
 Coeff:     -0.195D-04 0.593D-05-0.652D-05-0.196D-04 0.490D-02 0.154D-01
 Coeff:      0.595D-01 0.139D+00 0.314D+00 0.467D+00
 Gap=     0.072 Goal=   None    Shift=    0.000
 RMSDP=4.00D-09 MaxDP=6.51D-07 DE=-1.84D-10 OVMax= 9.14D-07

 Error on total polarization charges =  0.08737
 SCF Done:  E(RB97D3) =  -2481.10485738     A.U. after   16 cycles
            NFock= 16  Conv=0.40D-08     -V/T= 2.0048
 KE= 2.469267178534D+03 PE=-2.341235287033D+04 EE= 9.636588579656D+03
 SMD-CDS (non-electrostatic) energy       (kcal/mol) =      -9.70
 (included in total energy above)
 Leave Link  502 at Tue Jun 28 19:33:50 2022, MaxMem=  5242880000 cpu:     48494.9
 (Enter /opt/nce/packages/global/g09/l801.exe)
 DoSCS=F DFT=T ScalE2(SS,OS)=  1.000000  1.000000
 ExpMin= 9.52D-02 ExpMax= 1.97D+04 ExpMxC= 6.73D+02 IAcc=3 IRadAn=         5 AccDes= 0.00D+00
 HarFok:  IExCor=  205 AccDes= 0.00D+00 IRadAn=         5 IDoV=-2 UseB2=F ITyADJ=14
 ICtDFT= 12500011 ScaDFX=  1.000000  1.000000  1.000000  1.000000
 Largest valence mixing into a core orbital is  5.68D-05
 Largest core mixing into a valence orbital is  2.52D-05
 Range of M.O.s used for correlation:    63  2113
 NBasis=  2114 NAE=   205 NBE=   205 NFC=    62 NFV=     0
 NROrb=   2051 NOA=   143 NOB=   143 NVA=  1908 NVB=  1908

 **** Warning!!: The largest alpha MO coefficient is  0.54510010D+02


 **** Warning!!: The smallest alpha delta epsilon is  0.72319066D-01

 Leave Link  801 at Tue Jun 28 19:33:51 2022, MaxMem=  5242880000 cpu:         8.6
 (Enter /opt/nce/packages/global/g09/l914.exe)
 RHF ground state
 MDV=  5242880000 DFT=T DoStab=F Mixed=F DoRPA=T DoScal=T NonHer=F
 Would need an additional       2554803000000 words for in-memory AO integral storage.
 NEqPCM:  Using non-equilibrium solvation (IEInf=1, Eps=  35.6880, EpsInf=   1.8069)
 Inv3:  Mode=1 IEnd=   149954700.
 Iteration    1 A*A^-1 deviation from unit magnitude is 1.09D-14 for   7058.
 Iteration    1 A*A^-1 deviation from orthogonality  is 3.55D-15 for   5114    640.
 Iteration    1 A^-1*A deviation from unit magnitude is 1.04D-14 for   7058.
 Iteration    1 A^-1*A deviation from orthogonality  is 3.10D-15 for   4223   4155.
 Making orbital integer symmetry assigments:
 Orbital symmetries:
       Occupied  (A) (A) (A) (A) (A) (A) (A) (A) (A) (A) (A) (A)
                 (A) (A) (A) (A) (A) (A) (A) (A) (A) (A) (A) (A)
                 (A) (A) (A) (A) (A) (A) (A) (A) (A) (A) (A) (A)
                 (A) (A) (A) (A) (A) (A) (A) (A) (A) (A) (A) (A)
                 (A) (A) (A) (A) (A) (A) (A) (A) (A) (A) (A) (A)
                 (A) (A) (A) (A) (A) (A) (A) (A) (A) (A) (A) (A)
                 (A) (A) (A) (A) (A) (A) (A) (A) (A) (A) (A) (A)
                 (A) (A) (A) (A) (A) (A) (A) (A) (A) (A) (A) (A)
                 (A) (A) (A) (A) (A) (A) (A) (A) (A) (A) (A) (A)
                 (A) (A) (A) (A) (A) (A) (A) (A) (A) (A) (A) (A)
                 (A) (A) (A) (A) (A) (A) (A) (A) (A) (A) (A) (A)
                 (A) (A) (A) (A) (A) (A) (A) (A) (A) (A) (A) (A)
                 (A) (A) (A) (A) (A) (A) (A) (A) (A) (A) (A) (A)
                 (A) (A) (A) (A) (A) (A) (A) (A) (A) (A) (A) (A)
                 (A) (A) (A) (A) (A) (A) (A) (A) (A) (A) (A) (A)
                 (A) (A) (A) (A) (A) (A) (A) (A) (A) (A) (A) (A)
                 (A) (A) (A) (A) (A) (A) (A) (A) (A) (A) (A) (A)
                 (A)
       Virtual   (A) (A) (A) (A) (A) (A) (A) (A) (A) (A) (A) (A)
                 (A) (A) (A) (A) (A) (A) (A) (A) (A) (A) (A) (A)
                 (A) (A) (A) (A) (A) (A) (A) (A) (A) (A) (A) (A)
                 (A) (A) (A) (A) (A) (A) (A) (A) (A) (A) (A) (A)
                 (A) (A) (A) (A) (A) (A) (A) (A) (A) (A) (A) (A)
                 (A) (A) (A) (A) (A) (A) (A) (A) (A) (A) (A) (A)
                 (A) (A) (A) (A) (A) (A) (A) (A) (A) (A) (A) (A)
                 (A) (A) (A) (A) (A) (A) (A) (A) (A) (A) (A) (A)
                 (A) (A) (A) (A) (A) (A) (A) (A) (A) (A) (A) (A)
                 (A) (A) (A) (A) (A) (A) (A) (A) (A) (A) (A) (A)
                 (A) (A) (A) (A) (A) (A) (A) (A) (A) (A) (A) (A)
                 (A) (A) (A) (A) (A) (A) (A) (A) (A) (A) (A) (A)
                 (A) (A) (A) (A) (A) (A) (A) (A) (A) (A) (A) (A)
                 (A) (A) (A) (A) (A) (A) (A) (A) (A) (A) (A) (A)
                 (A) (A) (A) (A) (A) (A) (A) (A) (A) (A) (A) (A)
                 (A) (A) (A) (A) (A) (A) (A) (A) (A) (A) (A) (A)
                 (A) (A) (A) (A) (A) (A) (A) (A) (A) (A) (A) (A)
                 (A) (A) (A) (A) (A) (A) (A) (A) (A) (A) (A) (A)
                 (A) (A) (A) (A) (A) (A) (A) (A) (A) (A) (A) (A)
                 (A) (A) (A) (A) (A) (A) (A) (A) (A) (A) (A) (A)
                 (A) (A) (A) (A) (A) (A) (A) (A) (A) (A) (A) (A)
                 (A) (A) (A) (A) (A) (A) (A) (A) (A) (A) (A) (A)
                 (A) (A) (A) (A) (A) (A) (A) (A) (A) (A) (A) (A)
                 (A) (A) (A) (A) (A) (A) (A) (A) (A) (A) (A) (A)
                 (A) (A) (A) (A) (A) (A) (A) (A) (A) (A) (A) (A)
                 (A) (A) (A) (A) (A) (A) (A) (A) (A) (A) (A) (A)
                 (A) (A) (A) (A) (A) (A) (A) (A) (A) (A) (A) (A)
                 (A) (A) (A) (A) (A) (A) (A) (A) (A) (A) (A) (A)
                 (A) (A) (A) (A) (A) (A) (A) (A) (A) (A) (A) (A)
                 (A) (A) (A) (A) (A) (A) (A) (A) (A) (A) (A) (A)
                 (A) (A) (A) (A) (A) (A) (A) (A) (A) (A) (A) (A)
                 (A) (A) (A) (A) (A) (A) (A) (A) (A) (A) (A) (A)
                 (A) (A) (A) (A) (A) (A) (A) (A) (A) (A) (A) (A)
                 (A) (A) (A) (A) (A) (A) (A) (A) (A) (A) (A) (A)
                 (A) (A) (A) (A) (A) (A) (A) (A) (A) (A) (A) (A)
                 (A) (A) (A) (A) (A) (A) (A) (A) (A) (A) (A) (A)
                 (A) (A) (A) (A) (A) (A) (A) (A) (A) (A) (A) (A)
                 (A) (A) (A) (A) (A) (A) (A) (A) (A) (A) (A) (A)
                 (A) (A) (A) (A) (A) (A) (A) (A) (A) (A) (A) (A)
                 (A) (A) (A) (A) (A) (A) (A) (A) (A) (A) (A) (A)
                 (A) (A) (A) (A) (A) (A) (A) (A) (A) (A) (A) (A)
                 (A) (A) (A) (A) (A) (A) (A) (A) (A) (A) (A) (A)
                 (A) (A) (A) (A) (A) (A) (A) (A) (A) (A) (A) (A)
                 (A) (A) (A) (A) (A) (A) (A) (A) (A) (A) (A) (A)
                 (A) (A) (A) (A) (A) (A) (A) (A) (A) (A) (A) (A)
                 (A) (A) (A) (A) (A) (A) (A) (A) (A) (A) (A) (A)
                 (A) (A) (A) (A) (A) (A) (A) (A) (A) (A) (A) (A)
                 (A) (A) (A) (A) (A) (A) (A) (A) (A) (A) (A) (A)
                 (A) (A) (A) (A) (A) (A) (A) (A) (A) (A) (A) (A)
                 (A) (A) (A) (A) (A) (A) (A) (A) (A) (A) (A) (A)
                 (A) (A) (A) (A) (A) (A) (A) (A) (A) (A) (A) (A)
                 (A) (A) (A) (A) (A) (A) (A) (A) (A) (A) (A) (A)
                 (A) (A) (A) (A) (A) (A) (A) (A) (A) (A) (A) (A)
                 (A) (A) (A) (A) (A) (A) (A) (A) (A) (A) (A) (A)
                 (A) (A) (A) (A) (A) (A) (A) (A) (A) (A) (A) (A)
                 (A) (A) (A) (A) (A) (A) (A) (A) (A) (A) (A) (A)
                 (A) (A) (A) (A) (A) (A) (A) (A) (A) (A) (A) (A)
                 (A) (A) (A) (A) (A) (A) (A) (A) (A) (A) (A) (A)
                 (A) (A) (A) (A) (A) (A) (A) (A) (A) (A) (A) (A)
                 (A) (A) (A) (A) (A) (A) (A) (A) (A) (A) (A) (A)
                 (A) (A) (A) (A) (A) (A) (A) (A) (A) (A) (A) (A)
                 (A) (A) (A) (A) (A) (A) (A) (A) (A) (A) (A) (A)
                 (A) (A) (A) (A) (A) (A) (A) (A) (A) (A) (A) (A)
                 (A) (A) (A) (A) (A) (A) (A) (A) (A) (A) (A) (A)
                 (A) (A) (A) (A) (A) (A) (A) (A) (A) (A) (A) (A)
                 (A) (A) (A) (A) (A) (A) (A) (A) (A) (A) (A) (A)
                 (A) (A) (A) (A) (A) (A) (A) (A) (A) (A) (A) (A)
                 (A) (A) (A) (A) (A) (A) (A) (A) (A) (A) (A) (A)
                 (A) (A) (A) (A) (A) (A) (A) (A) (A) (A) (A) (A)
                 (A) (A) (A) (A) (A) (A) (A) (A) (A) (A) (A) (A)
                 (A) (A) (A) (A) (A) (A) (A) (A) (A) (A) (A) (A)
                 (A) (A) (A) (A) (A) (A) (A) (A) (A) (A) (A) (A)
                 (A) (A) (A) (A) (A) (A) (A) (A) (A) (A) (A) (A)
                 (A) (A) (A) (A) (A) (A) (A) (A) (A) (A) (A) (A)
                 (A) (A) (A) (A) (A) (A) (A) (A) (A) (A) (A) (A)
                 (A) (A) (A) (A) (A) (A) (A) (A) (A) (A) (A) (A)
                 (A) (A) (A) (A) (A) (A) (A) (A) (A) (A) (A) (A)
                 (A) (A) (A) (A) (A) (A) (A) (A) (A) (A) (A) (A)
                 (A) (A) (A) (A) (A) (A) (A) (A) (A) (A) (A) (A)
                 (A) (A) (A) (A) (A) (A) (A) (A) (A) (A) (A) (A)
                 (A) (A) (A) (A) (A) (A) (A) (A) (A) (A) (A) (A)
                 (A) (A) (A) (A) (A) (A) (A) (A) (A) (A) (A) (A)
                 (A) (A) (A) (A) (A) (A) (A) (A) (A) (A) (A) (A)
                 (A) (A) (A) (A) (A) (A) (A) (A) (A) (A) (A) (A)
                 (A) (A) (A) (A) (A) (A) (A) (A) (A) (A) (A) (A)
                 (A) (A) (A) (A) (A) (A) (A) (A) (A) (A) (A) (A)
                 (A) (A) (A) (A) (A) (A) (A) (A) (A) (A) (A) (A)
                 (A) (A) (A) (A) (A) (A) (A) (A) (A) (A) (A) (A)
                 (A) (A) (A) (A) (A) (A) (A) (A) (A) (A) (A) (A)
                 (A) (A) (A) (A) (A) (A) (A) (A) (A) (A) (A) (A)
                 (A) (A) (A) (A) (A) (A) (A) (A) (A) (A) (A) (A)
                 (A) (A) (A) (A) (A) (A) (A) (A) (A) (A) (A) (A)
                 (A) (A) (A) (A) (A) (A) (A) (A) (A) (A) (A) (A)
                 (A) (A) (A) (A) (A) (A) (A) (A) (A) (A) (A) (A)
                 (A) (A) (A) (A) (A) (A) (A) (A) (A) (A) (A) (A)
                 (A) (A) (A) (A) (A) (A) (A) (A) (A) (A) (A) (A)
                 (A) (A) (A) (A) (A) (A) (A) (A) (A) (A) (A) (A)
                 (A) (A) (A) (A) (A) (A) (A) (A) (A) (A) (A) (A)
                 (A) (A) (A) (A) (A) (A) (A) (A) (A) (A) (A) (A)
                 (A) (A) (A) (A) (A) (A) (A) (A) (A) (A) (A) (A)
                 (A) (A) (A) (A) (A) (A) (A) (A) (A) (A) (A) (A)
                 (A) (A) (A) (A) (A) (A) (A) (A) (A) (A) (A) (A)
                 (A) (A) (A) (A) (A) (A) (A) (A) (A) (A) (A) (A)
                 (A) (A) (A) (A) (A) (A) (A) (A) (A) (A) (A) (A)
                 (A) (A) (A) (A) (A) (A) (A) (A) (A) (A) (A) (A)
                 (A) (A) (A) (A) (A) (A) (A) (A) (A) (A) (A) (A)
                 (A) (A) (A) (A) (A) (A) (A) (A) (A) (A) (A) (A)
                 (A) (A) (A) (A) (A) (A) (A) (A) (A) (A) (A) (A)
                 (A) (A) (A) (A) (A) (A) (A) (A) (A) (A) (A) (A)
                 (A) (A) (A) (A) (A) (A) (A) (A) (A) (A) (A) (A)
                 (A) (A) (A) (A) (A) (A) (A) (A) (A) (A) (A) (A)
                 (A) (A) (A) (A) (A) (A) (A) (A) (A) (A) (A) (A)
                 (A) (A) (A) (A) (A) (A) (A) (A) (A) (A) (A) (A)
                 (A) (A) (A) (A) (A) (A) (A) (A) (A) (A) (A) (A)
                 (A) (A) (A) (A) (A) (A) (A) (A) (A) (A) (A) (A)
                 (A) (A) (A) (A) (A) (A) (A) (A) (A) (A) (A) (A)
                 (A) (A) (A) (A) (A) (A) (A) (A) (A) (A) (A) (A)
                 (A) (A) (A) (A) (A) (A) (A) (A) (A) (A) (A) (A)
                 (A) (A) (A) (A) (A) (A) (A) (A) (A) (A) (A) (A)
                 (A) (A) (A) (A) (A) (A) (A) (A) (A) (A) (A) (A)
                 (A) (A) (A) (A) (A) (A) (A) (A) (A) (A) (A) (A)
                 (A) (A) (A) (A) (A) (A) (A) (A) (A) (A) (A) (A)
                 (A) (A) (A) (A) (A) (A) (A) (A) (A) (A) (A) (A)
                 (A) (A) (A) (A) (A) (A) (A) (A) (A) (A) (A) (A)
                 (A) (A) (A) (A) (A) (A) (A) (A) (A) (A) (A) (A)
                 (A) (A) (A) (A) (A) (A) (A) (A) (A) (A) (A) (A)
                 (A) (A) (A) (A) (A) (A) (A) (A) (A) (A) (A) (A)
                 (A) (A) (A) (A) (A) (A) (A) (A) (A) (A) (A) (A)
                 (A) (A) (A) (A) (A) (A) (A) (A) (A) (A) (A) (A)
                 (A) (A) (A) (A) (A) (A) (A) (A) (A) (A) (A) (A)
                 (A) (A) (A) (A) (A) (A) (A) (A) (A) (A) (A) (A)
                 (A) (A) (A) (A) (A) (A) (A) (A) (A) (A) (A) (A)
                 (A) (A) (A) (A) (A) (A) (A) (A) (A) (A) (A) (A)
                 (A) (A) (A) (A) (A) (A) (A) (A) (A) (A) (A) (A)
                 (A) (A) (A) (A) (A) (A) (A) (A) (A) (A) (A) (A)
                 (A) (A) (A) (A) (A) (A) (A) (A) (A) (A) (A) (A)
                 (A) (A) (A) (A) (A) (A) (A) (A) (A) (A) (A) (A)
                 (A) (A) (A) (A) (A) (A) (A) (A) (A) (A) (A) (A)
                 (A) (A) (A) (A) (A) (A) (A) (A) (A) (A) (A) (A)
                 (A) (A) (A) (A) (A) (A) (A) (A) (A) (A) (A) (A)
                 (A) (A) (A) (A) (A) (A) (A) (A) (A) (A) (A) (A)
                 (A) (A) (A) (A) (A) (A) (A) (A) (A) (A) (A) (A)
                 (A) (A) (A) (A) (A) (A) (A) (A) (A) (A) (A) (A)
                 (A) (A) (A) (A) (A) (A) (A) (A) (A) (A) (A) (A)
                 (A) (A) (A) (A) (A) (A) (A) (A) (A) (A) (A) (A)
                 (A) (A) (A) (A) (A) (A) (A) (A) (A) (A) (A) (A)
                 (A) (A) (A) (A) (A) (A) (A) (A) (A) (A) (A) (A)
                 (A) (A) (A) (A) (A) (A) (A) (A) (A) (A) (A) (A)
                 (A) (A) (A) (A) (A) (A) (A) (A) (A) (A) (A) (A)
                 (A) (A) (A) (A) (A) (A) (A) (A) (A) (A) (A) (A)
                 (A) (A) (A) (A) (A) (A) (A) (A) (A) (A) (A) (A)
                 (A) (A) (A) (A) (A) (A) (A) (A) (A) (A) (A) (A)
                 (A) (A) (A) (A) (A) (A) (A) (A) (A) (A) (A) (A)
                 (A) (A) (A) (A) (A) (A) (A) (A) (A) (A) (A) (A)
                 (A) (A) (A) (A) (A) (A) (A) (A) (A) (A) (A) (A)
                 (A) (A) (A) (A) (A) (A) (A) (A) (A) (A) (A) (A)
                 (A) (A) (A) (A) (A) (A) (A) (A) (A) (A) (A) (A)
                 (A) (A) (A) (A) (A) (A) (A) (A) (A) (A) (A) (A)
                 (A) (A) (A) (A) (A) (A) (A) (A) (A) (A) (A) (A)
   200 initial guesses have been made.
 Convergence on wavefunction:    0.001000000000000
 Davidson Disk Diagonalization:  ConvIn= 1.00D-03 SkipCon=T Conv= 1.00D-03.
 Max sub-space:   800 roots to seek:   200 dimension of matrix:       545688
 Iteration     1 Dimension   200 NMult     0 NNew    200
 CISAX will form    60 AO SS matrices at one time.
 NMat=    60 NSing=    60 JSym2X= 0.
 FoFJK:  IHMeth= 1 ICntrl=     500 DoSepK=F KAlg= 0 I1Cent=   0 FoldK=F
 IRaf=         0 NMat=  60 IRICut=       1 DoRegI=T DoRafI=F ISym2E= 0.
 NMat=    60 NSing=    60 JSym2X= 0.
 NMat=    60 NSing=    60 JSym2X= 0.
 NMat=    20 NSing=    20 JSym2X= 0.
 New state      3 was old state      4
 New state      4 was old state      3
 New state      5 was old state      7
 New state      7 was old state      8
 New state      8 was old state      5
 New state     11 was old state     12
 New state     12 was old state     13
 New state     13 was old state     15
 New state     15 was old state     11
 New state     18 was old state     19
 New state     19 was old state     18
 New state     21 was old state     22
 New state     22 was old state     21
 New state     23 was old state     24
 New state     24 was old state     23
 New state     26 was old state     27
 New state     27 was old state     26
 New state     28 was old state     33
 New state     30 was old state     31
 New state     31 was old state     34
 New state     32 was old state     37
 New state     33 was old state     32
 New state     34 was old state     38
 New state     35 was old state     39
 New state     36 was old state     41
 New state     37 was old state     40
 New state     38 was old state     43
 New state     39 was old state     45
 New state     40 was old state     52
 New state     41 was old state     46
 New state     42 was old state     48
 New state     43 was old state     47
 New state     44 was old state     42
 New state     45 was old state     51
 New state     46 was old state     53
 New state     47 was old state     54
 New state     48 was old state     56
 New state     49 was old state     55
 New state     50 was old state     59
 Excitation Energies [eV] at current iteration:
 Root      1 :     2.064294807375625
 Root      2 :     2.233269260728610
 Root      3 :     2.245426988909616
 Root      4 :     2.315058360078483
 Root      5 :     2.401726386443646
 Root      6 :     2.445791994766963
 Root      7 :     2.452843827474325
 Root      8 :     2.457514982590161
 Root      9 :     2.522307142839009
 Root     10 :     2.587145659355191
 Root     11 :     2.665591539059576
 Root     12 :     2.733264376901874
 Root     13 :     2.745299434176383
 Root     14 :     2.794537162160078
 Root     15 :     2.876822993531990
 Root     16 :     2.882296291222934
 Root     17 :     3.155548933416022
 Root     18 :     3.260393469342935
 Root     19 :     3.268815714744338
 Root     20 :     3.280433629082000
 Root     21 :     3.290844553645964
 Root     22 :     3.301453592025207
 Root     23 :     3.355212422602954
 Root     24 :     3.401525298266658
 Root     25 :     3.443349629106618
 Root     26 :     3.473293223775548
 Root     27 :     3.493327760552858
 Root     28 :     3.494876889114340
 Root     29 :     3.503241916815484
 Root     30 :     3.521890354290701
 Root     31 :     3.525516082067688
 Root     32 :     3.553951314724637
 Root     33 :     3.561510507376582
 Root     34 :     3.576073159588117
 Root     35 :     3.586102584742296
 Root     36 :     3.594767511689554
 Root     37 :     3.607196844108118
 Root     38 :     3.674482673072023
 Root     39 :     3.679957000308137
 Root     40 :     3.681724917552522
 Root     41 :     3.696176860004354
 Root     42 :     3.696817012345002
 Root     43 :     3.704680476033464
 Root     44 :     3.713899196530377
 Root     45 :     3.733248954149077
 Root     46 :     3.758584770565158
 Root     47 :     3.761471147572286
 Root     48 :     3.777079905896352
 Root     49 :     3.868302585689729
 Root     50 :     3.889842685094397
 Root     51 :     3.909896826338851
 Root     52 :     3.946013480210286
 Root     53 :     3.952892199405176
 Root     54 :     3.995922910644732
 Root     55 :     4.004650440085274
 Root     56 :     4.023652905506181
 Root     57 :     4.030005447764061
 Root     58 :     4.060938099486147
 Root     59 :     4.110838645496777
 Root     60 :     4.160122437412753
 Root     61 :     4.189465814035543
 Root     62 :     4.201089496126929
 Root     63 :     4.204140506399938
 Root     64 :     4.211674630378801
 Root     65 :     4.225378274839763
 Root     66 :     4.240261896943195
 Root     67 :     4.244273308165171
 Root     68 :     4.271708584030915
 Root     69 :     4.286447049608738
 Root     70 :     4.301307183114216
 Root     71 :     4.308135358003761
 Root     72 :     4.330953846716993
 Root     73 :     4.340467419988999
 Root     74 :     4.346773598460207
 Root     75 :     4.348848952701190
 Root     76 :     4.357988394714615
 Root     77 :     4.358603804645908
 Root     78 :     4.366326589011514
 Root     79 :     4.371464346483515
 Root     80 :     4.380073179291921
 Root     81 :     4.383488406454097
 Root     82 :     4.387885403890587
 Root     83 :     4.402456603872370
 Root     84 :     4.406971389576959
 Root     85 :     4.408990829570567
 Root     86 :     4.416350475529416
 Root     87 :     4.422060157383257
 Root     88 :     4.453289534950725
 Root     89 :     4.458374896103452
 Root     90 :     4.460846014103752
 Root     91 :     4.474102426619947
 Root     92 :     4.482537093315758
 Root     93 :     4.486731360643962
 Root     94 :     4.495670703357229
 Root     95 :     4.503879338659502
 Root     96 :     4.510494326483363
 Root     97 :     4.515889932056571
 Root     98 :     4.525449712328638
 Root     99 :     4.530471427412736
 Root    100 :     4.536894505374762
 Root    101 :     4.539419398540105
 Root    102 :     4.544035868698819
 Root    103 :     4.544711133222243
 Root    104 :     4.555709037735637
 Root    105 :     4.561429633332253
 Root    106 :     4.573908854116477
 Root    107 :     4.575116738318425
 Root    108 :     4.581851781690117
 Root    109 :     4.585766277614239
 Root    110 :     4.590155678830823
 Root    111 :     4.602665856163241
 Root    112 :     4.604605490040357
 Root    113 :     4.607164912205880
 Root    114 :     4.614828050517943
 Root    115 :     4.632807347937704
 Root    116 :     4.649292050364895
 Root    117 :     4.656114279382042
 Root    118 :     4.665172347279805
 Root    119 :     4.672836266169647
 Root    120 :     4.680032392112036
 Root    121 :     4.704026023475320
 Root    122 :     4.709606561390045
 Root    123 :     4.712483548662314
 Root    124 :     4.713503801772097
 Root    125 :     4.730144862498628
 Root    126 :     4.741570477779642
 Root    127 :     4.746270177493779
 Root    128 :     4.812515759347347
 Root    129 :     4.820784780421277
 Root    130 :     4.831551188386243
 Root    131 :     4.834971811124445
 Root    132 :     4.860649128338995
 Root    133 :     4.871086219867356
 Root    134 :     4.882602715610409
 Root    135 :     4.913338356299624
 Root    136 :     4.917055020268404
 Root    137 :     4.917636892604877
 Root    138 :     4.934426713018002
 Root    139 :     4.948342512402954
 Root    140 :     4.951974255589236
 Root    141 :     4.962463598659252
 Root    142 :     4.985399296411682
 Root    143 :     4.993220625281094
 Root    144 :     4.997212613184266
 Root    145 :     5.013453737696715
 Root    146 :     5.019047910495434
 Root    147 :     5.026614375924624
 Root    148 :     5.035515183981911
 Root    149 :     5.053242375870706
 Root    150 :     5.059127825809616
 Root    151 :     5.060579845190795
 Root    152 :     5.064126896811993
 Root    153 :     5.071241169669171
 Root    154 :     5.075091204162831
 Root    155 :     5.087584079131937
 Root    156 :     5.090852360559897
 Root    157 :     5.091357408280722
 Root    158 :     5.093520662061161
 Root    159 :     5.100983362639226
 Root    160 :     5.102663778535795
 Root    161 :     5.106227525847946
 Root    162 :     5.114653779921728
 Root    163 :     5.132739860820637
 Root    164 :     5.146021224499600
 Root    165 :     5.151158025565285
 Root    166 :     5.162762565266563
 Root    167 :     5.163364003998019
 Root    168 :     5.165453804335844
 Root    169 :     5.170458308261582
 Root    170 :     5.171705695436008
 Root    171 :     5.178813670310239
 Root    172 :     5.187245689794497
 Root    173 :     5.190011153735940
 Root    174 :     5.234133395367402
 Root    175 :     5.243761490996029
 Root    176 :     5.259730975127240
 Root    177 :     5.280039220356180
 Root    178 :     5.287208924863472
 Root    179 :     5.316314732974945
 Root    180 :     5.399622339714828
 Root    181 :     5.407758563814020
 Root    182 :     5.505981380582774
 Root    183 :     5.520707629757568
 Root    184 :     5.592281661491533
 Root    185 :     5.640597501052904
 Root    186 :     5.645286854716935
 Root    187 :     5.715128299962013
 Root    188 :     5.750375840345312
 Root    189 :     5.790894898009767
 Root    190 :     5.905795131906087
 Root    191 :     6.028703306608076
 Root    192 :     6.081690115670374
 Root    193 :     6.249280134006039
 Root    194 :     6.406410586841896
 Root    195 :     6.522440762290191
 Root    196 :     6.595888073361973
 Root    197 :     6.685642831616128
 Root    198 :     6.916710879471893
 Root    199 :     7.114901045654617
 Root    200 :     7.425423803331484
 Iteration     2 Dimension   400 NMult   200 NNew    200
 CISAX will form    60 AO SS matrices at one time.
 NMat=    60 NSing=    60 JSym2X= 0.
 NMat=    60 NSing=    60 JSym2X= 0.
 NMat=    60 NSing=    60 JSym2X= 0.
 NMat=    20 NSing=    20 JSym2X= 0.
 Root      1 not converged, maximum delta is    0.026270095317540
 Root      2 not converged, maximum delta is    0.069273490548093
 Root      3 not converged, maximum delta is    0.039925854717338
 Root      4 not converged, maximum delta is    0.039292802072919
 Root      5 not converged, maximum delta is    0.297567337558186
 Root      6 not converged, maximum delta is    0.141381971213477
 New state      7 was old state      8
 Root      7 not converged, maximum delta is    0.303051538045032
 New state      8 was old state      7
 Root      8 not converged, maximum delta is    0.020221161192618
 Root      9 not converged, maximum delta is    0.066054695984223
 Root     10 not converged, maximum delta is    0.067688107992433
 Root     11 not converged, maximum delta is    0.121160843859358
 New state     12 was old state     13
 Root     12 not converged, maximum delta is    0.270223231813520
 New state     13 was old state     12
 Root     13 not converged, maximum delta is    0.060775657281904
 Root     14 not converged, maximum delta is    0.025844571159735
 Root     15 not converged, maximum delta is    0.190717497623812
 Root     16 not converged, maximum delta is    0.101356406533307
 Root     17 not converged, maximum delta is    0.017316758064009
 Root     18 not converged, maximum delta is    0.010922277328030
 Root     19 not converged, maximum delta is    0.045291005841028
 Root     20 not converged, maximum delta is    0.031101471552609
 Root     21 not converged, maximum delta is    0.020996823718474
 Root     22 not converged, maximum delta is    0.037691144565241
 Root     23 not converged, maximum delta is    0.020272618705812
 Root     24 not converged, maximum delta is    0.083917242703491
 Root     25 not converged, maximum delta is    0.014017173282638
 Root     26 not converged, maximum delta is    0.021981612934770
 Root     27 not converged, maximum delta is    0.123551381695744
 Root     28 not converged, maximum delta is    0.114527823334504
 Root     29 not converged, maximum delta is    0.060251106450240
 Root     30 not converged, maximum delta is    0.020441649324160
 Root     31 not converged, maximum delta is    0.009678779238453
 Root     32 not converged, maximum delta is    0.059312369134962
 Root     33 not converged, maximum delta is    0.077533520285211
 Root     34 not converged, maximum delta is    0.155233815718314
 Root     35 not converged, maximum delta is    0.098394653488675
 Root     36 not converged, maximum delta is    0.213491927944431
 Root     37 not converged, maximum delta is    0.023221669905826
 New state     38 was old state     40
 Root     38 not converged, maximum delta is    0.365063188391998
 New state     39 was old state     38
 Root     39 not converged, maximum delta is    0.049192902397557
 New state     40 was old state     39
 Root     40 not converged, maximum delta is    0.221823171770883
 Root     41 not converged, maximum delta is    0.183685041432612
 Root     42 not converged, maximum delta is    0.059447949782240
 Root     43 not converged, maximum delta is    0.136820216292308
 Root     44 not converged, maximum delta is    0.156080949620154
 Root     45 not converged, maximum delta is    0.038848042562547
 Root     46 not converged, maximum delta is    0.185051604726015
 Root     47 not converged, maximum delta is    0.209621250934888
 New state     48 was old state     55
 Root     48 not converged, maximum delta is    0.156879670616957
 New state     49 was old state     48
 Root     49 not converged, maximum delta is    0.224400805438203
 New state     50 was old state     51
 Root     50 not converged, maximum delta is    0.314680949691230
 Excitation Energies [eV] at current iteration:
 Root      1 :     2.033495901864246   Change is   -0.030798905511379
 Root      2 :     2.221459966344077   Change is   -0.011809294384533
 Root      3 :     2.231705406991703   Change is   -0.013721581917913
 Root      4 :     2.275542343142141   Change is   -0.039516016936342
 Root      5 :     2.387331256135191   Change is   -0.014395130308455
 Root      6 :     2.409739158467198   Change is   -0.036052836299765
 Root      7 :     2.416944641999844   Change is   -0.040570340590317
 Root      8 :     2.442635036491336   Change is   -0.010208790982989
 Root      9 :     2.513281846681433   Change is   -0.009025296157575
 Root     10 :     2.572910174940072   Change is   -0.014235484415119
 Root     11 :     2.629108078693088   Change is   -0.036483460366488
 Root     12 :     2.678527597385442   Change is   -0.066771836790940
 Root     13 :     2.711122268826094   Change is   -0.022142108075780
 Root     14 :     2.784323927118527   Change is   -0.010213235041551
 Root     15 :     2.821958264824832   Change is   -0.054864728707158
 Root     16 :     2.877203606129331   Change is   -0.005092685093603
 Root     17 :     3.152244286532057   Change is   -0.003304646883965
 Root     18 :     3.249858913128636   Change is   -0.010534556214300
 Root     19 :     3.259796782649206   Change is   -0.009018932095131
 Root     20 :     3.271730175384384   Change is   -0.008703453697616
 Root     21 :     3.286534067075415   Change is   -0.004310486570548
 Root     22 :     3.292503568802215   Change is   -0.008950023222992
 Root     23 :     3.345988469431855   Change is   -0.009223953171099
 Root     24 :     3.378678809834100   Change is   -0.022846488432559
 Root     25 :     3.442827778456937   Change is   -0.000521850649681
 Root     26 :     3.472492541864007   Change is   -0.000800681911541
 Root     27 :     3.489822625257595   Change is   -0.003505135295263
 Root     28 :     3.493306801150691   Change is   -0.001570087963649
 Root     29 :     3.501169430413817   Change is   -0.002072486401667
 Root     30 :     3.519253311938476   Change is   -0.002637042352225
 Root     31 :     3.519944394634764   Change is   -0.005571687432924
 Root     32 :     3.551818871674879   Change is   -0.002132443049758
 Root     33 :     3.555504783761177   Change is   -0.006005723615404
 Root     34 :     3.572466901775463   Change is   -0.003606257812655
 Root     35 :     3.577110501400579   Change is   -0.008992083341717
 Root     36 :     3.585013258707265   Change is   -0.009754252982289
 Root     37 :     3.603980212931353   Change is   -0.003216631176765
 Root     38 :     3.642344602763467   Change is   -0.039380314789055
 Root     39 :     3.662976505837102   Change is   -0.011506167234921
 Root     40 :     3.678905391806828   Change is   -0.001051608501309
 Root     41 :     3.685902992505875   Change is   -0.010273867498480
 Root     42 :     3.695404995335160   Change is   -0.001412017009842
 Root     43 :     3.698357871811703   Change is   -0.006322604221762
 Root     44 :     3.707523249046683   Change is   -0.006375947483694
 Root     45 :     3.732474301751364   Change is   -0.000774652397713
 Root     46 :     3.746301842224929   Change is   -0.012282928340229
 Root     47 :     3.748051783769864   Change is   -0.013419363802421
 Root     48 :     3.769785302203450   Change is   -0.234865137881823
 Root     49 :     3.773074340258062   Change is   -0.004005565638289
 Root     50 :     3.783015000496589   Change is   -0.126881825842262
 Root     51 :     3.796252381121902   Change is   -0.093590303972495
 Root     52 :     3.834857731674447   Change is   -0.118034467730729
 Root     53 :     3.853051610074845   Change is   -0.015250975614884
 Root     54 :     3.911890516781276   Change is   -0.034122963429010
 Root     55 :     3.956610383185522   Change is   -0.104327716300624
 Root     56 :     3.957457648218450   Change is   -0.066195257287731
 Root     57 :     3.970801218800471   Change is   -0.025121691844261
 Root     58 :     4.010839318768861   Change is   -0.019166128995199
 Root     59 :     4.092513745442864   Change is   -0.018324900053913
 Root     60 :     4.144955383026568   Change is   -0.015167054386185
 Root     61 :     4.151936203833987   Change is   -0.037529610201556
 Root     62 :     4.163747816345399   Change is   -0.047926814033403
 Root     63 :     4.179921909224829   Change is   -0.024218597175109
 Root     64 :     4.181885437529401   Change is   -0.019204058597527
 Root     65 :     4.186389252680821   Change is   -0.038989022158942
 Root     66 :     4.193445241385909   Change is   -0.114690116617852
 Root     67 :     4.210831967192266   Change is   -0.033441340972906
 Root     68 :     4.229469516947320   Change is   -0.010792379995875
 Root     69 :     4.238342072017812   Change is   -0.108431526442396
 Root     70 :     4.239863278286336   Change is   -0.031845305744578
 Root     71 :     4.245647444020071   Change is   -0.055659739094144
 Root     72 :     4.264349689779712   Change is   -0.022097359829026
 Root     73 :     4.271952739838714   Change is   -0.094373849172799
 Root     74 :     4.310408941142406   Change is   -0.020544905574587
[...]
 Alpha virt. eigenvalues --    3.08547   3.08798   3.08843   3.08963   3.09161
 Alpha virt. eigenvalues --    3.09293   3.09649   3.09791   3.10008   3.10134
 Alpha virt. eigenvalues --    3.10179   3.10487   3.10517   3.11193   3.11317
 Alpha virt. eigenvalues --    3.11352   3.11419   3.11585   3.12120   3.12213
 Alpha virt. eigenvalues --    3.12639   3.12854   3.12952   3.13246   3.13433
 Alpha virt. eigenvalues --    3.13537   3.13891   3.13927   3.14189   3.14270
 Alpha virt. eigenvalues --    3.14435   3.14546   3.14803   3.15197   3.15260
 Alpha virt. eigenvalues --    3.15469   3.15816   3.15986   3.16282   3.16316
 Alpha virt. eigenvalues --    3.16552   3.16759   3.17267   3.17336   3.17363
 Alpha virt. eigenvalues --    3.17758   3.17823   3.18065   3.18289   3.18618
 Alpha virt. eigenvalues --    3.18924   3.19032   3.19407   3.19906   3.20373
 Alpha virt. eigenvalues --    3.20426   3.20670   3.20861   3.21282   3.21315
 Alpha virt. eigenvalues --    3.21982   3.21994   3.22208   3.22563   3.22612
 Alpha virt. eigenvalues --    3.22937   3.23385   3.23416   3.23563   3.23991
 Alpha virt. eigenvalues --    3.24171   3.24243   3.24388   3.24846   3.25011
 Alpha virt. eigenvalues --    3.25131   3.25727   3.25730   3.26151   3.26389
 Alpha virt. eigenvalues --    3.26538   3.26730   3.27058   3.27224   3.27387
 Alpha virt. eigenvalues --    3.27621   3.27657   3.27864   3.28176   3.28238
 Alpha virt. eigenvalues --    3.28529   3.28933   3.28959   3.29088   3.29264
 Alpha virt. eigenvalues --    3.29464   3.29896   3.29975   3.30220   3.30751
 Alpha virt. eigenvalues --    3.30820   3.31247   3.31348   3.31673   3.31825
 Alpha virt. eigenvalues --    3.32115   3.32224   3.32397   3.32446   3.32622
 Alpha virt. eigenvalues --    3.33202   3.33272   3.33859   3.33955   3.34144
 Alpha virt. eigenvalues --    3.34251   3.34363   3.34444   3.34938   3.35152
 Alpha virt. eigenvalues --    3.35309   3.35896   3.35999   3.36160   3.36324
 Alpha virt. eigenvalues --    3.36772   3.36828   3.36955   3.37007   3.37339
 Alpha virt. eigenvalues --    3.37443   3.37773   3.38050   3.38288   3.38777
 Alpha virt. eigenvalues --    3.39098   3.39318   3.39728   3.39735   3.39771
 Alpha virt. eigenvalues --    3.39976   3.40270   3.40598   3.40791   3.41028
 Alpha virt. eigenvalues --    3.41244   3.41525   3.41596   3.41881   3.41936
 Alpha virt. eigenvalues --    3.42112   3.42262   3.42635   3.42700   3.42974
 Alpha virt. eigenvalues --    3.43409   3.43556   3.43760   3.43828   3.43975
 Alpha virt. eigenvalues --    3.44337   3.44404   3.44605   3.44766   3.44828
 Alpha virt. eigenvalues --    3.45249   3.45270   3.45566   3.45947   3.46171
 Alpha virt. eigenvalues --    3.46800   3.47052   3.47245   3.47261   3.47522
 Alpha virt. eigenvalues --    3.47655   3.48111   3.48328   3.48581   3.48621
 Alpha virt. eigenvalues --    3.48747   3.48983   3.49284   3.49324   3.49630
 Alpha virt. eigenvalues --    3.49719   3.50448   3.50554   3.50638   3.50880
 Alpha virt. eigenvalues --    3.50955   3.51274   3.51323   3.51602   3.51960
 Alpha virt. eigenvalues --    3.52045   3.52372   3.52669   3.52883   3.53107
 Alpha virt. eigenvalues --    3.53398   3.53423   3.54085   3.54176   3.54549
 Alpha virt. eigenvalues --    3.54647   3.54957   3.55164   3.55394   3.55853
 Alpha virt. eigenvalues --    3.56010   3.56118   3.56208   3.56417   3.56934
 Alpha virt. eigenvalues --    3.57133   3.57432   3.57739   3.58113   3.58439
 Alpha virt. eigenvalues --    3.58772   3.58882   3.59888   3.60728   3.60896
 Alpha virt. eigenvalues --    3.61673   3.61813   3.62144   3.62365   3.62836
 Alpha virt. eigenvalues --    3.62929   3.63611   3.64245   3.66146   3.66314
 Alpha virt. eigenvalues --    3.66733   3.68081   3.68228   3.69859   3.69922
 Alpha virt. eigenvalues --    3.70710   3.70875   3.71318   3.71901   3.72111
 Alpha virt. eigenvalues --    3.72561   3.72614   3.73020   3.73425   3.73661
 Alpha virt. eigenvalues --    3.74476   3.74562   3.75076   3.75515   3.75937
 Alpha virt. eigenvalues --    3.76003   3.76950   3.77154   3.77701   3.78728
 Alpha virt. eigenvalues --    3.79205   3.79986   3.80123   3.80489   3.80998
 Alpha virt. eigenvalues --    3.81925   3.82203   3.82443   3.83079   3.83695
 Alpha virt. eigenvalues --    3.84021   3.84811   3.85359   3.85464   3.85776
 Alpha virt. eigenvalues --    3.85834   3.86149   3.86348   3.86440   3.86554
 Alpha virt. eigenvalues --    3.87090   3.87441   3.87608   3.87703   3.88399
 Alpha virt. eigenvalues --    3.88433   3.88679   3.88861   3.89425   3.89614
 Alpha virt. eigenvalues --    3.90067   3.90153   3.90235   3.90779   3.91081
 Alpha virt. eigenvalues --    3.91297   3.91593   3.91684   3.92539   3.92608
 Alpha virt. eigenvalues --    3.93508   3.94307   3.94374   3.95342   3.95366
 Alpha virt. eigenvalues --    3.96245   3.96911   3.97338   3.97873   3.98701
 Alpha virt. eigenvalues --    3.99054   3.99701   4.00044   4.00479   4.00651
 Alpha virt. eigenvalues --    4.01108   4.01729   4.01955   4.02347   4.02411
 Alpha virt. eigenvalues --    4.02850   4.02892   4.03503   4.03583   4.04003
 Alpha virt. eigenvalues --    4.04286   4.04352   4.04907   4.05056   4.05423
 Alpha virt. eigenvalues --    4.05733   4.06456   4.06612   4.06636   4.07166
 Alpha virt. eigenvalues --    4.07224   4.07332   4.07438   4.08226   4.08527
 Alpha virt. eigenvalues --    4.08789   4.09116   4.09588   4.09639   4.09843
 Alpha virt. eigenvalues --    4.10030   4.10360   4.10543   4.10688   4.10980
 Alpha virt. eigenvalues --    4.11179   4.11421   4.11661   4.11822   4.12338
 Alpha virt. eigenvalues --    4.12382   4.12506   4.12733   4.12749   4.13000
 Alpha virt. eigenvalues --    4.13285   4.13626   4.13943   4.14254   4.14571
 Alpha virt. eigenvalues --    4.14852   4.15251   4.15453   4.16324   4.16550
 Alpha virt. eigenvalues --    4.17705   4.17920   4.18068   4.18107   4.18171
 Alpha virt. eigenvalues --    4.18587   4.19045   4.19158   4.19630   4.19871
 Alpha virt. eigenvalues --    4.20628   4.20805   4.21162   4.21605   4.21658
 Alpha virt. eigenvalues --    4.22107   4.22308   4.22426   4.22546   4.22921
 Alpha virt. eigenvalues --    4.23202   4.23264   4.24046   4.24159   4.24706
 Alpha virt. eigenvalues --    4.24849   4.25349   4.25748   4.25972   4.26215
 Alpha virt. eigenvalues --    4.26874   4.27525   4.27748   4.28422   4.28520
 Alpha virt. eigenvalues --    4.30772   4.31906   4.31938   4.33257   4.33388
 Alpha virt. eigenvalues --    4.33825   4.34015   4.34574   4.35238   4.35289
 Alpha virt. eigenvalues --    4.35930   4.36740   4.37061   4.37563   4.38330
 Alpha virt. eigenvalues --    4.38684   4.38829   4.40609   4.41315   4.43216
 Alpha virt. eigenvalues --    4.43726   4.44159   4.44853   4.45457   4.45723
 Alpha virt. eigenvalues --    4.45833   4.46298   4.46710   4.47140   4.47296
 Alpha virt. eigenvalues --    4.48077   4.48316   4.49583   4.49793   4.50487
 Alpha virt. eigenvalues --    4.51027   4.51144   4.51409   4.51454   4.52337
 Alpha virt. eigenvalues --    4.53629   4.53894   4.54792   4.56543   4.57235
 Alpha virt. eigenvalues --    4.57367   4.57595   4.59056   4.59750   4.60928
 Alpha virt. eigenvalues --    4.61534   4.62480   4.62622   4.63035   4.63084
 Alpha virt. eigenvalues --    4.63529   4.64154   4.64174   4.64463   4.64812
 Alpha virt. eigenvalues --    4.64867   4.65725   4.66220   4.66598   4.66664
 Alpha virt. eigenvalues --    4.67523   4.67968   4.69001   4.69406   4.69461
 Alpha virt. eigenvalues --    4.69947   4.71031   4.71772   4.71984   4.72391
 Alpha virt. eigenvalues --    4.72895   4.72994   4.74377   4.74889   4.75138
 Alpha virt. eigenvalues --    4.76118   4.76350   4.76680   4.77460   4.78198
 Alpha virt. eigenvalues --    4.78421   4.79419   4.79683   4.79751   4.80700
 Alpha virt. eigenvalues --    4.82231   4.83996   4.84434   4.85287   4.86609
 Alpha virt. eigenvalues --    4.87052   4.87569   4.87952   4.88166   4.88598
 Alpha virt. eigenvalues --    4.89186   4.89821   4.89947   4.91025   4.91095
 Alpha virt. eigenvalues --    4.91653   4.91884   4.93569   4.93780   4.94938
 Alpha virt. eigenvalues --    4.96085   4.96337   4.96783   4.97112   4.97163
 Alpha virt. eigenvalues --    4.97529   4.98343   4.98408   4.99777   5.01855
 Alpha virt. eigenvalues --    5.02240   5.02434   5.03394   5.06108   5.07167
 Alpha virt. eigenvalues --    5.07292   5.08011   5.08528   5.08805   5.09208
 Alpha virt. eigenvalues --    5.09794   5.09844   5.10697   5.10817   5.12269
 Alpha virt. eigenvalues --    5.12389   5.12710   5.13392   5.13953   5.15707
 Alpha virt. eigenvalues --    5.17044   5.17718   5.19425   5.19590   5.20796
 Alpha virt. eigenvalues --    5.21436   5.22595   5.22921   5.24285   5.24413
 Alpha virt. eigenvalues --    5.24851   5.25682   5.25729   5.26825   5.27076
 Alpha virt. eigenvalues --    5.28033   5.28381   5.28403   5.28645   5.28837
 Alpha virt. eigenvalues --    5.31672   5.32850   5.33565   5.34817   5.35266
 Alpha virt. eigenvalues --    5.35456   5.37197   5.39343   5.41651   5.43631
 Alpha virt. eigenvalues --    5.46051   5.47157   5.48541   5.48959   5.49061
 Alpha virt. eigenvalues --    5.50434   5.50622   5.51779   5.51836   5.53083
 Alpha virt. eigenvalues --    5.53302   5.54046   5.54910   5.55867   5.57742
 Alpha virt. eigenvalues --    5.57896   5.60044   5.61298   5.61458   5.62549
 Alpha virt. eigenvalues --    5.64157   5.65581   5.66007   5.67035   5.67739
 Alpha virt. eigenvalues --    5.68760   5.69014   5.69664   5.71741   5.73524
 Alpha virt. eigenvalues --    5.74018   5.76156   5.77309   5.77475   5.79513
 Alpha virt. eigenvalues --    5.82474   5.83059   5.83719   5.85918   5.88115
 Alpha virt. eigenvalues --    5.90066   6.03146   6.04777   6.06342   6.06910
 Alpha virt. eigenvalues --    6.09475   6.17091   6.17823   6.21080   6.21338
 Alpha virt. eigenvalues --    6.25751   6.33997   6.34310   6.35207   6.46543
 Alpha virt. eigenvalues --    6.54029  22.06258  22.10074  22.11831  22.18243
 Alpha virt. eigenvalues --   22.29366  22.30940  22.31442  22.32872  22.40815
 Alpha virt. eigenvalues --   22.41670  22.42265  22.42867  22.44448  22.45592
 Alpha virt. eigenvalues --   22.47537  22.47922  22.49200  22.50081  22.52538
 Alpha virt. eigenvalues --   22.53288  22.54789  22.56305  22.56782  22.57028
 Alpha virt. eigenvalues --   22.58421  22.60914  22.63165  22.64088  22.67039
 Alpha virt. eigenvalues --   22.72928  22.76092  22.76192  22.80346  22.81179
 Alpha virt. eigenvalues --   22.82318  22.83483  22.87216  22.96699  23.01123
 Alpha virt. eigenvalues --   23.02808  23.03362  23.04489  23.06032  23.06163
 Alpha virt. eigenvalues --   23.07217  23.31590  23.32098  23.33141  23.35384
 Alpha virt. eigenvalues --   23.39032  23.56762  23.57792  23.58327  23.59904
 Alpha virt. eigenvalues --   23.60371  23.73597  32.07995  32.09263  33.09666
 Alpha virt. eigenvalues --   33.19561  33.21494  33.37290
          Condensed to atoms (all electrons):
 Mulliken charges:
               1
     1  C    0.011736
     2  C   -0.053942
     3  C    0.009371
     4  C    0.140932
     5  C   -0.019082
     6  C    0.145159
     7  C   -0.210136
     8  C   -0.211093
     9  N   -0.046154
    10  N   -0.046269
    11  N    0.211537
    12  C    0.138482
    13  C    0.004459
    14  C   -0.229001
    15  C    0.090364
    16  C   -0.206821
    17  C    0.060576
    18  C   -0.152671
    19  H    0.131210
    20  C   -0.247760
    21  C   -0.154045
    22  H    0.170866
    23  C   -0.280129
    24  C   -0.126295
    25  H    0.131702
    26  H    0.129245
    27  C   -0.116632
    28  H    0.133137
    29  H    0.128146
    30  H    0.130487
    31  H    0.130948
    32  N    0.369583
    33  C    0.046652
    34  C    0.053843
    35  C   -0.262805
    36  C    0.091881
    37  C   -0.264704
    38  C    0.090223
    39  C   -0.124087
    40  H    0.121485
    41  C   -0.271674
    42  C   -0.123771
    43  H    0.122999
    44  C   -0.270362
    45  C   -0.128749
    46  H    0.131260
    47  H    0.126060
    48  C   -0.130046
    49  H    0.131335
    50  H    0.126073
    51  H    0.129101
    52  H    0.129106
    53  N    0.210476
    54  C    0.009221
    55  C    0.137143
    56  C   -0.205843
    57  C    0.060108
    58  C   -0.228698
    59  C    0.090857
    60  C   -0.155407
    61  H    0.172023
    62  C   -0.279655
    63  C   -0.152130
    64  H    0.130863
    65  C   -0.249084
    66  C   -0.117091
    67  H    0.132979
    68  H    0.128176
    69  C   -0.125604
    70  H    0.131545
    71  H    0.129252
    72  H    0.130899
    73  H    0.130513
    74  N    0.148644
    75  C    0.101536
    76  C    0.100495
    77  C   -0.237403
    78  C    0.051084
    79  C   -0.237236
    80  C    0.053691
    81  C   -0.140071
    82  H    0.144635
    83  C   -0.251166
    84  C   -0.138258
    85  H    0.142004
    86  C   -0.250876
    87  C   -0.127512
    88  H    0.135518
    89  H    0.130170
    90  C   -0.127808
    91  H    0.135844
    92  H    0.130176
    93  H    0.132093
    94  H    0.132168
 Sum of Mulliken charges =  -0.00000
 Mulliken charges with hydrogens summed into heavy atoms:
               1
     1  C    0.011736
     2  C   -0.053942
     3  C    0.009371
     4  C    0.140932
     5  C   -0.019082
     6  C    0.145159
     7  C   -0.210136
     8  C   -0.211093
     9  N   -0.046154
    10  N   -0.046269
    11  N    0.211537
    12  C    0.138482
    13  C    0.004459
    14  C   -0.097791
    15  C    0.090364
    16  C   -0.035955
    17  C    0.060576
    18  C   -0.020969
    20  C   -0.118515
    21  C   -0.020909
    23  C   -0.151983
    24  C    0.004191
    27  C    0.014316
    32  N    0.369583
    33  C    0.046652
    34  C    0.053843
    35  C   -0.141320
    36  C    0.091881
    37  C   -0.141705
    38  C    0.090223
    39  C    0.007172
    41  C   -0.145614
    42  C    0.007564
    44  C   -0.144290
    45  C    0.000353
    48  C   -0.000940
    53  N    0.210476
    54  C    0.009221
    55  C    0.137143
    56  C   -0.033819
    57  C    0.060108
    58  C   -0.097835
    59  C    0.090857
    60  C   -0.022428
    62  C   -0.151479
    63  C   -0.020584
    65  C   -0.119832
    66  C    0.013807
    69  C    0.004909
    74  N    0.148644
    75  C    0.101536
    76  C    0.100495
    77  C   -0.092768
    78  C    0.051084
    79  C   -0.095233
    80  C    0.053691
    81  C   -0.004553
    83  C   -0.120996
    84  C   -0.002414
    86  C   -0.120700
    87  C    0.004582
    90  C    0.004360
 Electronic spatial extent (au):  <R**2>=          34959.3680
 Charge=             -0.0000 electrons
 Dipole moment (field-independent basis, Debye):
    X=              5.3898    Y=             -0.0433    Z=             -0.0022  Tot=              5.3900
 Quadrupole moment (field-independent basis, Debye-Ang):
   XX=           -341.7912   YY=           -353.3746   ZZ=           -343.0599
   XY=              0.0803   XZ=             -0.1532   YZ=            -39.3328
 Traceless Quadrupole moment (field-independent basis, Debye-Ang):
   XX=              4.2840   YY=             -7.2994   ZZ=              3.0153
   XY=              0.0803   XZ=             -0.1532   YZ=            -39.3328
 Octapole moment (field-independent basis, Debye-Ang**2):
  XXX=             13.4888  YYY=             -2.5402  ZZZ=              0.1734  XYY=            178.4233
  XXY=             -0.0368  XXZ=              0.4563  XZZ=             55.3239  YZZ=              0.1508
  YYZ=             -0.8990  XYZ=            118.2045
 Hexadecapole moment (field-independent basis, Debye-Ang**3):
 XXXX=         -22368.9408 YYYY=         -17078.5171 ZZZZ=          -6415.1646 XXXY=             -3.5905
 XXXZ=              0.8964 YYYX=             10.5473 YYYZ=           -650.9047 ZZZX=             -0.1907
 ZZZY=           -292.8524 XXYY=          -7104.2247 XXZZ=          -5012.2837 YYZZ=          -3915.5374
 XXYZ=           -395.7147 YYXZ=             -0.6533 ZZXY=             -0.9625
 N-N= 8.825392254763D+03 E-N=-2.341235289450D+04  KE= 2.469267178534D+03
 Leave Link  601 at Wed Jun 29 14:48:01 2022, MaxMem=  5242880000 cpu:        22.9
 (Enter /opt/nce/packages/global/g09/l9999.exe)
 1\1\GINC-CN081\SP\RB97D3 TD-FC\def2TZVP\C56H32N6\PNG4RJV\29-Jun-2022\0
 \\#p B97D3/def2TZVP td=(NStates=50) int=ultrafine scrf=(SMD,solvent=Ac
 etonitrile)\\Title\\0,1\C,0,-0.16911,1.165849,0.366994\C,0,0.539138,0.
 000706,-0.002415\C,0,-0.180287,-1.156316,-0.377547\C,0,-1.593374,-1.13
 033,-0.407665\C,0,-2.301449,0.012354,0.002127\C,0,-1.582432,1.150877,0
 .403259\C,0,-2.306199,-2.227419,-0.964951\C,0,-2.282708,2.256785,0.958
 681\N,0,-2.892782,-3.110155,-1.439782\N,0,-2.858237,3.147998,1.431219\
 N,0,0.499183,2.339648,0.737573\C,0,1.494635,2.453055,1.725622\C,0,0.41
 4096,3.564544,0.039242\C,0,1.877954,1.536352,2.700428\C,0,2.064533,3.7
 50419,1.645112\C,0,-0.38814,3.912974,-1.044764\C,0,1.380634,4.453384,0
 .57726\C,0,2.899386,1.913535,3.57292\H,0,1.406343,0.564473,2.78364\C,0
 ,3.081295,4.109359,2.536973\C,0,-0.22521,5.191361,-1.581527\H,0,-1.107
 32,3.222452,-1.472069\C,0,1.526613,5.728412,0.019667\C,0,3.501844,3.18
 0528,3.488547\H,0,3.229197,1.210461,4.333329\H,0,3.53017,5.098036,2.48
 8289\C,0,0.717327,6.091316,-1.056159\H,0,-0.841353,5.490447,-2.425487\
 H,0,2.267457,6.417995,0.415933\H,0,4.295553,3.442374,4.183338\H,0,0.81
 8836,7.078609,-1.499038\N,0,1.943384,-0.009153,0.006187\C,0,2.750987,-
 0.86113,0.78141\C,0,2.774594,0.828531,-0.759092\C,0,2.382905,-1.806979
 ,1.734575\C,0,4.112144,-0.567147,0.503147\C,0,2.433878,1.784613,-1.711
 999\C,0,4.127065,0.508846,-0.467383\C,0,3.403651,-2.505125,2.380526\H,
 0,1.345166,-1.992342,1.983675\C,0,5.118811,-1.276221,1.168286\C,0,3.47
 389,2.464719,-2.346342\H,0,1.401991,1.991988,-1.967728\C,0,5.153385,1.
 200543,-1.120518\C,0,4.75664,-2.251365,2.096912\H,0,3.140756,-3.256202
 ,3.120943\H,0,6.165146,-1.062035,0.966136\C,0,4.819015,2.184356,-2.050
 43\H,0,3.232478,3.223354,-3.086353\H,0,6.193459,0.967012,-0.907754\H,0
 ,5.527281,-2.814133,2.617235\H,0,5.605246,2.733827,-2.561544\N,0,0.478
 31,-2.332951,-0.755205\C,0,0.384319,-3.560871,-0.063852\C,0,1.477287,-
 2.446467,-1.739729\C,0,-0.427752,-3.910713,1.011974\C,0,1.350265,-4.45
 1062,-0.60015\C,0,1.866002,-1.528142,-2.710773\C,0,2.042181,-3.74623,-
 1.661751\C,0,-0.27464,-5.192241,1.543923\H,0,-1.147083,-3.217207,1.434
 249\C,0,1.486703,-5.729298,-0.047397\C,0,2.890162,-1.905392,-3.580097\
 H,0,1.395133,-0.555753,-2.795038\C,0,3.061829,-4.105146,-2.550316\C,0,
 0.668148,-6.093546,1.021018\H,0,-0.898681,-5.493241,2.381375\H,0,2.226
 72,-6.420699,-0.442021\C,0,3.489504,-3.173919,-3.496407\H,0,3.224806,-
 1.201177,-4.337369\H,0,3.5077,-5.095231,-2.503042\H,0,0.761859,-7.0835
 86,1.45943\H,0,4.286069,-3.435417,-4.188062\N,0,-3.70144,0.017076,0.00
 8742\C,0,-4.52032,0.855313,-0.76965\C,0,-4.517468,-0.826232,0.784383\C
 ,0,-4.159566,1.820694,-1.707435\C,0,-5.876443,0.542223,-0.487302\C,0,-
 4.153381,-1.788319,1.724229\C,0,-5.874595,-0.52173,0.497963\C,0,-5.191
 603,2.499659,-2.357308\H,0,-3.119958,2.040703,-1.929291\C,0,-6.89188,1
 .235968,-1.156001\C,0,-5.182946,-2.474208,2.370684\H,0,-3.113117,-1.99
 9845,1.950705\C,0,-6.887545,-1.222194,1.163313\C,0,-6.541106,2.215438,
 -2.08433\H,0,-4.941737,3.262548,-3.090116\H,0,-7.935639,1.008861,-0.95
 4859\C,0,-6.533432,-2.19949,2.092667\H,0,-4.930322,-3.234843,3.104867\
 H,0,-7.932126,-1.00217,0.958606\H,0,-7.31897,2.763802,-2.60919\H,0,-7.
 30937,-2.753194,2.614751\\Version=ES64L-G09RevE.01\State=1-A\HF=-2481.
 1048574\RMSD=3.997e-09\PG=C01 [X(C56H32N6)]\\@


 Once you get people laughing, they're
 listening and you can tell them almost anything.
                                 -- Herb Gardner
 Job cpu time:      10 days  3 hours 51 minutes 23.8 seconds.
 File lengths (MBytes):  RWF=  26566 Int=      0 D2E=      0 Chk=   6203 Scr=      1
 Normal termination of Gaussian 09 at Wed Jun 29 14:48:13 2022.
