
                                 *****************
                                 * O   R   C   A *
                                 *****************

                                            #,                                       
                                            ###                                      
                                            ####                                     
                                            #####                                    
                                            ######                                   
                                           ########,                                 
                                     ,,################,,,,,                         
                               ,,#################################,,                 
                          ,,##########################################,,             
                       ,#########################################, ''#####,          
                    ,#############################################,,   '####,        
                  ,##################################################,,,,####,       
                ,###########''''           ''''###############################       
              ,#####''   ,,,,##########,,,,          '''####'''          '####       
            ,##' ,,,,###########################,,,                        '##       
           ' ,,###''''                  '''############,,,                           
         ,,##''                                '''############,,,,        ,,,,,,###''
      ,#''                                            '''#######################'''  
     '                                                          ''''####''''         
             ,#######,   #######,   ,#######,      ##                                
            ,#'     '#,  ##    ##  ,#'     '#,    #''#        ######   ,####,        
            ##       ##  ##   ,#'  ##            #'  '#       #        #'  '#        
            ##       ##  #######   ##           ,######,      #####,   #    #        
            '#,     ,#'  ##    ##  '#,     ,#' ,#      #,         ##   #,  ,#        
             '#######'   ##     ##  '#######'  #'      '#     #####' # '####'        



                  #######################################################
                  #                        -***-                        #
                  #          Department of theory and spectroscopy      #
                  #    Directorship and core code : Frank Neese         #
                  #        Max Planck Institute fuer Kohlenforschung    #
                  #                Kaiser Wilhelm Platz 1               #
                  #                 D-45470 Muelheim/Ruhr               #
                  #                      Germany                        #
                  #                                                     #
                  #                  All rights reserved                #
                  #                        -***-                        #
                  #######################################################


                         Program Version 5.0.2 -  RELEASE  -


 With contributions from (in alphabetic order):
   Daniel Aravena         : Magnetic Suceptibility
   Michael Atanasov       : Ab Initio Ligand Field Theory (pilot matlab implementation)
   Alexander A. Auer      : GIAO ZORA, VPT2 properties, NMR spectrum
   Ute Becker             : Parallelization
   Giovanni Bistoni       : ED, misc. LED, open-shell LED, HFLD
   Martin Brehm           : Molecular dynamics
   Dmytro Bykov           : SCF Hessian
   Vijay G. Chilkuri      : MRCI spin determinant printing, contributions to CSF-ICE
   Dipayan Datta          : RHF DLPNO-CCSD density
   Achintya Kumar Dutta   : EOM-CC, STEOM-CC
   Dmitry Ganyushin       : Spin-Orbit,Spin-Spin,Magnetic field MRCI
   Miquel Garcia          : C-PCM and meta-GGA Hessian, CC/C-PCM, Gaussian charge scheme
   Yang Guo               : DLPNO-NEVPT2, F12-NEVPT2, CIM, IAO-localization
   Andreas Hansen         : Spin unrestricted coupled pair/coupled cluster methods
   Benjamin Helmich-Paris : MC-RPA, TRAH-SCF, COSX integrals
   Lee Huntington         : MR-EOM, pCC
   Robert Izsak           : Overlap fitted RIJCOSX, COSX-SCS-MP3, EOM
   Marcus Kettner         : VPT2
   Christian Kollmar      : KDIIS, OOCD, Brueckner-CCSD(T), CCSD density, CASPT2, CASPT2-K
   Simone Kossmann        : Meta GGA functionals, TD-DFT gradient, OOMP2, MP2 Hessian
   Martin Krupicka        : Initial AUTO-CI
   Lucas Lang             : DCDCAS
   Marvin Lechner         : AUTO-CI (C++ implementation), FIC-MRCC
   Dagmar Lenk            : GEPOL surface, SMD
   Dimitrios Liakos       : Extrapolation schemes; Compound Job, initial MDCI parallelization
   Dimitrios Manganas     : Further ROCIS development; embedding schemes
   Dimitrios Pantazis     : SARC Basis sets
   Anastasios Papadopoulos: AUTO-CI, single reference methods and gradients
   Taras Petrenko         : DFT Hessian,TD-DFT gradient, ASA, ECA, R-Raman, ABS, FL, XAS/XES, NRVS
   Peter Pinski           : DLPNO-MP2, DLPNO-MP2 Gradient
   Christoph Reimann      : Effective Core Potentials
   Marius Retegan         : Local ZFS, SOC
   Christoph Riplinger    : Optimizer, TS searches, QM/MM, DLPNO-CCSD(T), (RO)-DLPNO pert. Triples
   Tobias Risthaus        : Range-separated hybrids, TD-DFT gradient, RPA, STAB
   Michael Roemelt        : Original ROCIS implementation
   Masaaki Saitow         : Open-shell DLPNO-CCSD energy and density
   Barbara Sandhoefer     : DKH picture change effects
   Avijit Sen             : IP-ROCIS
   Kantharuban Sivalingam : CASSCF convergence, NEVPT2, FIC-MRCI
   Bernardo de Souza      : ESD, SOC TD-DFT
   Georgi Stoychev        : AutoAux, RI-MP2 NMR, DLPNO-MP2 response
   Willem Van den Heuvel  : Paramagnetic NMR
   Boris Wezisla          : Elementary symmetry handling
   Frank Wennmohs         : Technical directorship


 We gratefully acknowledge several colleagues who have allowed us to
 interface, adapt or use parts of their codes:
   Stefan Grimme, W. Hujo, H. Kruse, P. Pracht,  : VdW corrections, initial TS optimization,
                  C. Bannwarth, S. Ehlert          DFT functionals, gCP, sTDA/sTD-DF
   Ed Valeev, F. Pavosevic, A. Kumar             : LibInt (2-el integral package), F12 methods
   Garnet Chan, S. Sharma, J. Yang, R. Olivares  : DMRG
   Ulf Ekstrom                                   : XCFun DFT Library
   Mihaly Kallay                                 : mrcc  (arbitrary order and MRCC methods)
   Jiri Pittner, Ondrej Demel                    : Mk-CCSD
   Frank Weinhold                                : gennbo (NPA and NBO analysis)
   Christopher J. Cramer and Donald G. Truhlar   : smd solvation model
   Lars Goerigk                                  : TD-DFT with DH, B97 family of functionals
   V. Asgeirsson, H. Jonsson                     : NEB implementation
   FAccTs GmbH                                   : IRC, NEB, NEB-TS, DLPNO-Multilevel, CI-OPT
                                                   MM, QMMM, 2- and 3-layer-ONIOM, Crystal-QMMM,
                                                   LR-CPCM, SF, NACMEs, symmetry and pop. for TD-DFT,
                                                   nearIR, NL-DFT gradient (VV10), updates on ESD,
                                                   ML-optimized integration grids
   S Lehtola, MJT Oliveira, MAL Marques          : LibXC Library
   Liviu Ungur et al                             : ANISO software


 Your calculation uses the libint2 library for the computation of 2-el integrals
 For citations please refer to: http://libint.valeyev.net

 Your ORCA version has been built with support for libXC version: 5.1.0
 For citations please refer to: https://tddft.org/programs/libxc/

 This ORCA versions uses:
   CBLAS   interface :  Fast vector & matrix operations
   LAPACKE interface :  Fast linear algebra routines
   SCALAPACK package :  Parallel linear algebra routines
   Shared memory     :  Shared parallel matrices
   BLAS/LAPACK       :  OpenBLAS 0.3.15  USE64BITINT DYNAMIC_ARCH NO_AFFINITY Zen SINGLE_THREADED
        Core in use  :  Zen
   Copyright (c) 2011-2014, The OpenBLAS Project


Your calculation utilizes the atom-pairwise dispersion correction
with the Becke-Johnson damping scheme (D3BJ)
Cite in your paper:
S.Grimme, S.Ehrlich, L.Goerigk, J Comput Chem, (2011), 32, 1456–1465 
S.Grimme, J.Antony, S.Ehrlich and H.Krieg, J.Chem.Phys., 132, (2010), 154104 
   

Your calculation utilizes the SMD solvation module
Please cite in your paper:
A.V. Marenich, C.J. Cramer, D.G. Truhlar J. Phys. Chem. B, 113, (2009), 6378 

================================================================================

----- Orbital basis set information -----
Your calculation utilizes the basis: def2-TZVP
   F. Weigend and R. Ahlrichs, Phys. Chem. Chem. Phys. 7, 3297 (2005).

----- AuxJ basis set information -----
Your calculation utilizes the auxiliary basis: def2/J
   F. Weigend, Phys. Chem. Chem. Phys. 8, 1057 (2006).

----- AuxC basis set information -----
Your calculation utilizes the auxiliary basis: def2-TZVP/C
  H-La, Hf-Rn : A. Hellweg, C. Hattig, S. Hofener and W. Klopper, Theor. Chem. Acc. 117, 587 (2007).
        Ce-Lu : J. Chmela and M. E. Harding, Mol. Phys. (2018).

================================================================================
                                        WARNINGS
                       Please study these warnings very carefully!
================================================================================

INFO   : Checking CIS options ...
  ===> : (D) CORRECTION FOUND - SETTING MODE=3
  ===> : JK MODE FOUND - ACTIVATING RI-MP2 CODE
  ===> : MP2 AND CIS FOUND - CHECKING
WARNING: CIS(D) and MP2 runs must have the same orbital window
  ===> : adjusting orbital windows

WARNING: No MP2 level density has been requested!
         To caclulate MP2 level properties use
         %mp2 Density relaxed end
         or
         %mp2 Density unrelaxed end
         Otherwise for double-hybrid DFT only the energy is correct!

WARNING: The frozen-core approximation is turned on by default for 
         the MP2 part of double-hybrid DFT.

WARNING: CIS/ROCIS methods need fully converged wavefunctions
  ===> : Setting SCFConvForced true
         You can overwrite this default with %scf ConvForced false 


INFO   : the flag for use of the SHARK integral package has been found!

================================================================================
                                       INPUT FILE
================================================================================
NAME = CA_1_M06L_def2TZVP_coords.inp
|  1> %maxcore 24000
|  2> %pal
|  3>  nprocs= 8
|  4> end
|  5> ! RI-B2PLYP D3BJ def2-TZVP def2/J def2-TZVP/C RIJCOSX CPCM TightSCF
|  6> %TDDFT DCORR 4
|  7>    NROOTS   60
|  8>   TDA      FALSE
|  9> END 
| 10>  
| 11>  %CPCM 
| 12>    SMD          TRUE 
| 13>    SMDsolvent   "ACETONITRILE" 
| 14>  END 
| 15>  
| 16> 
| 17> * xyz 0 1
| 18> C                   0.13708300   -1.17921300    0.31930200
| 19> C                  -0.55557000   -0.00182600   -0.00879400
| 20> C                   0.17541900    1.14900900   -0.35453000
| 21> C                   1.58092900    1.11156100   -0.37592900
| 22> C                   2.27561400   -0.04695700   -0.00771500
| 23> C                   1.54385000   -1.18685600    0.34407400
| 24> C                   2.29711500    2.21798600   -0.89758300
| 25> C                   2.21958000   -2.32286400    0.85557100
| 26> N                   2.88133300    3.11141900   -1.34291000
| 27> N                   2.77150900   -3.24146800    1.29073100
| 28> N                  -0.54323800   -2.34995200    0.66815600
| 29> C                  -1.50614500   -2.48840000    1.67144800
| 30> C                  -0.46523800   -3.55919600   -0.03591300
| 31> C                  -1.86852100   -1.59253500    2.66479500
| 32> C                  -2.06133600   -3.77985600    1.59078400
| 33> C                   0.31174400   -3.88150000   -1.13825200
| 34> C                  -1.39982900   -4.45894200    0.50924100
| 35> C                  -2.85713300   -1.98676600    3.55238400
| 36> H                  -1.39444800   -0.62438900    2.75418400
| 37> C                  -3.04733600   -4.15520300    2.49888900
| 38> C                   0.15766400   -5.14808800   -1.68009800
| 39> H                   1.00342200   -3.17104100   -1.57402000
| 40> C                  -1.53710300   -5.72401500   -0.05534200
| 41> C                  -3.44896500   -3.24908300    3.46604100
| 42> H                  -3.16699900   -1.30238600    4.33238500
| 43> H                  -3.48554400   -5.14437000    2.45065000
| 44> C                  -0.75208900   -6.06227000   -1.14423600
| 45> H                   0.75434000   -5.42893300   -2.53844000
| 46> H                  -2.25480000   -6.42663900    0.34980800
| 47> H                  -4.21790100   -3.52572800    4.17561500
| 48> H                  -0.84662000   -7.04305200   -1.59182800
| 49> N                  -1.95704500    0.03452400    0.02264600
| 50> C                  -2.72329000    0.88714200    0.82077400
| 51> C                  -2.82597400   -0.76917400   -0.71854200
| 52> C                  -2.30390500    1.80349400    1.77277500
| 53> C                  -4.08709800    0.63374500    0.57976800
| 54> C                  -2.53349300   -1.71964500   -1.68518000
| 55> C                  -4.15239800   -0.42587400   -0.38980200
| 56> C                  -3.27936500    2.51716500    2.45073600
| 57> H                  -1.25501600    1.94579900    1.99750400
| 58> C                  -5.04906900    1.35954100    1.27800200
| 59> C                  -3.59784400   -2.37067000   -2.28840100
| 60> H                  -1.51428700   -1.93831100   -1.97547100
| 61> C                  -5.20460700   -1.09027000   -1.01444600
| 62> C                  -4.63782200    2.30702700    2.20026800
| 63> H                  -2.97801700    3.24468400    3.19418500
| 64> H                  -6.10241500    1.17673100    1.10476800
| 65> C                  -4.91982400   -2.06831100   -1.95218400
| 66> H                  -3.39544300   -3.12362200   -3.04003600
| 67> H                  -6.22943700   -0.83797800   -0.77143200
| 68> H                  -5.37474200    2.88169000    2.74614800
| 69> H                  -5.72776900   -2.59662700   -2.44142400
| 70> N                  -0.47106700    2.33134400   -0.72615700
| 71> C                  -0.35292600    3.56244000   -0.06641300
| 72> C                  -1.43756700    2.46289400   -1.72746400
| 73> C                   0.44524700    3.90427700    1.01462900
| 74> C                  -1.26881200    4.46734500   -0.63442000
| 75> C                  -1.82862900    1.54484800   -2.68876600
| 76> C                  -1.95673600    3.77063400   -1.68793100
| 77> C                   0.32982100    5.19250100    1.51297200
| 78> H                   1.12481000    3.19252600    1.46669800
| 79> C                  -1.36739400    5.75468000   -0.11368900
| 80> C                  -2.81013900    1.93585500   -3.58559600
| 81> H                  -1.38090900    0.56179700   -2.74824300
| 82> C                  -2.93667200    4.14252200   -2.60424800
| 83> C                  -0.56251600    6.11043800    0.95479100
| 84> H                   0.94418100    5.48810100    2.35372100
| 85> H                  -2.07040300    6.46128200   -0.53718300
| 86> C                  -3.36736500    3.21586500   -3.53881100
| 87> H                  -3.14211500    1.23454300   -4.34107000
| 88> H                  -3.34792300    5.14420300   -2.58711500
| 89> H                  -0.62667900    7.10857500    1.36808600
| 90> H                  -4.13204300    3.48958200   -4.25412000
| 91> N                   3.67041100   -0.05888600    0.01233800
| 92> C                   4.49945100   -0.92778800   -0.70614300
| 93> C                   4.47884200    0.81349800    0.75011600
| 94> C                   4.15614100   -1.92990900   -1.60095800
| 95> C                   5.84035900   -0.60371400   -0.42471300
| 96> C                   4.10784700    1.81357600    1.63581300
| 97> C                   5.82726700    0.49749600    0.50011600
| 98> C                   5.18973100   -2.63091600   -2.20169000
| 99> H                   3.12314600   -2.15872200   -1.82982700
|100> C                   6.85968100   -1.32161400   -1.04402200
|101> C                   5.12221200    2.52335000    2.25843000
|102> H                   3.06808600    2.03515200    1.84063800
|103> C                   6.82728100    1.22378000    1.14126400
|104> C                   6.52640500   -2.33537600   -1.92535500
|105> H                   4.95141700   -3.42150100   -2.90157100
|106> H                   7.89609600   -1.08290000   -0.83981100
|107> C                   6.46688700    2.23720500    2.01228600
|108> H                   4.86241600    3.31320900    2.95145900
|109> H                   7.86979500    0.99261000    0.96072100
|110> H                   7.30821000   -2.90327700   -2.41275600
|111> H                   7.23355000    2.81189600    2.51552600
|112> *
|113> 
|114> 
|115>                          ****END OF INPUT****
================================================================================

                       ****************************
                       * Single Point Calculation *
                       ****************************

---------------------------------
CARTESIAN COORDINATES (ANGSTROEM)
---------------------------------
  C      0.137083   -1.179213    0.319302
  C     -0.555570   -0.001826   -0.008794
  C      0.175419    1.149009   -0.354530
  C      1.580929    1.111561   -0.375929
  C      2.275614   -0.046957   -0.007715
  C      1.543850   -1.186856    0.344074
  C      2.297115    2.217986   -0.897583
  C      2.219580   -2.322864    0.855571
  N      2.881333    3.111419   -1.342910
  N      2.771509   -3.241468    1.290731
  N     -0.543238   -2.349952    0.668156
  C     -1.506145   -2.488400    1.671448
  C     -0.465238   -3.559196   -0.035913
  C     -1.868521   -1.592535    2.664795
  C     -2.061336   -3.779856    1.590784
  C      0.311744   -3.881500   -1.138252
  C     -1.399829   -4.458942    0.509241
  C     -2.857133   -1.986766    3.552384
  H     -1.394448   -0.624389    2.754184
  C     -3.047336   -4.155203    2.498889
  C      0.157664   -5.148088   -1.680098
  H      1.003422   -3.171041   -1.574020
  C     -1.537103   -5.724015   -0.055342
  C     -3.448965   -3.249083    3.466041
  H     -3.166999   -1.302386    4.332385
  H     -3.485544   -5.144370    2.450650
  C     -0.752089   -6.062270   -1.144236
  H      0.754340   -5.428933   -2.538440
  H     -2.254800   -6.426639    0.349808
  H     -4.217901   -3.525728    4.175615
  H     -0.846620   -7.043052   -1.591828
  N     -1.957045    0.034524    0.022646
  C     -2.723290    0.887142    0.820774
  C     -2.825974   -0.769174   -0.718542
  C     -2.303905    1.803494    1.772775
  C     -4.087098    0.633745    0.579768
  C     -2.533493   -1.719645   -1.685180
  C     -4.152398   -0.425874   -0.389802
  C     -3.279365    2.517165    2.450736
  H     -1.255016    1.945799    1.997504
  C     -5.049069    1.359541    1.278002
  C     -3.597844   -2.370670   -2.288401
  H     -1.514287   -1.938311   -1.975471
  C     -5.204607   -1.090270   -1.014446
  C     -4.637822    2.307027    2.200268
  H     -2.978017    3.244684    3.194185
  H     -6.102415    1.176731    1.104768
  C     -4.919824   -2.068311   -1.952184
  H     -3.395443   -3.123622   -3.040036
  H     -6.229437   -0.837978   -0.771432
  H     -5.374742    2.881690    2.746148
  H     -5.727769   -2.596627   -2.441424
  N     -0.471067    2.331344   -0.726157
  C     -0.352926    3.562440   -0.066413
  C     -1.437567    2.462894   -1.727464
  C      0.445247    3.904277    1.014629
  C     -1.268812    4.467345   -0.634420
  C     -1.828629    1.544848   -2.688766
  C     -1.956736    3.770634   -1.687931
  C      0.329821    5.192501    1.512972
  H      1.124810    3.192526    1.466698
  C     -1.367394    5.754680   -0.113689
  C     -2.810139    1.935855   -3.585596
  H     -1.380909    0.561797   -2.748243
  C     -2.936672    4.142522   -2.604248
  C     -0.562516    6.110438    0.954791
  H      0.944181    5.488101    2.353721
  H     -2.070403    6.461282   -0.537183
  C     -3.367365    3.215865   -3.538811
  H     -3.142115    1.234543   -4.341070
  H     -3.347923    5.144203   -2.587115
  H     -0.626679    7.108575    1.368086
  H     -4.132043    3.489582   -4.254120
  N      3.670411   -0.058886    0.012338
  C      4.499451   -0.927788   -0.706143
  C      4.478842    0.813498    0.750116
  C      4.156141   -1.929909   -1.600958
  C      5.840359   -0.603714   -0.424713
  C      4.107847    1.813576    1.635813
  C      5.827267    0.497496    0.500116
  C      5.189731   -2.630916   -2.201690
  H      3.123146   -2.158722   -1.829827
  C      6.859681   -1.321614   -1.044022
  C      5.122212    2.523350    2.258430
  H      3.068086    2.035152    1.840638
  C      6.827281    1.223780    1.141264
  C      6.526405   -2.335376   -1.925355
  H      4.951417   -3.421501   -2.901571
  H      7.896096   -1.082900   -0.839811
  C      6.466887    2.237205    2.012286
  H      4.862416    3.313209    2.951459
  H      7.869795    0.992610    0.960721
  H      7.308210   -2.903277   -2.412756
  H      7.233550    2.811896    2.515526

----------------------------
CARTESIAN COORDINATES (A.U.)
----------------------------
  NO LB      ZA    FRAG     MASS         X           Y           Z
   0 C     6.0000    0    12.011    0.259049   -2.228390    0.603393
   1 C     6.0000    0    12.011   -1.049875   -0.003451   -0.016618
   2 C     6.0000    0    12.011    0.331494    2.171312   -0.669965
   3 C     6.0000    0    12.011    2.987523    2.100546   -0.710403
   4 C     6.0000    0    12.011    4.300287   -0.088736   -0.014579
   5 C     6.0000    0    12.011    2.917454   -2.242833    0.650206
   6 C     6.0000    0    12.011    4.340918    4.191386   -1.696186
   7 C     6.0000    0    12.011    4.194398   -4.389577    1.616795
   8 N     7.0000    0    14.007    5.444930    5.879730   -2.537732
   9 N     7.0000    0    14.007    5.237393   -6.125487    2.439128
  10 N     7.0000    0    14.007   -1.026571   -4.440766    1.262632
  11 C     6.0000    0    12.011   -2.846202   -4.702395    3.158579
  12 C     6.0000    0    12.011   -0.879172   -6.725906   -0.067866
  13 C     6.0000    0    12.011   -3.530993   -3.009455    5.035733
  14 C     6.0000    0    12.011   -3.895361   -7.142893    3.006146
  15 C     6.0000    0    12.011    0.589111   -7.334972   -2.150985
  16 C     6.0000    0    12.011   -2.645293   -8.426179    0.962326
  17 C     6.0000    0    12.011   -5.399199   -3.754444    6.713033
  18 H     1.0000    0     1.008   -2.635125   -1.179924    5.204653
  19 C     6.0000    0    12.011   -5.758630   -7.852196    4.722216
  20 C     6.0000    0    12.011    0.297942   -9.728476   -3.174925
  21 H     1.0000    0     1.008    1.896193   -5.992399   -2.974467
  22 C     6.0000    0    12.011   -2.904704  -10.816821   -0.104581
  23 C     6.0000    0    12.011   -6.517599   -6.139877    6.549868
  24 H     1.0000    0     1.008   -5.984761   -2.461153    8.187021
  25 H     1.0000    0     1.008   -6.586724   -9.721450    4.631057
  26 C     6.0000    0    12.011   -1.421242  -11.456030   -2.162293
  27 H     1.0000    0     1.008    1.425496  -10.259197   -4.796956
  28 H     1.0000    0     1.008   -4.260954  -12.144588    0.661041
  29 H     1.0000    0     1.008   -7.970678   -6.662660    7.890769
  30 H     1.0000    0     1.008   -1.599880  -13.309439   -3.008119
  31 N     7.0000    0    14.007   -3.698279    0.065241    0.042795
  32 C     6.0000    0    12.011   -5.146272    1.676455    1.551038
  33 C     6.0000    0    12.011   -5.340317   -1.453528   -1.357848
  34 C     6.0000    0    12.011   -4.353749    3.408110    3.350059
  35 C     6.0000    0    12.011   -7.723496    1.197604    1.095603
  36 C     6.0000    0    12.011   -4.787608   -3.249658   -3.184529
  37 C     6.0000    0    12.011   -7.846895   -0.804785   -0.736619
  38 C     6.0000    0    12.011   -6.197102    4.756752    4.631220
  39 H     1.0000    0     1.008   -2.371637    3.677027    3.774736
  40 C     6.0000    0    12.011   -9.541358    2.569160    2.415074
  41 C     6.0000    0    12.011   -6.798940   -4.479917   -4.324451
  42 H     1.0000    0     1.008   -2.861588   -3.662877   -3.733099
  43 C     6.0000    0    12.011   -9.835282   -2.060312   -1.917025
  44 C     6.0000    0    12.011   -8.764213    4.359649    4.157904
  45 H     1.0000    0     1.008   -5.627637    6.131564    6.036135
  46 H     1.0000    0     1.008  -11.531893    2.223699    2.087709
  47 C     6.0000    0    12.011   -9.297120   -3.908541   -3.689093
  48 H     1.0000    0     1.008   -6.416457   -5.902790   -5.744835
  49 H     1.0000    0     1.008  -11.771930   -1.583549   -1.457795
  50 H     1.0000    0     1.008  -10.156790    5.445605    5.189468
  51 H     1.0000    0     1.008  -10.823915   -4.906914   -4.613623
  52 N     7.0000    0    14.007   -0.890188    4.405602   -1.372238
  53 C     6.0000    0    12.011   -0.666933    6.732036   -0.125502
  54 C     6.0000    0    12.011   -2.716608    4.654195   -3.264434
  55 C     6.0000    0    12.011    0.841395    7.378014    1.917371
  56 C     6.0000    0    12.011   -2.397707    8.442059   -1.198880
  57 C     6.0000    0    12.011   -3.455608    2.919340   -5.081031
  58 C     6.0000    0    12.011   -3.697695    7.125466   -3.189727
  59 C     6.0000    0    12.011    0.623271    9.812405    2.859103
  60 H     1.0000    0     1.008    2.125583    6.033000    2.771658
  61 C     6.0000    0    12.011   -2.584000   10.874769   -0.214841
  62 C     6.0000    0    12.011   -5.310393    3.658236   -6.775794
  63 H     1.0000    0     1.008   -2.609540    1.061642   -5.193427
  64 C     6.0000    0    12.011   -5.549506    7.828232   -4.921316
  65 C     6.0000    0    12.011   -1.063001   11.547054    1.804294
  66 H     1.0000    0     1.008    1.784244   10.371008    4.447888
  67 H     1.0000    0     1.008   -3.912495   12.210053   -1.015129
  68 C     6.0000    0    12.011   -6.363398    6.077104   -6.687384
  69 H     1.0000    0     1.008   -5.937737    2.332948   -8.203433
  70 H     1.0000    0     1.008   -6.326658    9.721135   -4.888939
  71 H     1.0000    0     1.008   -1.184252   13.433260    2.585308
  72 H     1.0000    0     1.008   -7.808430    6.594354   -8.039122
  73 N     7.0000    0    14.007    6.936072   -0.111278    0.023315
  74 C     6.0000    0    12.011    8.502730   -1.753265   -1.334417
  75 C     6.0000    0    12.011    8.463785    1.537288    1.417514
  76 C     6.0000    0    12.011    7.853968   -3.646999   -3.025372
  77 C     6.0000    0    12.011   11.036679   -1.140854   -0.802591
  78 C     6.0000    0    12.011    7.762706    3.427162    3.091239
  79 C     6.0000    0    12.011   11.011939    0.940131    0.945082
  80 C     6.0000    0    12.011    9.807170   -4.971711   -4.160591
  81 H     1.0000    0     1.008    5.901891   -4.079393   -3.457872
  82 C     6.0000    0    12.011   12.962918   -2.497489   -1.972916
  83 C     6.0000    0    12.011    9.679578    4.768440    4.267814
  84 H     1.0000    0     1.008    5.797842    3.845880    3.478302
  85 C     6.0000    0    12.011   12.901691    2.312609    2.156676
  86 C     6.0000    0    12.011   12.333118   -4.413221   -3.638394
  87 H     1.0000    0     1.008    9.356822   -6.465700   -5.483175
  88 H     1.0000    0     1.008   14.921459   -2.046384   -1.587013
  89 C     6.0000    0    12.011   12.220645    4.227705    3.802669
  90 H     1.0000    0     1.008    9.188635    6.261058    5.577449
  91 H     1.0000    0     1.008   14.871757    1.875761    1.815500
  92 H     1.0000    0     1.008   13.810515   -5.486398   -4.559448
  93 H     1.0000    0     1.008   13.669428    5.313713    4.753655

--------------------------------
INTERNAL COORDINATES (ANGSTROEM)
--------------------------------
 C      0   0   0     0.000000000000     0.00000000     0.00000000
 C      1   0   0     1.404868432058     0.00000000     0.00000000
 C      2   1   0     1.406520350739   119.13664231     0.00000000
 C      3   2   1     1.406171621818   120.09403435     0.32712668
 C      4   3   2     1.400118836151   120.92807539   357.57588027
 C      5   4   3     1.399501262028   118.72664068     1.97516775
 C      4   3   2     1.417470127705   119.32953483   171.54823898
 C      6   5   4     1.417305327011   119.62175075   186.69258083
 N      7   4   3     1.156654370995   178.92038725   268.60894143
 N      8   6   5     1.156643054471   179.02602002    81.20955328
 N      1   2   3     1.398272356330   121.33778276   180.07998345
 C     11   1   2     1.397480796511   126.67733308   305.69385811
 C     11   1   2     1.401452178384   124.75193520   118.67984132
 C     12  11   1     1.385867499442   129.10290830   349.48565966
 C     12  11   1     1.408049121058   108.74888912   172.82561597
 C     13  11   1     1.386626181659   129.13364363     3.51932099
 C     13  11   1     1.407194402175   108.66940495   186.95370466
 C     14  12  11     1.385852084757   117.49722844   180.60190485
 H     14  12  11     1.081684926384   121.54783192     0.04749922
 C     15  12  11     1.392025883895   119.28999459   179.76889661
 C     16  13  11     1.386211706724   117.44132220   182.53182956
 H     16  13  11     1.083080881647   121.68356474     1.60869954
 C     17  13  11     1.392123489599   119.30201897   178.06732165
 C     20  15  12     1.384825728799   118.98635349   359.50433358
 H     18  14  12     1.082956362167   119.05427278   180.61995755
 H     20  15  12     1.082961036360   120.25456148   179.95776032
 C     23  17  13     1.384324228083   119.02125806   359.75129756
 H     21  16  13     1.082426511115   119.06222613   180.26574010
 H     23  17  13     1.083012461463   120.21118268   180.25948696
 H     24  20  15     1.082261654868   119.78161795   179.70995833
 H     27  23  17     1.082223655234   119.81700200   179.86099482
 N      2   1   3     1.402298816845   120.61297151   180.77646789
 C     32   2   1     1.396816794835   125.23113498   120.31313690
 C     32   2   1     1.396541346896   126.51393425   300.84015717
 C     33  32   2     1.386322715002   129.04283546   356.43199464
 C     33  32   2     1.407929754110   108.88719407   179.97504176
 C     34  32   2     1.386841476250   129.28037500   356.38508694
 C     34  32   2     1.409015793161   108.76502129   179.53885631
 C     35  33  32     1.385813705143   117.60749486   181.15805369
 H     35  33  32     1.082091479861   121.51869439   359.89850815
 C     36  33  32     1.392730683662   119.30458200   179.32693520
 C     37  34  32     1.385839881324   117.60494485   180.90581736
 H     37  34  32     1.082064949378   121.60984488   359.87063848
 C     38  34  32     1.392388577673   119.37116936   179.50514675
 C     41  36  33     1.384712385285   119.03603841   359.53990015
 H     39  35  33     1.082963955109   119.07379874   180.45954536
 H     41  36  33     1.083036153862   120.23972175   180.02312984
 C     44  38  34     1.384564231596   119.04305522   359.57513553
 H     42  37  34     1.082985711969   119.02369906   180.54489781
 H     44  38  34     1.083043667799   120.21553552   179.94384598
 H     45  41  36     1.082253955580   119.80463497   179.68828504
 H     48  44  38     1.082242438865   119.83181397   179.65804383
 N      3   2   1     1.397843634871   121.13503779   178.10097182
 C     53   3   2     1.401719231028   125.36335485   119.85426715
 C     53   3   2     1.397871010054   126.14301297   306.50692825
 C     54  53   3     1.386572925692   129.19767308     3.57883105
 C     54  53   3     1.407242756624   108.65872695   186.89660974
 C     55  53   3     1.385582722599   129.03204523   349.53919264
 C     55  53   3     1.407580625133   108.80400443   173.05489220
 C     56  54  53     1.386069977058   117.48432952   182.57797263
 H     56  54  53     1.082941243896   121.64509722     1.70396717
 C     57  54  53     1.392160402867   119.32260578   178.00119663
 C     58  55  53     1.385839963000   117.51162389   180.79604815
 H     58  55  53     1.081841014443   121.56099237     0.18170726
 C     59  55  53     1.392196858612   119.29504624   179.62397833
 C     62  57  54     1.384211638388   119.02631951   359.80385479
 H     60  56  54     1.082440044807   119.06504138   180.27442526
 H     62  57  54     1.082984399020   120.20061246   180.25832963
 C     65  59  55     1.384773503815   118.97083052   359.50074366
 H     63  58  55     1.082953161774   119.06765481   180.62555319
 H     65  59  55     1.082952330646   120.26241413   179.92222026
 H     66  62  57     1.082223229451   119.82509852   179.84129305
 H     69  65  59     1.082275568076   119.77281646   179.70004507
 N      5   4   3     1.394992148745   120.46076412   182.24613327
 C     74   5   4     1.399468811573   126.17422570   237.54205331
 C     74   5   4     1.399618127384   125.43471084    56.81139138
 C     75  74   5     1.386651412204   129.29662162     1.55089264
 C     75  74   5     1.407927933823   108.58201685   179.27212154
 C     76  74   5     1.386453198604   129.18171035     2.78581385
 C     76  74   5     1.407340486389   108.65286770   180.59446494
 C     77  75  74     1.385856427619   117.42788500   178.61109832
 H     77  75  74     1.082504077662   121.69860773   358.87468487
 C     78  75  74     1.392099632629   119.32327742   181.02986940
 C     79  76  74     1.385773218456   117.42582363   178.83133445
 H     79  76  74     1.082659753349   121.69952274   359.02289423
 C     80  76  74     1.392331572132   119.29035421   180.85041660
 C     83  78  75     1.384028230098   118.99307864     0.17765507
 H     81  77  75     1.082428574541   119.04670333   179.75508367
 H     83  78  75     1.082978558671   120.21047387   179.85447438
 C     86  80  76     1.384049634350   118.99435847     0.17582589
 H     84  79  76     1.082432629007   119.05974577   179.71248803
 H     86  80  76     1.082991589970   120.21685398   179.93350413
 H     87  83  78     1.082261677519   119.81386348   180.11992692
 H     90  86  80     1.082262629240   119.80082491   180.17326272

---------------------------
INTERNAL COORDINATES (A.U.)
---------------------------
 C      0   0   0     0.000000000000     0.00000000     0.00000000
 C      1   0   0     2.654816590782     0.00000000     0.00000000
 C      2   1   0     2.657938264683   119.13664231     0.00000000
 C      3   2   1     2.657279262527   120.09403435     0.32712668
 C      4   3   2     2.645841155270   120.92807539   357.57588027
 C      5   4   3     2.644674109310   118.72664068     1.97516775
 C      4   3   2     2.678630344377   119.32953483   171.54823898
 C      6   5   4     2.678318916198   119.62175075   186.69258083
 N      7   4   3     2.185759992784   178.92038725   268.60894143
 N      8   6   5     2.185738607653   179.02602002    81.20955328
 N      1   2   3     2.642351814097   121.33778276   180.07998345
 C     11   1   2     2.640855982820   126.67733308   305.69385811
 C     11   1   2     2.648360806933   124.75193520   118.67984132
 C     12  11   1     2.618910031848   129.10290830   349.48565966
 C     12  11   1     2.660827221909   108.74888912   172.82561597
 C     13  11   1     2.620343733460   129.13364363     3.51932099
 C     13  11   1     2.659212037298   108.66940495   186.95370466
 C     14  12  11     2.618880902315   117.49722844   180.60190485
 H     14  12  11     2.044088274056   121.54783192     0.04749922
 C     15  12  11     2.630547691891   119.28999459   179.76889661
 C     16  13  11     2.619560489345   117.44132220   182.53182956
 H     16  13  11     2.046726247199   121.68356474     1.60869954
 C     17  13  11     2.630732139941   119.30201897   178.06732165
 C     20  15  12     2.616941370639   118.98635349   359.50433358
 H     18  14  12     2.046490939482   119.05427278   180.61995755
 H     20  15  12     2.046499772428   120.25456148   179.95776032
 C     23  17  13     2.615993671628   119.02125806   359.75129756
 H     21  16  13     2.045489666104   119.06222613   180.26574010
 H     23  17  13     2.046596951790   120.21118268   180.25948696
 H     24  20  15     2.045178132944   119.78161795   179.70995833
 H     27  23  17     2.045106324044   119.81700200   179.86099482
 N      2   1   3     2.649960721759   120.61297151   180.77646789
 C     32   2   1     2.639601201500   125.23113498   120.31313690
 C     32   2   1     2.639080680330   126.51393425   300.84015717
 C     33  32   2     2.619770264588   129.04283546   356.43199464
 C     33  32   2     2.660601651067   108.88719407   179.97504176
 C     34  32   2     2.620750581275   129.28037500   356.38508694
 C     34  32   2     2.662653967443   108.76502129   179.53885631
 C     35  33  32     2.618808375355   117.60749486   181.15805369
 H     35  33  32     2.044856548786   121.51869439   359.89850815
 C     36  33  32     2.631879570430   119.30458200   179.32693520
 C     37  34  32     2.618857841168   117.60494485   180.90581736
 H     37  34  32     2.044806413440   121.60984488   359.87063848
 C     38  34  32     2.631233083801   119.37116936   179.50514675
 C     41  36  33     2.616727182437   119.03603841   359.53990015
 H     39  35  33     2.046505288065   119.07379874   180.45954536
 H     41  36  33     2.046641723934   120.23972175   180.02312984
 C     44  38  34     2.616447212539   119.04305522   359.57513553
 H     42  37  34     2.046546402572   119.02369906   180.54489781
 H     44  38  34     2.046655923218   120.21553552   179.94384598
 H     45  41  36     2.045163583400   119.80463497   179.68828504
 H     48  44  38     2.045141819962   119.83181397   179.65804383
 N      3   2   1     2.641541647952   121.13503779   178.10097182
 C     53   3   2     2.648865463293   125.36335485   119.85426715
 C     53   3   2     2.641593379550   126.14301297   306.50692825
 C     54  53   3     2.620243094268   129.19767308     3.57883105
 C     54  53   3     2.659303413963   108.65872695   186.89660974
 C     55  53   3     2.618371881605   129.03204523   349.53919264
 C     55  53   3     2.659941892915   108.80400443   173.05489220
 C     56  54  53     2.619292659090   117.48432952   182.57797263
 H     56  54  53     2.046462370091   121.64509722     1.70396717
 C     57  54  53     2.630801895908   119.32260578   178.00119663
 C     58  55  53     2.618857995514   117.51162389   180.79604815
 H     58  55  53     2.044383237740   121.56099237     0.18170726
 C     59  55  53     2.630870787282   119.29504624   179.62397833
 C     62  57  54     2.615780907939   119.02631951   359.80385479
 H     60  56  54     2.045515241074   119.06504138   180.27442526
 H     62  57  54     2.046543921457   120.20061246   180.25832963
 C     65  59  55     2.616842679720   118.97083052   359.50074366
 H     63  58  55     2.046484891617   119.06765481   180.62555319
 H     65  59  55     2.046483321012   120.26241413   179.92222026
 H     66  62  57     2.045105519430   119.82509852   179.84129305
 H     69  65  59     2.045204425097   119.77281646   179.70004507
 N      5   4   3     2.636153120098   120.46076412   182.24613327
 C     74   5   4     2.644612786837   126.17422570   237.54205331
 C     74   5   4     2.644894952827   125.43471084    56.81139138
 C     75  74   5     2.620391412280   129.29662162     1.55089264
 C     75  74   5     2.660598211224   108.58201685   179.27212154
 C     76  74   5     2.620016842860   129.18171035     2.78581385
 C     76  74   5     2.659488096454   108.65286770   180.59446494
 C     77  75  74     2.618889109134   117.42788500   178.61109832
 H     77  75  74     2.045636245634   121.69860773   358.87468487
 C     78  75  74     2.630687056801   119.32327742   181.02986940
 C     79  76  74     2.618731866605   117.42582363   178.83133445
 H     79  76  74     2.045930430049   121.69952274   359.02289423
 C     80  76  74     2.631125358942   119.29035421   180.85041660
 C     83  78  75     2.615434316502   118.99307864     0.17765507
 H     81  77  75     2.045493565413   119.04670333   179.75508367
 H     83  78  75     2.046532884798   120.21047387   179.85447438
 C     86  80  76     2.615474764676   118.99435847     0.17582589
 H     84  79  76     2.045501227243   119.05974577   179.71248803
 H     86  80  76     2.046557510383   120.21685398   179.93350413
 H     87  83  78     2.045178175750   119.81386348   180.11992692
 H     90  86  80     2.045179974242   119.80082491   180.17326272

---------------------
BASIS SET INFORMATION
---------------------
There are 3 groups of distinct atoms

 Group   1 Type C   : 11s6p2d1f contracted to 5s3p2d1f pattern {62111/411/11/1}
 Group   2 Type N   : 11s6p2d1f contracted to 5s3p2d1f pattern {62111/411/11/1}
 Group   3 Type H   : 5s1p contracted to 3s1p pattern {311/1}

Atom   0C    basis set group =>   1
Atom   1C    basis set group =>   1
Atom   2C    basis set group =>   1
Atom   3C    basis set group =>   1
Atom   4C    basis set group =>   1
Atom   5C    basis set group =>   1
Atom   6C    basis set group =>   1
Atom   7C    basis set group =>   1
Atom   8N    basis set group =>   2
Atom   9N    basis set group =>   2
Atom  10N    basis set group =>   2
Atom  11C    basis set group =>   1
Atom  12C    basis set group =>   1
Atom  13C    basis set group =>   1
Atom  14C    basis set group =>   1
Atom  15C    basis set group =>   1
Atom  16C    basis set group =>   1
Atom  17C    basis set group =>   1
Atom  18H    basis set group =>   3
Atom  19C    basis set group =>   1
Atom  20C    basis set group =>   1
Atom  21H    basis set group =>   3
Atom  22C    basis set group =>   1
Atom  23C    basis set group =>   1
Atom  24H    basis set group =>   3
Atom  25H    basis set group =>   3
Atom  26C    basis set group =>   1
Atom  27H    basis set group =>   3
Atom  28H    basis set group =>   3
Atom  29H    basis set group =>   3
Atom  30H    basis set group =>   3
Atom  31N    basis set group =>   2
Atom  32C    basis set group =>   1
Atom  33C    basis set group =>   1
Atom  34C    basis set group =>   1
Atom  35C    basis set group =>   1
Atom  36C    basis set group =>   1
Atom  37C    basis set group =>   1
Atom  38C    basis set group =>   1
Atom  39H    basis set group =>   3
Atom  40C    basis set group =>   1
Atom  41C    basis set group =>   1
Atom  42H    basis set group =>   3
Atom  43C    basis set group =>   1
Atom  44C    basis set group =>   1
Atom  45H    basis set group =>   3
Atom  46H    basis set group =>   3
Atom  47C    basis set group =>   1
Atom  48H    basis set group =>   3
Atom  49H    basis set group =>   3
Atom  50H    basis set group =>   3
Atom  51H    basis set group =>   3
Atom  52N    basis set group =>   2
Atom  53C    basis set group =>   1
Atom  54C    basis set group =>   1
Atom  55C    basis set group =>   1
Atom  56C    basis set group =>   1
Atom  57C    basis set group =>   1
Atom  58C    basis set group =>   1
Atom  59C    basis set group =>   1
Atom  60H    basis set group =>   3
Atom  61C    basis set group =>   1
Atom  62C    basis set group =>   1
Atom  63H    basis set group =>   3
Atom  64C    basis set group =>   1
Atom  65C    basis set group =>   1
Atom  66H    basis set group =>   3
Atom  67H    basis set group =>   3
Atom  68C    basis set group =>   1
Atom  69H    basis set group =>   3
Atom  70H    basis set group =>   3
Atom  71H    basis set group =>   3
Atom  72H    basis set group =>   3
Atom  73N    basis set group =>   2
Atom  74C    basis set group =>   1
Atom  75C    basis set group =>   1
Atom  76C    basis set group =>   1
Atom  77C    basis set group =>   1
Atom  78C    basis set group =>   1
Atom  79C    basis set group =>   1
Atom  80C    basis set group =>   1
Atom  81H    basis set group =>   3
Atom  82C    basis set group =>   1
Atom  83C    basis set group =>   1
Atom  84H    basis set group =>   3
Atom  85C    basis set group =>   1
Atom  86C    basis set group =>   1
Atom  87H    basis set group =>   3
Atom  88H    basis set group =>   3
Atom  89C    basis set group =>   1
Atom  90H    basis set group =>   3
Atom  91H    basis set group =>   3
Atom  92H    basis set group =>   3
Atom  93H    basis set group =>   3
---------------------------------
AUXILIARY/J BASIS SET INFORMATION
---------------------------------
There are 3 groups of distinct atoms

 Group   1 Type C   : 12s5p4d2f1g contracted to 6s4p3d1f1g pattern {711111/2111/211/2/1}
 Group   2 Type N   : 12s5p4d2f1g contracted to 6s4p3d1f1g pattern {711111/2111/211/2/1}
 Group   3 Type H   : 5s2p1d contracted to 3s1p1d pattern {311/2/1}

Atom   0C    basis set group =>   1
Atom   1C    basis set group =>   1
Atom   2C    basis set group =>   1
Atom   3C    basis set group =>   1
Atom   4C    basis set group =>   1
Atom   5C    basis set group =>   1
Atom   6C    basis set group =>   1
Atom   7C    basis set group =>   1
Atom   8N    basis set group =>   2
Atom   9N    basis set group =>   2
Atom  10N    basis set group =>   2
Atom  11C    basis set group =>   1
Atom  12C    basis set group =>   1
Atom  13C    basis set group =>   1
Atom  14C    basis set group =>   1
Atom  15C    basis set group =>   1
Atom  16C    basis set group =>   1
Atom  17C    basis set group =>   1
Atom  18H    basis set group =>   3
Atom  19C    basis set group =>   1
Atom  20C    basis set group =>   1
Atom  21H    basis set group =>   3
Atom  22C    basis set group =>   1
Atom  23C    basis set group =>   1
Atom  24H    basis set group =>   3
Atom  25H    basis set group =>   3
Atom  26C    basis set group =>   1
Atom  27H    basis set group =>   3
Atom  28H    basis set group =>   3
Atom  29H    basis set group =>   3
Atom  30H    basis set group =>   3
Atom  31N    basis set group =>   2
Atom  32C    basis set group =>   1
Atom  33C    basis set group =>   1
Atom  34C    basis set group =>   1
Atom  35C    basis set group =>   1
Atom  36C    basis set group =>   1
Atom  37C    basis set group =>   1
Atom  38C    basis set group =>   1
Atom  39H    basis set group =>   3
Atom  40C    basis set group =>   1
Atom  41C    basis set group =>   1
Atom  42H    basis set group =>   3
Atom  43C    basis set group =>   1
Atom  44C    basis set group =>   1
Atom  45H    basis set group =>   3
Atom  46H    basis set group =>   3
Atom  47C    basis set group =>   1
Atom  48H    basis set group =>   3
Atom  49H    basis set group =>   3
Atom  50H    basis set group =>   3
Atom  51H    basis set group =>   3
Atom  52N    basis set group =>   2
Atom  53C    basis set group =>   1
Atom  54C    basis set group =>   1
Atom  55C    basis set group =>   1
Atom  56C    basis set group =>   1
Atom  57C    basis set group =>   1
Atom  58C    basis set group =>   1
Atom  59C    basis set group =>   1
Atom  60H    basis set group =>   3
Atom  61C    basis set group =>   1
Atom  62C    basis set group =>   1
Atom  63H    basis set group =>   3
Atom  64C    basis set group =>   1
Atom  65C    basis set group =>   1
Atom  66H    basis set group =>   3
Atom  67H    basis set group =>   3
Atom  68C    basis set group =>   1
Atom  69H    basis set group =>   3
Atom  70H    basis set group =>   3
Atom  71H    basis set group =>   3
Atom  72H    basis set group =>   3
Atom  73N    basis set group =>   2
Atom  74C    basis set group =>   1
Atom  75C    basis set group =>   1
Atom  76C    basis set group =>   1
Atom  77C    basis set group =>   1
Atom  78C    basis set group =>   1
Atom  79C    basis set group =>   1
Atom  80C    basis set group =>   1
Atom  81H    basis set group =>   3
Atom  82C    basis set group =>   1
Atom  83C    basis set group =>   1
Atom  84H    basis set group =>   3
Atom  85C    basis set group =>   1
Atom  86C    basis set group =>   1
Atom  87H    basis set group =>   3
Atom  88H    basis set group =>   3
Atom  89C    basis set group =>   1
Atom  90H    basis set group =>   3
Atom  91H    basis set group =>   3
Atom  92H    basis set group =>   3
Atom  93H    basis set group =>   3
---------------------------------
AUXILIARY/C BASIS SET INFORMATION
---------------------------------
There are 3 groups of distinct atoms

 Group   1 Type C   : 8s6p5d3f1g contracted to 8s6p4d3f1g pattern {11111111/111111/2111/111/1}
 Group   2 Type N   : 8s6p5d3f1g contracted to 8s6p4d3f1g pattern {11111111/111111/2111/111/1}
 Group   3 Type H   : 4s3p2d contracted to 4s2p1d pattern {1111/21/2}

Atom   0C    basis set group =>   1
Atom   1C    basis set group =>   1
Atom   2C    basis set group =>   1
Atom   3C    basis set group =>   1
Atom   4C    basis set group =>   1
Atom   5C    basis set group =>   1
Atom   6C    basis set group =>   1
Atom   7C    basis set group =>   1
Atom   8N    basis set group =>   2
Atom   9N    basis set group =>   2
Atom  10N    basis set group =>   2
Atom  11C    basis set group =>   1
Atom  12C    basis set group =>   1
Atom  13C    basis set group =>   1
Atom  14C    basis set group =>   1
Atom  15C    basis set group =>   1
Atom  16C    basis set group =>   1
Atom  17C    basis set group =>   1
Atom  18H    basis set group =>   3
Atom  19C    basis set group =>   1
Atom  20C    basis set group =>   1
Atom  21H    basis set group =>   3
Atom  22C    basis set group =>   1
Atom  23C    basis set group =>   1
Atom  24H    basis set group =>   3
Atom  25H    basis set group =>   3
Atom  26C    basis set group =>   1
Atom  27H    basis set group =>   3
Atom  28H    basis set group =>   3
Atom  29H    basis set group =>   3
Atom  30H    basis set group =>   3
Atom  31N    basis set group =>   2
Atom  32C    basis set group =>   1
Atom  33C    basis set group =>   1
Atom  34C    basis set group =>   1
Atom  35C    basis set group =>   1
Atom  36C    basis set group =>   1
Atom  37C    basis set group =>   1
Atom  38C    basis set group =>   1
Atom  39H    basis set group =>   3
Atom  40C    basis set group =>   1
Atom  41C    basis set group =>   1
Atom  42H    basis set group =>   3
Atom  43C    basis set group =>   1
Atom  44C    basis set group =>   1
Atom  45H    basis set group =>   3
Atom  46H    basis set group =>   3
Atom  47C    basis set group =>   1
Atom  48H    basis set group =>   3
Atom  49H    basis set group =>   3
Atom  50H    basis set group =>   3
Atom  51H    basis set group =>   3
Atom  52N    basis set group =>   2
Atom  53C    basis set group =>   1
Atom  54C    basis set group =>   1
Atom  55C    basis set group =>   1
Atom  56C    basis set group =>   1
Atom  57C    basis set group =>   1
Atom  58C    basis set group =>   1
Atom  59C    basis set group =>   1
Atom  60H    basis set group =>   3
Atom  61C    basis set group =>   1
Atom  62C    basis set group =>   1
Atom  63H    basis set group =>   3
Atom  64C    basis set group =>   1
Atom  65C    basis set group =>   1
Atom  66H    basis set group =>   3
Atom  67H    basis set group =>   3
Atom  68C    basis set group =>   1
Atom  69H    basis set group =>   3
Atom  70H    basis set group =>   3
Atom  71H    basis set group =>   3
Atom  72H    basis set group =>   3
Atom  73N    basis set group =>   2
Atom  74C    basis set group =>   1
Atom  75C    basis set group =>   1
Atom  76C    basis set group =>   1
Atom  77C    basis set group =>   1
Atom  78C    basis set group =>   1
Atom  79C    basis set group =>   1
Atom  80C    basis set group =>   1
Atom  81H    basis set group =>   3
Atom  82C    basis set group =>   1
Atom  83C    basis set group =>   1
Atom  84H    basis set group =>   3
Atom  85C    basis set group =>   1
Atom  86C    basis set group =>   1
Atom  87H    basis set group =>   3
Atom  88H    basis set group =>   3
Atom  89C    basis set group =>   1
Atom  90H    basis set group =>   3
Atom  91H    basis set group =>   3
Atom  92H    basis set group =>   3
Atom  93H    basis set group =>   3


           ************************************************************
           *        Program running with 8 parallel MPI-processes     *
           *              working on a common directory               *
           ************************************************************
------------------------------------------------------------------------------
                           ORCA GTO INTEGRAL CALCULATION
                           -- RI-GTO INTEGRALS CHOSEN --
------------------------------------------------------------------------------
------------------------------------------------------------------------------
                   ___                                                        
                  /   \      - P O W E R E D   B Y -                         
                 /     \                                                     
                 |  |  |   _    _      __       _____    __    __             
                 |  |  |  | |  | |    /  \     |  _  \  |  |  /  |          
                  \  \/   | |  | |   /    \    | | | |  |  | /  /          
                 / \  \   | |__| |  /  /\  \   | |_| |  |  |/  /          
                |  |  |   |  __  | /  /__\  \  |    /   |      \           
                |  |  |   | |  | | |   __   |  |    \   |  |\   \          
                \     /   | |  | | |  |  |  |  | |\  \  |  | \   \       
                 \___/    |_|  |_| |__|  |__|  |_| \__\ |__|  \__/        
                                                                              
                      - O R C A' S   B I G   F R I E N D -                    
                                      &                                       
                       - I N T E G R A L  F E E D E R -                       
                                                                              
 v1 FN, 2020, v2 2021                                                         
------------------------------------------------------------------------------


Reading SHARK input file CA_1_M06L_def2TZVP_coords.SHARKINP.tmp ... ok
----------------------
SHARK INTEGRAL PACKAGE
----------------------

Number of atoms                             ...     94
Number of basis functions                   ...   2114
Number of shells                            ...    810
Maximum angular momentum                    ...      3
Integral batch strategy                     ... SHARK/LIBINT Hybrid
RI-J (if used) integral strategy            ... SPLIT-RIJ (Revised 2003 algorithm where possible)
Printlevel                                  ...      1
Contraction scheme used                     ... SEGMENTED contraction
Coulomb Range Separation                    ... NOT USED
Exchange Range Separation                   ... NOT USED
Finite Nucleus Model                        ... NOT USED
Auxiliary Coulomb fitting basis             ... AVAILABLE
   # of basis functions in Aux-J            ...   3390
   # of shells in Aux-J                     ...   1090
   Maximum angular momentum in Aux-J        ...      4
Auxiliary J/K fitting basis                 ... NOT available
Auxiliary Correlation fitting basis         ... AVAILABLE
   # of basis functions in Aux-C            ...   5192
   # of shells in Aux-C                     ...   1588
   Maximum angular momentum in Aux-C        ...      4
Auxiliary 'external' fitting basis          ... NOT available
Integral threshold                          ...     2.500000e-11
Primitive cut-off                           ...     2.500000e-12
Primitive pair pre-selection threshold      ...     2.500000e-12

Calculating pre-screening integrals         ... done (  0.2 sec) Dimension = 810
Organizing shell pair data                  ... done (  1.3 sec)
Shell pair information
Total number of shell pairs                 ...    328455
Shell pairs after pre-screening             ...    174305
Total number of primitive shell pairs       ...   1027488
Primitive shell pairs kept                  ...    327032
          la=0 lb=0:  41236 shell pairs
          la=1 lb=0:  51085 shell pairs
          la=1 lb=1:  15630 shell pairs
          la=2 lb=0:  24590 shell pairs
          la=2 lb=1:  15681 shell pairs
          la=2 lb=2:   3766 shell pairs
          la=3 lb=0:  11013 shell pairs
          la=3 lb=1:   7288 shell pairs
          la=3 lb=2:   3274 shell pairs
          la=3 lb=3:    742 shell pairs

Calculating one electron integrals          ... done (  0.3 sec)
Calculating RI/J V-Matrix + Cholesky decomp.... done (  0.4 sec)
Calculating RI/C V-Matrix + Cholesky decomp.... done (  0.9 sec)
Calculating Nuclear repulsion               ... done (  0.0 sec) ENN=   8864.365113403752 Eh

SHARK setup successfully completed in   4.2 seconds

Maximum memory used throughout the entire GTOINT-calculation: 302.9 MB


           ************************************************************
           *        Program running with 8 parallel MPI-processes     *
           *              working on a common directory               *
           ************************************************************
-------------------------------------------------------------------------------
                                 ORCA SCF
-------------------------------------------------------------------------------

------------
SCF SETTINGS
------------
Hamiltonian:
 Density Functional     Method          .... DFT(GTOs)
 Exchange Functional    Exchange        .... B88
   X-Alpha parameter    XAlpha          ....  0.666667
   Becke's b parameter  XBeta           ....  0.004200
 Correlation Functional Correlation     .... LYP
 LDA part of GGA corr.  LDAOpt          .... VWN-3
 Gradients option       PostSCFGGA      .... off
 Hybrid DFT is turned on
   Fraction HF Exchange ScalHFX         ....  0.530000
   Scaling of DF-GGA-X  ScalDFX         ....  0.470000
   Scaling of DF-GGA-C  ScalDFC         ....  0.730000
   Scaling of DF-LDA-C  ScalLDAC        ....  0.730000
   Perturbative correction              ....  0.270000
   Density functional embedding theory  .... OFF
   NL short-range parameter             ....  7.800000
 RI-approximation to the Coulomb term is turned on
   Number of AuxJ basis functions       .... 3390
   RIJ-COSX (HFX calculated with COS-X)).... on


General Settings:
 Integral files         IntName         .... CA_1_M06L_def2TZVP_coords
 Hartree-Fock type      HFTyp           .... RHF
 Total Charge           Charge          ....    0
 Multiplicity           Mult            ....    1
 Number of Electrons    NEL             ....  410
 Basis Dimension        Dim             .... 2114
 Nuclear Repulsion      ENuc            ....   8864.3651134038 Eh

Convergence Acceleration:
 DIIS                   CNVDIIS         .... on
   Start iteration      DIISMaxIt       ....    12
   Startup error        DIISStart       ....  0.200000
   # of expansion vecs  DIISMaxEq       ....     5
   Bias factor          DIISBfac        ....   1.050
   Max. coefficient     DIISMaxC        ....  10.000
 Trust-Rad. Augm. Hess. CNVTRAH         .... auto
   Auto Start mean grad. ratio tolernc. ....  1.125000
   Auto Start start iteration           ....    20
   Auto Start num. interpolation iter.  ....    10
   Max. Number of Micro iterations      ....    16
   Max. Number of Macro iterations      .... Maxiter - #DIIS iter
   Number of Davidson start vectors     ....     2
   Converg. threshold I  (grad. norm)   ....   1.000e-05
   Converg. threshold II (energy diff.) ....   1.000e-08
   Grad. Scal. Fac. for Micro threshold ....   0.100
   Minimum threshold for Micro iter.    ....   0.010
   NR start threshold (gradient norm)   ....   0.001
   Initial trust radius                 ....   0.400
   Minimum AH scaling param. (alpha)    ....   1.000
   Maximum AH scaling param. (alpha)    .... 1000.000
   Orbital update algorithm             .... Taylor
   White noise on init. David. guess    .... on
   Maximum white noise                  ....   0.010
   Quad. conv. algorithm                .... NR
 SOSCF                  CNVSOSCF        .... on
   Start iteration      SOSCFMaxIt      ....   150
   Startup grad/error   SOSCFStart      ....  0.003300
 Level Shifting         CNVShift        .... on
   Level shift para.    LevelShift      ....    0.2500
   Turn off err/grad.   ShiftErr        ....    0.0010
 Zerner damping         CNVZerner       .... off
 Static damping         CNVDamp         .... on
   Fraction old density DampFac         ....    0.7000
   Max. Damping (<1)    DampMax         ....    0.9800
   Min. Damping (>=0)   DampMin         ....    0.0000
   Turn off err/grad.   DampErr         ....    0.1000
 Fernandez-Rico         CNVRico         .... off

SCF Procedure:
 Maximum # iterations   MaxIter         ....   125
 SCF integral mode      SCFMode         .... Direct
   Integral package                     .... SHARK and LIBINT hybrid scheme
 Reset frequency        DirectResetFreq ....    20
 Integral Threshold     Thresh          ....  2.500e-11 Eh
 Primitive CutOff       TCut            ....  2.500e-12 Eh

Convergence Tolerance:
 Convergence Check Mode ConvCheckMode   .... Total+1el-Energy
 Convergence forced     ConvForced      .... 1
 Energy Change          TolE            ....  1.000e-08 Eh
 1-El. energy change                    ....  1.000e-05 Eh
 Orbital Gradient       TolG            ....  1.000e-05
 Orbital Rotation angle TolX            ....  1.000e-05
 DIIS Error             TolErr          ....  5.000e-07


Diagonalization of the overlap matrix:
Smallest eigenvalue                        ... 6.531e-07
Time for diagonalization                   ...    0.526 sec
Threshold for overlap eigenvalues          ... 1.000e-08
Number of eigenvalues below threshold      ... 0
Time for construction of square roots      ...    0.389 sec
Total time needed                          ...    0.926 sec

Time for model grid setup =    1.166 sec

------------------------------
INITIAL GUESS: MODEL POTENTIAL
------------------------------
Loading Hartree-Fock densities                     ... done
Calculating cut-offs                               ... done
Initializing the effective Hamiltonian             ... done
Setting up the integral package (SHARK)            ... done
Starting the Coulomb interaction                   ... done (   4.1 sec)
Reading the grid                                   ... done
Mapping shells                                     ... done
Starting the XC term evaluation                    ... done (   1.1 sec)
  promolecular density results
     # of electrons  =    409.979198240
     EX              =   -337.267431322
     EC              =     -4.742070822
     EX+EC           =   -342.009502144
Transforming the Hamiltonian                       ... done (   0.3 sec)
Diagonalizing the Hamiltonian                      ... done (   0.5 sec)
Back transforming the eigenvectors                 ... done (   0.2 sec)
Now organizing SCF variables                       ... done
                      ------------------
                      INITIAL GUESS DONE (   7.5 sec)
                      ------------------
-------------------
DFT GRID GENERATION
-------------------

General Integration Accuracy     IntAcc      ... 4.388
Radial Grid Type                 RadialGrid  ... OptM3 with GC (2021)
Angular Grid (max. ang.)         AngularGrid ... 4 (Lebedev-302)
Angular grid pruning method      GridPruning ... 4 (adaptive)
Weight generation scheme         WeightScheme... Becke
Basis function cutoff            BFCut       ... 1.0000e-11
Integration weight cutoff        WCut        ... 1.0000e-14
Angular grids for H and He will be reduced by one unit
Partially contracted basis set               ... off
Rotationally invariant grid construction     ... off

Total number of grid points                  ...   466420
Total number of batches                      ...     7334
Average number of points per batch           ...       63
Average number of grid points per atom       ...     4962
Time for grid setup =    4.198 sec

--------------------
COSX GRID GENERATION
--------------------

GRIDX 1
-------
General Integration Accuracy     IntAcc      ... 3.816
Radial Grid Type                 RadialGrid  ... OptM3 with GC (2021)
Angular Grid (max. ang.)         AngularGrid ... 1 (Lebedev-50)
Angular grid pruning method      GridPruning ... 4 (adaptive)
Weight generation scheme         WeightScheme... Becke
Basis function cutoff            BFCut       ... 1.0000e-11
Integration weight cutoff        WCut        ... 1.0000e-14
Angular grids for H and He will be reduced by one unit
Partially contracted basis set               ... on
Rotationally invariant grid construction     ... off

Total number of grid points                  ...    58958
Total number of batches                      ...      958
Average number of points per batch           ...       61
Average number of grid points per atom       ...      627
UseSFitting                                  ... on

GRIDX 2
-------
General Integration Accuracy     IntAcc      ... 4.020
Radial Grid Type                 RadialGrid  ... OptM3 with GC (2021)
Angular Grid (max. ang.)         AngularGrid ... 2 (Lebedev-110)
Angular grid pruning method      GridPruning ... 4 (adaptive)
Weight generation scheme         WeightScheme... Becke
Basis function cutoff            BFCut       ... 1.0000e-11
Integration weight cutoff        WCut        ... 1.0000e-14
Angular grids for H and He will be reduced by one unit
Partially contracted basis set               ... on
Rotationally invariant grid construction     ... off

Total number of grid points                  ...   128124
Total number of batches                      ...     2046
Average number of points per batch           ...       62
Average number of grid points per atom       ...     1363
UseSFitting                                  ... on

GRIDX 3
-------
General Integration Accuracy     IntAcc      ... 4.338
Radial Grid Type                 RadialGrid  ... OptM3 with GC (2021)
Angular Grid (max. ang.)         AngularGrid ... 3 (Lebedev-194)
Angular grid pruning method      GridPruning ... 4 (adaptive)
Weight generation scheme         WeightScheme... Becke
Basis function cutoff            BFCut       ... 1.0000e-11
Integration weight cutoff        WCut        ... 1.0000e-14
Angular grids for H and He will be reduced by one unit
Partially contracted basis set               ... on
Rotationally invariant grid construction     ... off

Total number of grid points                  ...   279023
Total number of batches                      ...     4404
Average number of points per batch           ...       63
Average number of grid points per atom       ...     2968
UseSFitting                                  ... on

Time for X-Grid setup             =    7.986 sec


--------------------
CPCM SOLVATION MODEL
--------------------
CPCM parameters:
  Epsilon                                         ...      35.6880
  Refrac                                          ...       1.3442
  Rsolv                                           ...       1.3000
  Surface type                                    ... GAUSSIAN VDW
  Epsilon function type                           ...         CPCM
Solvent:                                     ... ACETONITRILE
SMD-CDS solvent descriptors:
  Soln                                       ...    1.3442
  Soln25                                     ...    1.3416
  Sola                                       ...    0.0700
  Solb                                       ...    0.3200
  Solg                                       ...   41.2500
  Solc                                       ...    0.0000
  Solh                                       ...    0.0000
Radii:
 Radius for C  used is    3.4960 Bohr (=   1.8500 Ang.)
 Radius for N  used is    3.5716 Bohr (=   1.8900 Ang.)
 Radius for H  used is    2.2677 Bohr (=   1.2000 Ang.)
Calculating surface                               ...        done! (  0.0s)
GEPOL surface points                              ...         5147
GEPOL Volume                                      ...    5213.8636
GEPOL Surface-area                                ...    2597.6709
Calculating surface distance matrix               ...        done! (  0.1s)
Performing Cholesky decomposition & store         ...        done! (  0.8s)
Overall time for CPCM initialization              ...                 0.9s
--------------
SCF ITERATIONS
--------------
ITER       Energy         Delta-E        Max-DP      RMS-DP      [F,P]     Damp
               ***  Starting incremental Fock matrix formation  ***
  0  -2475.8640446439   0.000000000000 0.14202787  0.00065095  0.2394467 0.7000
  1  -2476.4544923746  -0.590447730688 0.13128274  0.00054920  0.1203909 0.7000
                               ***Turning on DIIS***
  2  -2476.7659707120  -0.311478337442 0.11831371  0.00102087  0.0482600 0.0000
  3  -2477.2980591260  -0.532088413955 0.24983977  0.00066207  0.0535445 0.0000
  4  -2477.3639937859  -0.065934659931 0.07924721  0.00023226  0.0153084 0.0000
  5  -2477.3668662493  -0.002872463414 0.03746752  0.00011002  0.0088257 0.0000
                      *** Initiating the SOSCF procedure ***
                           *** Shutting down DIIS ***
                      *** Re-Reading the Fockian *** 
                      *** Removing any level shift *** 
ITER      Energy       Delta-E        Grad      Rot      Max-DP    RMS-DP
  6  -2477.36739488  -0.0005286287  0.000713  0.000713  0.017810  0.000051
               *** Restarting incremental Fock matrix formation ***
  7  -2477.36693911   0.0004557697  0.000344  0.001141  0.026595  0.000211
  8  -2477.36695739  -0.0000182858  0.000264  0.001219  0.009305  0.000092
  9  -2477.36696015  -0.0000027557  0.000114  0.000318  0.011437  0.000083
 10  -2477.36696284  -0.0000026934  0.000027  0.000062  0.002508  0.000013
 11  -2477.36696295  -0.0000001050  0.000027  0.000058  0.001859  0.000008
 12  -2477.36696317  -0.0000002178  0.000004  0.000021  0.005057  0.000012
 13  -2477.36696291   0.0000002550  0.000005  0.000006  0.002534  0.000007
                  ***Gradient check signals convergence***
              ***Rediagonalizing the Fockian in SOSCF/NRSCF***

               *****************************************************
               *                     SUCCESS                       *
               *           SCF CONVERGED AFTER  14 CYCLES          *
               *****************************************************

Old exchange energy                            =   -181.433517765 Eh
New exchange energy                            =   -181.433218820 Eh
Exchange energy change after final integration =      0.000298945 Eh
Total energy after final integration           =  -2477.366664156 Eh
Final COS-X integration done in                =   215.377 sec

SMD CDS free energy correction energy :               -10.20255     Kcal/mol
Total Energy after SMD CDS correction =             -2477.382922961 Eh

----------------
TOTAL SCF ENERGY
----------------

Total Energy       :        -2477.38292296 Eh          -67413.01655 eV

Components:
Nuclear Repulsion  :         8864.36511340 Eh          241211.63770 eV
Electronic Energy  :       -11341.74803636 Eh         -308624.65424 eV
One Electron Energy:       -21015.33859116 Eh         -571856.43568 eV
Two Electron Energy:         9673.59055480 Eh          263231.78144 eV
Max COSX asymmetry :            0.00000349 Eh               0.00010 eV
CPCM Dielectric    :           -0.07469327 Eh              -2.03251 eV
SMD CDS (Gcds)     :           -0.01625880 Eh              -0.44242 eV

Virial components:
Potential Energy   :        -4946.85791564 Eh         -134610.84737 eV
Kinetic Energy     :         2469.47499268 Eh           67197.83082 eV
Virial Ratio       :            2.00320227


DFT components:
N(Alpha)           :      205.000004787025 electrons
N(Beta)            :      205.000004787025 electrons
N(Total)           :      410.000009574050 electrons
E(X)               :     -161.230437383874 Eh       
E(C)               :      -10.293319829504 Eh       
E(XC)              :     -171.523757213378 Eh       
DFET-embed. en.    :        0.000000000000 Eh       
CPCM Solvation Model Properties:
Surface-charge          :           -0.09034316
Charge-correction       :            0.00071825 Eh               0.01954 eV
Free-energy (cav+disp)  :           -0.01625880 Eh              -0.44242 eV

---------------
SCF CONVERGENCE
---------------

  Last Energy change         ...   -1.9011e-07  Tolerance :   1.0000e-08
  Last MAX-Density change    ...    2.2204e-15  Tolerance :   1.0000e-07
  Last RMS-Density change    ...    1.0251e-17  Tolerance :   5.0000e-09
  Last Orbital Gradient      ...    1.0594e-06  Tolerance :   1.0000e-05
  Last Orbital Rotation      ...    4.2842e-06  Tolerance :   1.0000e-05

             **** THE GBW FILE WAS UPDATED (CA_1_M06L_def2TZVP_coords.gbw) ****
             **** DENSITY CA_1_M06L_def2TZVP_coords.scfp WAS UPDATED ****
             **** ENERGY FILE WAS UPDATED (CA_1_M06L_def2TZVP_coords.en.tmp) ****
             **** THE GBW FILE WAS UPDATED (CA_1_M06L_def2TZVP_coords.gbw) ****
             **** DENSITY CA_1_M06L_def2TZVP_coords.scfp WAS UPDATED ****
----------------
ORBITAL ENERGIES
----------------

  NO   OCC          E(Eh)            E(eV) 
   0   2.0000     -14.904793      -405.5800 
   1   2.0000     -14.902138      -405.5078 
   2   2.0000     -14.901827      -405.4993 
   3   2.0000     -14.896528      -405.3551 
   4   2.0000     -14.862411      -404.4268 
   5   2.0000     -14.862314      -404.4241 
   6   2.0000     -10.724346      -291.8243 
   7   2.0000     -10.721683      -291.7518 
   8   2.0000     -10.721637      -291.7506 
   9   2.0000     -10.704784      -291.2920 
  10   2.0000     -10.690849      -290.9128 
  11   2.0000     -10.690685      -290.9083 
  12   2.0000     -10.683198      -290.7046 
  13   2.0000     -10.683136      -290.7029 
  14   2.0000     -10.667132      -290.2674 
  15   2.0000     -10.666862      -290.2601 
  16   2.0000     -10.665890      -290.2336 
  17   2.0000     -10.665775      -290.2305 
  18   2.0000     -10.664982      -290.2089 
  19   2.0000     -10.664820      -290.2045 
  20   2.0000     -10.662351      -290.1373 
  21   2.0000     -10.661937      -290.1261 
  22   2.0000     -10.626495      -289.1616 
  23   2.0000     -10.625864      -289.1445 
  24   2.0000     -10.625636      -289.1383 
  25   2.0000     -10.625545      -289.1358 
  26   2.0000     -10.625005      -289.1211 
  27   2.0000     -10.624916      -289.1187 
  28   2.0000     -10.623293      -289.0745 
  29   2.0000     -10.622667      -289.0575 
  30   2.0000     -10.621793      -289.0337 
  31   2.0000     -10.621765      -289.0329 
  32   2.0000     -10.621560      -289.0274 
  33   2.0000     -10.621445      -289.0242 
  34   2.0000     -10.621251      -289.0189 
  35   2.0000     -10.621193      -289.0173 
  36   2.0000     -10.621053      -289.0135 
  37   2.0000     -10.621005      -289.0122 
  38   2.0000     -10.620623      -289.0019 
  39   2.0000     -10.620589      -289.0009 
  40   2.0000     -10.619878      -288.9816 
  41   2.0000     -10.619735      -288.9777 
  42   2.0000     -10.619708      -288.9770 
  43   2.0000     -10.619604      -288.9741 
  44   2.0000     -10.619537      -288.9723 
  45   2.0000     -10.619536      -288.9723 
  46   2.0000     -10.619465      -288.9703 
  47   2.0000     -10.619394      -288.9684 
  48   2.0000     -10.618354      -288.9401 
  49   2.0000     -10.618346      -288.9399 
  50   2.0000     -10.618329      -288.9394 
  51   2.0000     -10.618136      -288.9342 
  52   2.0000     -10.617442      -288.9153 
  53   2.0000     -10.617241      -288.9098 
  54   2.0000     -10.613141      -288.7983 
  55   2.0000     -10.613065      -288.7962 
  56   2.0000     -10.612770      -288.7881 
  57   2.0000     -10.612764      -288.7880 
  58   2.0000     -10.612703      -288.7863 
  59   2.0000     -10.612602      -288.7836 
  60   2.0000     -10.611407      -288.7511 
  61   2.0000     -10.611219      -288.7459 
  62   2.0000      -1.165931       -31.7266 
  63   2.0000      -1.152700       -31.3666 
  64   2.0000      -1.148726       -31.2584 
  65   2.0000      -1.131761       -30.7968 
  66   2.0000      -1.066614       -29.0240 
  67   2.0000      -1.062897       -28.9229 
  68   2.0000      -1.039397       -28.2834 
  69   2.0000      -1.001908       -27.2633 
  70   2.0000      -0.998549       -27.1719 
  71   2.0000      -0.983627       -26.7658 
  72   2.0000      -0.982182       -26.7265 
  73   2.0000      -0.981602       -26.7108 
  74   2.0000      -0.980782       -26.6884 
  75   2.0000      -0.978935       -26.6382 
  76   2.0000      -0.971361       -26.4321 
  77   2.0000      -0.939645       -25.5690 
  78   2.0000      -0.931765       -25.3546 
  79   2.0000      -0.908101       -24.7107 
  80   2.0000      -0.903805       -24.5938 
  81   2.0000      -0.900858       -24.5136 
  82   2.0000      -0.889042       -24.1921 
  83   2.0000      -0.874551       -23.7977 
  84   2.0000      -0.873971       -23.7819 
  85   2.0000      -0.873403       -23.7665 
  86   2.0000      -0.871371       -23.7112 
  87   2.0000      -0.858830       -23.3700 
  88   2.0000      -0.856196       -23.2983 
  89   2.0000      -0.849692       -23.1213 
  90   2.0000      -0.836075       -22.7507 
  91   2.0000      -0.835486       -22.7347 
  92   2.0000      -0.835204       -22.7271 
  93   2.0000      -0.833173       -22.6718 
  94   2.0000      -0.830230       -22.5917 
  95   2.0000      -0.790391       -21.5076 
  96   2.0000      -0.785849       -21.3840 
  97   2.0000      -0.756171       -20.5765 
  98   2.0000      -0.749102       -20.3841 
  99   2.0000      -0.736585       -20.0435 
 100   2.0000      -0.735977       -20.0270 
 101   2.0000      -0.717454       -19.5229 
 102   2.0000      -0.711759       -19.3680 
 103   2.0000      -0.711123       -19.3506 
 104   2.0000      -0.707016       -19.2389 
 105   2.0000      -0.705307       -19.1924 
 106   2.0000      -0.704279       -19.1644 
 107   2.0000      -0.685590       -18.6558 
 108   2.0000      -0.681557       -18.5461 
 109   2.0000      -0.675579       -18.3834 
 110   2.0000      -0.673741       -18.3334 
 111   2.0000      -0.672931       -18.3114 
 112   2.0000      -0.670702       -18.2507 
 113   2.0000      -0.656990       -17.8776 
 114   2.0000      -0.643676       -17.5153 
 115   2.0000      -0.637852       -17.3568 
 116   2.0000      -0.620214       -16.8769 
 117   2.0000      -0.617954       -16.8154 
 118   2.0000      -0.607339       -16.5265 
 119   2.0000      -0.604479       -16.4487 
 120   2.0000      -0.603449       -16.4207 
 121   2.0000      -0.598844       -16.2954 
 122   2.0000      -0.595914       -16.2157 
 123   2.0000      -0.593719       -16.1559 
 124   2.0000      -0.590773       -16.0757 
 125   2.0000      -0.586657       -15.9638 
 126   2.0000      -0.570394       -15.5212 
 127   2.0000      -0.569975       -15.5098 
 128   2.0000      -0.545636       -14.8475 
 129   2.0000      -0.541282       -14.7290 
 130   2.0000      -0.540979       -14.7208 
 131   2.0000      -0.539365       -14.6769 
 132   2.0000      -0.538525       -14.6540 
 133   2.0000      -0.533601       -14.5200 
 134   2.0000      -0.533088       -14.5061 
 135   2.0000      -0.532911       -14.5012 
 136   2.0000      -0.532212       -14.4822 
 137   2.0000      -0.522027       -14.2051 
 138   2.0000      -0.521209       -14.1828 
[...]
   192a -> 206a  :     0.059220 
   195a -> 206a  :     0.483774 
   195a -> 209a  :     0.014580 
   198a -> 216a  :     0.012644 
   200a -> 213a  :     0.010270 
   200a -> 218a  :     0.021624 
   201a -> 211a  :     0.023153 
   202a -> 207a  :     0.017948 
   202a -> 209a  :     0.032608 
   202a -> 213a  :     0.018429 
   204a -> 214a  :     0.080235 


-------------------------
TD-DFT-EXCITATION SPECTRA
-------------------------

Center of mass = (  0.0297, -0.0008, -0.0004)
Calculating the Dipole integrals                  ... done
Transforming integrals                            ... done
Calculating the Linear Momentum integrals         ... done
Transforming integrals                            ... done
Calculating angular momentum integrals            ... done
Transforming integrals                            ... done

-----------------------------------------------------------------------------
         ABSORPTION SPECTRUM VIA TRANSITION ELECTRIC DIPOLE MOMENTS
-----------------------------------------------------------------------------
State   Energy    Wavelength  fosc         T2        TX        TY        TZ  
        (cm-1)      (nm)                 (au**2)    (au)      (au)      (au) 
-----------------------------------------------------------------------------
   1   22003.9    454.5   0.144557523   2.16280  -0.02195   1.38662  -0.48951
   2   24478.5    408.5   0.051506440   0.69271   0.83226   0.00713   0.00255
   3   24127.7    414.5   0.040612768   0.55414  -0.10776  -0.69815   0.23478
   4   25807.2    387.5   0.328496882   4.19050   2.04636  -0.05358   0.00559
   5   24849.2    402.4   0.000540679   0.00716   0.03126  -0.05627   0.05496
   6   25948.3    385.4   0.007674028   0.09736   0.31134  -0.01110   0.01743
   7   27099.3    369.0   0.003391503   0.04120   0.00029   0.02612  -0.20129
   8   27631.8    361.9   0.001998760   0.02381  -0.14201  -0.03343   0.05028
   9   27838.2    359.2   0.133617204   1.58014   0.01913   1.08816  -0.62904
  10   27382.9    365.2   0.000261155   0.00314   0.04491  -0.02913  -0.01657
  11   27864.7    358.9   0.008663306   0.10235   0.31742   0.03081   0.02550
  12   29128.2    343.3   0.087472030   0.98862  -0.99418  -0.01313   0.00744
  13   31507.7    317.4   0.000798588   0.00834  -0.05771  -0.01838  -0.06838
  14   30071.2    332.5   0.002763278   0.03025  -0.04988   0.04604  -0.16014
  15   32795.9    304.9   0.077353890   0.77649   0.86858  -0.13876   0.05296
  16   32791.6    305.0   0.037719619   0.37869  -0.08717  -0.56564   0.22613
  17   32487.7    307.8   0.009082092   0.09203  -0.27923  -0.11699   0.01943
  18   34681.2    288.3   0.107139340   1.01702  -0.04429  -0.89614  -0.46043
  19   34832.8    287.1   0.098675188   0.93260   0.19577  -0.48490  -0.81188
  20   36478.8    274.1   0.135851093   1.22602   1.09181   0.08876   0.16152
  21   36504.2    273.9   0.297861015   2.68625   0.04985   1.28378   1.01767
  22   33663.4    297.1   0.373596590   3.65360   0.06579  -1.11860  -1.54855
  23   30959.8    323.0   0.003112702   0.03310  -0.17625  -0.01145  -0.04363
  24   31669.5    315.8   0.002737209   0.02845  -0.01131   0.16803   0.00967
  25   35548.1    281.3   0.085665375   0.79335   0.87824  -0.07152   0.13010
  26   36950.5    270.6   0.048627824   0.43325   0.13956   0.36771  -0.52779
  27   36566.9    273.5   0.051604787   0.46460  -0.09183  -0.67531  -0.01134
  28   36229.5    276.0   0.010013845   0.09099   0.29160  -0.05713   0.05197
  29   36129.3    276.8   0.053969073   0.49177  -0.48913   0.25934   0.43043
  30   38874.5    257.2   0.054413180   0.46080   0.66534   0.04930   0.12528
  31   37939.1    263.6   0.055468759   0.48132   0.66483  -0.19786   0.01337
  32   39598.1    252.5   0.093134600   0.77431  -0.44592  -0.70230  -0.28678
  33   40974.9    244.1   0.216538428   1.73977  -0.11376   0.67671   1.12645
  34   39866.5    250.8   0.008741406   0.07219   0.21416   0.05491   0.15266
  35   38186.7    261.9   0.008025631   0.06919   0.00359  -0.22436  -0.13725
  36   40415.1    247.4   0.145616469   1.18616  -0.59970   0.59122   0.69063
  37   39006.4    256.4   0.145095101   1.22460  -0.71321  -0.54548  -0.64682
  38   36997.2    270.3   0.018232166   0.16224   0.39352  -0.04185   0.07500
  39   39302.2    254.4   0.087048503   0.72916   0.14833   0.78113   0.31142
  40   39128.0    255.6   0.046501499   0.39125   0.02500  -0.17019  -0.60138
  41   40026.3    249.8   0.002759220   0.02269  -0.04257  -0.09404   0.10972
  42   40100.2    249.4   0.055333334   0.45427  -0.00929  -0.65982   0.13719
  43   39805.8    251.2   0.208958428   1.72818   0.03050  -1.11802  -0.69085
  44   38817.2    257.6   0.093944521   0.79675  -0.86512  -0.21099  -0.06170
  45   41006.6    243.9   0.313554821   2.51730   0.09780  -1.49510  -0.52193
  46   41924.5    238.5   0.148528958   1.16632  -1.00100   0.36181  -0.18277
  47   42914.3    233.0   0.586946247   4.50269   0.29533   1.51612  -1.45494
  48   43037.8    232.4   0.131054825   1.00249  -0.72388  -0.22987  -0.65241
  49   42498.8    235.3   0.692394831   5.36356  -0.46366   1.21044   1.91922
  50   42520.7    235.2   0.264650635   2.04903  -1.38373  -0.13958  -0.33890
  51   42522.5    235.2   0.108948041   0.84348   0.10829   0.79161   0.45290
  52   42573.0    234.9   0.341956266   2.64431   1.62592  -0.01649  -0.02044
  53   39495.7    253.2   0.053262379   0.44396   0.55066   0.21490   0.30749
  54   41652.6    240.1   0.765619848   6.05127   0.12154   1.84016   1.62797
  55   39775.6    251.4   0.052667144   0.43591  -0.09551   0.55526  -0.34420
  56   39740.4    251.6   0.054645060   0.45268  -0.57795   0.32119   0.12446
  57   41220.4    242.6   0.626472532   5.00340  -0.12175   2.09813   0.76578
  58   43922.4    227.7   0.212309975   1.59133   1.24865   0.08192  -0.15966
  59   42662.8    234.4   0.281023705   2.16855  -1.46389  -0.00217  -0.15994
  60   41028.1    243.7   0.157693223   1.26534  -1.11357  -0.14897   0.05577

-----------------------------------------------------------------------------
         ABSORPTION SPECTRUM VIA TRANSITION VELOCITY DIPOLE MOMENTS
-----------------------------------------------------------------------------
State   Energy    Wavelength   fosc        P2         PX        PY        PZ  
        (cm-1)      (nm)                 (au**2)     (au)      (au)      (au) 
-----------------------------------------------------------------------------
   1   22003.9    454.5   0.242163467   0.03642   0.00287  -0.17987   0.06369
   2   24478.5    408.5   0.079659093   0.01333  -0.11544  -0.00099  -0.00035
   3   24127.7    414.5   0.069532511   0.01147   0.01554   0.10062  -0.03317
   4   25807.2    387.5   0.501268301   0.08841  -0.29724   0.00779  -0.00078
   5   24849.2    402.4   0.000921639   0.00016  -0.00470   0.00857  -0.00781
   6   25948.3    385.4   0.012648322   0.00224  -0.04726   0.00168  -0.00265
   7   27099.3    369.0   0.005461769   0.00101  -0.00002  -0.00395   0.03156
   8   27631.8    361.9   0.003257678   0.00062   0.02280   0.00535  -0.00816
   9   27838.2    359.2   0.218948378   0.04166  -0.00312  -0.17614   0.10306
  10   27382.9    365.2   0.000444532   0.00008  -0.00725   0.00480   0.00276
  11   27864.7    358.9   0.014711228   0.00280  -0.05252  -0.00507  -0.00422
  12   29128.2    343.3   0.140237236   0.02792   0.16707   0.00221  -0.00127
  13   31507.7    317.4   0.001070922   0.00023   0.00920   0.00317   0.01166
  14   30071.2    332.5   0.004031060   0.00083   0.00856  -0.00768   0.02639
  15   32795.9    304.9   0.102827025   0.02305  -0.14963   0.02396  -0.00915
  16   32791.6    305.0   0.050469382   0.01131   0.01504   0.09785  -0.03886
  17   32487.7    307.8   0.012429432   0.00276   0.04834   0.02028  -0.00337
  18   34681.2    288.3   0.127373731   0.03019   0.00767   0.15443   0.07926
  19   34832.8    287.1   0.118040809   0.02810  -0.03406   0.08418   0.14091
  20   36478.8    274.1   0.149983419   0.03739  -0.19067  -0.01556  -0.02819
  21   36504.2    273.9   0.331735024   0.08276  -0.00874  -0.22539  -0.17857
  22   33663.4    297.1   0.496769076   0.11429  -0.01159   0.19777   0.27395
  23   30959.8    323.0   0.005157846   0.00109   0.03201   0.00208   0.00792
  24   31669.5    315.8   0.004505769   0.00098   0.00210  -0.03112  -0.00155
  25   35548.1    281.3   0.125417554   0.03047  -0.17210   0.01409  -0.02556
  26   36950.5    270.6   0.066667267   0.01684  -0.02750  -0.07245   0.10407
  27   36566.9    273.5   0.072672902   0.01816   0.01800   0.13354   0.00204
  28   36229.5    276.0   0.014728126   0.00365  -0.05842   0.01149  -0.01008
  29   36129.3    276.8   0.078688676   0.01943   0.09750  -0.05143  -0.08532
  30   38874.5    257.2   0.069627469   0.01850  -0.13335  -0.00983  -0.02489
  31   37939.1    263.6   0.076163232   0.01975  -0.13457   0.04041  -0.00232
  32   39598.1    252.5   0.118723425   0.03213   0.09056   0.14297   0.05906
  33   40974.9    244.1   0.262871651   0.07362   0.02341  -0.13917  -0.23173
  34   39866.5    250.8   0.011476303   0.00313  -0.04480  -0.01142  -0.03146
  35   38186.7    261.9   0.011277545   0.00294  -0.00023   0.04624   0.02838
  36   40415.1    247.4   0.184388665   0.05093   0.12361  -0.12328  -0.14302
  37   39006.4    256.4   0.197121238   0.05255   0.14717   0.11367   0.13406
  38   36997.2    270.3   0.027467007   0.00695  -0.08144   0.00869  -0.01542
  39   39302.2    254.4   0.117143172   0.03147  -0.03076  -0.16203  -0.06532
  40   39128.0    255.6   0.063511740   0.01698  -0.00521   0.03508   0.12541
  41   40026.3    249.8   0.003658906   0.00100   0.00867   0.01983  -0.02307
  42   40100.2    249.4   0.073864136   0.02024   0.00197   0.13933  -0.02876
  43   39805.8    251.2   0.287464266   0.07821  -0.00644   0.23782   0.14699
  44   38817.2    257.6   0.136990282   0.03634   0.18477   0.04503   0.01319
  45   41006.6    243.9   0.410078855   0.11493  -0.02090   0.31942   0.11163
  46   41924.5    238.5   0.189252413   0.05423   0.21588  -0.07793   0.03934
  47   42914.3    233.0   0.722029629   0.21177  -0.06402  -0.32917   0.31515
  48   43037.8    232.4   0.160301940   0.04715   0.15696   0.04970   0.14158
  49   42498.8    235.3   0.869874119   0.25266   0.10063  -0.26263  -0.41661
  50   42520.7    235.2   0.332142483   0.09652   0.30033   0.03017   0.07357
  51   42522.5    235.2   0.139287236   0.04048  -0.02350  -0.17348  -0.09915
  52   42573.0    234.9   0.437385497   0.12726  -0.35669   0.00371   0.00443
  53   39495.7    253.2   0.079357488   0.02142  -0.12099  -0.04747  -0.06730
  54   41652.6    240.1   1.034219216   0.29442  -0.02670  -0.40647  -0.35845
  55   39775.6    251.4   0.079229681   0.02154   0.02113  -0.12339   0.07659
  56   39740.4    251.6   0.082415141   0.02238   0.12866  -0.07122  -0.02754
  57   41220.4    242.6   0.875075984   0.24653   0.02702  -0.46586  -0.16961
  58   43922.4    227.7   0.263990768   0.07925  -0.27865  -0.01826   0.03559
  59   42662.8    234.4   0.375432270   0.10947   0.32894   0.00046   0.03560
  60   41028.1    243.7   0.228188115   0.06399   0.25043   0.03345  -0.01240

-------------------------------------------------------------------
                             CD SPECTRUM
-------------------------------------------------------------------
State  Energy     Wavelength     R         MX        MY        MZ   
       (cm-1)       (nm)     (1e40*cgs)   (au)      (au)      (au)  
-------------------------------------------------------------------
   1   22003.9    454.5     52.29145   0.00241   0.11126   0.08847
   2   24478.5    408.5      9.19159   0.02341   0.00313  -0.00211
   3   24127.7    414.5     39.29167   0.00340  -0.11432   0.01660
   4   25807.2    387.5    -120.58777  -0.12557  -0.01953   0.02501
   5   24849.2    402.4     -9.45490   0.01638   0.04488  -0.32829
   6   25948.3    385.4    -44.19091  -0.29970   0.01473  -0.01497
   7   27099.3    369.0    -19.80604  -0.01959  -0.06855   0.19978
   8   27631.8    361.9     -4.86778   0.06821  -0.00557  -0.01640
   9   27838.2    359.2    -153.51322   0.01739   0.02464   0.56081
  10   27382.9    365.2      0.75775   0.03701   0.01579  -0.02445
  11   27864.7    358.9     26.85499   0.17994   0.01181  -0.02035
  12   29128.2    343.3      5.72836  -0.01230   0.00369  -0.00439
  13   31507.7    317.4      0.36688  -0.06250  -0.02830   0.04897
  14   30071.2    332.5      9.68859   0.00104   0.16171  -0.08217
  15   32795.9    304.9     32.40339   0.08170  -0.00091  -0.04457
  16   32791.6    305.0    -18.62226   0.04315  -0.01710  -0.20081
  17   32487.7    307.8     18.41610  -0.14157   0.00006  -0.02364
  18   34681.2    288.3    192.33448   0.01240  -0.78386   0.63839
  19   34832.8    287.1    -285.39082   0.23067  -0.30901   0.98579
  20   36478.8    274.1    679.45250   1.35483   0.07915  -0.27890
  21   36504.2    273.9    -38.79077   0.07417  -0.98817   1.16209
  22   33663.4    297.1    -293.13386   0.12498  -0.07161   0.45856
  23   30959.8    323.0     -8.49530   0.09605  -0.00870   0.02727
  24   31669.5    315.8      1.42695  -0.01250   0.01441   0.04808
  25   35548.1    281.3    144.04279   0.35426  -0.02713  -0.05792
  26   36950.5    270.6    -70.58874   0.10571  -0.16173   0.19896
  27   36566.9    273.5     56.01041   0.04183  -0.17998  -0.09720
  28   36229.5    276.0     45.07896   0.30404  -0.07990   0.04611
  29   36129.3    276.8    -57.37644   0.03433  -0.00309  -0.24187
  30   38874.5    257.2    -163.16918  -0.51155   0.00580  -0.04816
  31   37939.1    263.6    231.80920   0.65031  -0.28750   0.18424
  32   39598.1    252.5    215.62620  -0.43157  -0.65129   0.67117
  33   40974.9    244.1    -600.28143  -0.20960   0.74948  -1.60174
  34   39866.5    250.8     66.07546   0.73830   0.00913  -0.12094
  35   38186.7    261.9     -1.29338   0.11710  -0.08587   0.16343
  36   40415.1    247.4    124.98086  -0.27976  -0.67066   0.71505
  37   39006.4    256.4     95.40906  -0.30978   0.40652  -0.31413
  38   36997.2    270.3    162.77537   0.90268   0.02962  -0.11626
  39   39302.2    254.4     25.89812   0.15628   0.14076  -0.25110
  40   39128.0    255.6    -99.64893   0.20897  -0.29680   0.44415
  41   40026.3    249.8    -12.33194   0.30601   0.04024  -0.08517
  42   40100.2    249.4    -31.39951  -0.10401   0.04810  -0.26118
  43   39805.8    251.2    -209.84325   0.01626   1.44757  -1.69764
  44   38817.2    257.6     -2.61898   0.01738  -0.03863  -0.02155
  45   41006.6    243.9    340.76330   0.07117  -0.44758  -0.08940
  46   41924.5    238.5      5.85594  -0.00203   0.04565   0.03351
  47   42914.3    233.0    -244.48816   0.03572   0.18062   0.55190
  48   43037.8    232.4    -395.09092   0.92173  -0.02606   0.27099
  49   42498.8    235.3    -741.29864  -0.10495   0.11759  -0.91880
  50   42520.7    235.2    1071.98328  -1.67449   0.03014   0.11517
  51   42522.5    235.2     18.15710   0.13622   0.91937  -1.55446
  52   42573.0    234.9    170.74136   0.22287   0.02938  -0.01373
  53   39495.7    253.2     22.02236   0.13757  -0.15463   0.01362
  54   41652.6    240.1    -302.18321   0.12377  -0.43851   0.09270
  55   39775.6    251.4     65.10984  -0.08733   0.29321   0.09600
  56   39740.4    251.6     -6.71182   0.01013  -0.07264   0.12012
  57   41220.4    242.6    -122.32109  -0.13290  -0.39266   0.71590
  58   43922.4    227.7    137.79828   0.25413  -0.02842   0.14222
  59   42662.8    234.4    -27.92138   0.03140   0.01077   0.08279
  60   41028.1    243.7    238.28730  -0.45687  -0.00702  -0.07834

Total run time:   218030.147 sec

           *** ORCA-CIS/TD-DFT FINISHED WITHOUT ERROR ***

Maximum memory used throughout the entire CIS-calculation: 29300.1 MB

-----------------------
CIS/TD-DFT TOTAL ENERGY
-----------------------

    E(SCF)  =  -2477.382922961 Eh
    DE(CIS) =      0.100257113 Eh (Root  1)
    ----------------------------- ---------
    E(tot)  =  -2477.282665848 Eh



-------------------------------------------------------------------------------
                          DFT DISPERSION CORRECTION                            
                                                                               
                              DFTD3 V3.1  Rev 1                                
                          USING Becke-Johnson damping                          
-------------------------------------------------------------------------------
The B2PLYP functional is recognized
Active option DFTDOPT                   ...         4   

molecular C6(AA) [au] = 128979.013863 


            DFT-D V3
 parameters
 s6 scaling factor         :     0.6400 
 a1 scaling factor         :     0.3065 
 s8 scaling factor         :     0.9147 
 a2 scaling factor         :     5.0570 
 ad hoc parameters k1-k3   :    16.0000     1.3333    -4.0000 

 Edisp/kcal,au: -92.277711404427  -0.147053877870 
 E6   /kcal   : -52.158489669 
 E8   /kcal   : -40.119221736 
 % E8         :  43.476611118 

-------------------------   ----------------
Dispersion correction           -0.147053878
-------------------------   ----------------


-------------------------   --------------------
FINAL SINGLE POINT ENERGY     -2477.429719725525
-------------------------   --------------------


                            ***************************************
                            *     ORCA property calculations      *
                            ***************************************


  WARNING: The energy has been calculated at the MP2 level but the densities
           used in the property calculations are still SCF densities
           MP2 response densities have not been calculated 
           use %mp2 Density relaxed end
           or  %mp2 Density unrelaxed end

                                    ---------------------
                                    Active property flags
                                    ---------------------
   (+) Dipole Moment


------------------------------------------------------------------------------
                       ORCA ELECTRIC PROPERTIES CALCULATION
------------------------------------------------------------------------------

Dipole Moment Calculation                       ... on
Quadrupole Moment Calculation                   ... off
Polarizability Calculation                      ... off
GBWName                                         ... CA_1_M06L_def2TZVP_coords.gbw
Electron density                                ... CA_1_M06L_def2TZVP_coords.scfp
The origin for moment calculation is the CENTER OF MASS  = ( 0.029678, -0.000838 -0.000422)

-------------
DIPOLE MOMENT
-------------
                                X             Y             Z
Electronic contribution:     10.30904      -0.29859      -0.16529
Nuclear contribution   :    -12.16803       0.34345       0.17306
                        -----------------------------------------
Total Dipole Moment    :     -1.85899       0.04486       0.00777
                        -----------------------------------------
Magnitude (a.u.)       :      1.85955
Magnitude (Debye)      :      4.72660



--------------------
Rotational spectrum 
--------------------
 
Rotational constants in cm-1:     0.001908     0.001510     0.001076 
Rotational constants in MHz :    57.202954    45.270471    32.244588 

 Dipole components along the rotational axes: 
x,y,z [a.u.] :    -1.859022     0.043542     0.008141 
x,y,z [Debye]:    -4.725258     0.110676     0.020692 

 

Timings for individual modules:

Sum of individual times         ...   223487.547 sec (=3724.792 min)
GTO integral calculation        ...        4.678 sec (=   0.078 min)   0.0 %
SCF iterations                  ...     1475.674 sec (=  24.595 min)   0.7 %
MP2 module                      ...     3976.100 sec (=  66.268 min)   1.8 %
CIS module                      ...   218031.095 sec (=3633.852 min)  97.6 %
                             ****ORCA TERMINATED NORMALLY****
TOTAL RUN TIME: 2 days 14 hours 4 minutes 55 seconds 551 msec
