 Entering Gaussian System, Link 0=g09
 Input=/home/png4rjv/fotokatalizis/benchmark/OPCs/CA_50_states/CA_1_M06L_def2TZVP.gjf
 Output=/home/png4rjv/fotokatalizis/benchmark/OPCs/CA_50_states/CA_1_M06L_def2TZVP.log
 Initial command:
 /opt/nce/packages/global/g09/l1.exe "/home/png4rjv/fotokatalizis/benchmark/OPCs/CA_50_states/CA_1_M06L_def2TZVP/Gau-45603.inp" -scrdir="/home/png4rjv/fotokatalizis/benchmark/OPCs/CA_50_states/CA_1_M06L_def2TZVP/"
 Default is to use a total of  12 processors:
                               12 via shared-memory
                                1 via Linda
 Entering Link 1 = /opt/nce/packages/global/g09/l1.exe PID=     45604.
  
 Copyright (c) 1988,1990,1992,1993,1995,1998,2003,2009,2015,
            Gaussian, Inc.  All Rights Reserved.
  
 This is part of the Gaussian(R) 09 program.  It is based on
 the Gaussian(R) 03 system (copyright 2003, Gaussian, Inc.),
 the Gaussian(R) 98 system (copyright 1998, Gaussian, Inc.),
 the Gaussian(R) 94 system (copyright 1995, Gaussian, Inc.),
 the Gaussian 92(TM) system (copyright 1992, Gaussian, Inc.),
 the Gaussian 90(TM) system (copyright 1990, Gaussian, Inc.),
 the Gaussian 88(TM) system (copyright 1988, Gaussian, Inc.),
 the Gaussian 86(TM) system (copyright 1986, Carnegie Mellon
 University), and the Gaussian 82(TM) system (copyright 1983,
 Carnegie Mellon University). Gaussian is a federally registered
 trademark of Gaussian, Inc.
  
 This software contains proprietary and confidential information,
 including trade secrets, belonging to Gaussian, Inc.
  
 This software is provided under written license and may be
 used, copied, transmitted, or stored only in accord with that
 written license.
  
 The following legend is applicable only to US Government
 contracts under FAR:
  
                    RESTRICTED RIGHTS LEGEND
  
 Use, reproduction and disclosure by the US Government is
 subject to restrictions as set forth in subparagraphs (a)
 and (c) of the Commercial Computer Software - Restricted
 Rights clause in FAR 52.227-19.
  
 Gaussian, Inc.
 340 Quinnipiac St., Bldg. 40, Wallingford CT 06492
  
  
 ---------------------------------------------------------------
 Warning -- This program may not be used in any manner that
 competes with the business of Gaussian, Inc. or will provide
 assistance to any competitor of Gaussian, Inc.  The licensee
 of this program is prohibited from giving any competitor of
 Gaussian, Inc. access to this program.  By using this program,
 the user acknowledges that Gaussian, Inc. is engaged in the
 business of creating and licensing software in the field of
 computational chemistry and represents and warrants to the
 licensee that it is not a competitor of Gaussian, Inc. and that
 it will not use this program in any manner prohibited above.
 ---------------------------------------------------------------
  

 Cite this work as:
 Gaussian 09, Revision E.01,
 M. J. Frisch, G. W. Trucks, H. B. Schlegel, G. E. Scuseria, 
 M. A. Robb, J. R. Cheeseman, G. Scalmani, V. Barone, B. Mennucci, 
 G. A. Petersson, H. Nakatsuji, M. Caricato, X. Li, H. P. Hratchian, 
 A. F. Izmaylov, J. Bloino, G. Zheng, J. L. Sonnenberg, M. Hada, 
 M. Ehara, K. Toyota, R. Fukuda, J. Hasegawa, M. Ishida, T. Nakajima, 
 Y. Honda, O. Kitao, H. Nakai, T. Vreven, J. A. Montgomery, Jr., 
 J. E. Peralta, F. Ogliaro, M. Bearpark, J. J. Heyd, E. Brothers, 
 K. N. Kudin, V. N. Staroverov, T. Keith, R. Kobayashi, J. Normand, 
 K. Raghavachari, A. Rendell, J. C. Burant, S. S. Iyengar, J. Tomasi, 
 M. Cossi, N. Rega, J. M. Millam, M. Klene, J. E. Knox, J. B. Cross, 
 V. Bakken, C. Adamo, J. Jaramillo, R. Gomperts, R. E. Stratmann, 
 O. Yazyev, A. J. Austin, R. Cammi, C. Pomelli, J. W. Ochterski, 
 R. L. Martin, K. Morokuma, V. G. Zakrzewski, G. A. Voth, 
 P. Salvador, J. J. Dannenberg, S. Dapprich, A. D. Daniels, 
 O. Farkas, J. B. Foresman, J. V. Ortiz, J. Cioslowski, 
 and D. J. Fox, Gaussian, Inc., Wallingford CT, 2013.
 
 ******************************************
 Gaussian 09:  ES64L-G09RevE.01 30-Nov-2015
                28-Jun-2022 
 ******************************************
 %chk=cp.chk
 Default route:  MaxDisk=500GB
 ----------------------------------------------------------------------
 #p m06l/def2TZVP td=(NStates=50) int=ultrafine scrf=(SMD,solvent=Aceto
 nitrile)
 ----------------------------------------------------------------------
 1/38=1/1;
 2/12=2,17=6,18=5,40=1/2;
 3/5=44,7=101,11=9,16=1,25=1,30=1,70=32201,72=2,74=-53,75=-5/1,2,8,3;
 4//1;
 5/5=2,38=5,53=2/2;
 8/6=1,10=1,108=50/1;
 9/41=50,42=1,70=2/14;
 6/7=2,8=2,9=2,10=2/1;
 99/5=1,9=1/99;
 Leave Link    1 at Tue Jun 28 20:30:22 2022, MaxMem=           0 cpu:         0.9
 (Enter /opt/nce/packages/global/g09/l101.exe)
 -----
 Title
 -----
 Symbolic Z-matrix:
 Charge =  0 Multiplicity = 1
 C                     0.13708  -1.17921   0.3193 
 C                    -0.55557  -0.00183  -0.00879 
 C                     0.17542   1.14901  -0.35453 
 C                     1.58093   1.11156  -0.37593 
 C                     2.27561  -0.04696  -0.00772 
 C                     1.54385  -1.18686   0.34407 
 C                     2.29712   2.21799  -0.89758 
 C                     2.21958  -2.32286   0.85557 
 N                     2.88133   3.11142  -1.34291 
 N                     2.77151  -3.24147   1.29073 
 N                    -0.54324  -2.34995   0.66816 
 C                    -1.50614  -2.4884    1.67145 
 C                    -0.46524  -3.5592   -0.03591 
 C                    -1.86852  -1.59254   2.6648 
 C                    -2.06134  -3.77986   1.59079 
 C                     0.31174  -3.8815   -1.13825 
 C                    -1.39983  -4.45894   0.50924 
 C                    -2.85713  -1.98677   3.55238 
 H                    -1.39445  -0.62439   2.75418 
 C                    -3.04734  -4.1552    2.49889 
 C                     0.15766  -5.14809  -1.6801 
 H                     1.00342  -3.17104  -1.57402 
 C                    -1.5371   -5.72402  -0.05534 
 C                    -3.44897  -3.24908   3.46604 
 H                    -3.167    -1.30239   4.33239 
 H                    -3.48555  -5.14437   2.45065 
 C                    -0.75209  -6.06227  -1.14424 
 H                     0.75434  -5.42893  -2.53844 
 H                    -2.2548   -6.42664   0.34981 
 H                    -4.2179   -3.52573   4.17562 
 H                    -0.84662  -7.04305  -1.59183 
 N                    -1.95705   0.03452   0.02265 
 C                    -2.72329   0.88714   0.82078 
 C                    -2.82597  -0.76917  -0.71854 
 C                    -2.3039    1.80349   1.77278 
 C                    -4.0871    0.63375   0.57977 
 C                    -2.53349  -1.71965  -1.68518 
 C                    -4.1524   -0.42587  -0.3898 
 C                    -3.27937   2.51716   2.45074 
 H                    -1.25502   1.9458    1.9975 
 C                    -5.04907   1.35954   1.278 
 C                    -3.59784  -2.37067  -2.2884 
 H                    -1.51429  -1.93831  -1.97547 
 C                    -5.20461  -1.09027  -1.01445 
 C                    -4.63782   2.30703   2.20027 
 H                    -2.97802   3.24468   3.19419 
 H                    -6.10241   1.17673   1.10477 
 C                    -4.91983  -2.06831  -1.95219 
 H                    -3.39544  -3.12362  -3.04004 
 H                    -6.22944  -0.83798  -0.77143 
 H                    -5.37474   2.88169   2.74615 
 H                    -5.72777  -2.59663  -2.44142 
 N                    -0.47107   2.33134  -0.72616 
 C                    -0.35293   3.56244  -0.06641 
 C                    -1.43757   2.46289  -1.72746 
 C                     0.44525   3.90428   1.01463 
 C                    -1.26881   4.46734  -0.63442 
 C                    -1.82863   1.54485  -2.68877 
 C                    -1.95674   3.77063  -1.68793 
 C                     0.32982   5.1925    1.51297 
 H                     1.12481   3.19253   1.4667 
 C                    -1.36739   5.75468  -0.11369 
 C                    -2.81014   1.93586  -3.5856 
 H                    -1.38091   0.5618   -2.74824 
 C                    -2.93667   4.14252  -2.60425 
 C                    -0.56252   6.11044   0.95479 
 H                     0.94418   5.4881    2.35372 
 H                    -2.0704    6.46128  -0.53718 
 C                    -3.36737   3.21587  -3.53881 
 H                    -3.14212   1.23454  -4.34107 
 H                    -3.34792   5.1442   -2.58711 
 H                    -0.62668   7.10858   1.36809 
 H                    -4.13204   3.48958  -4.25412 
 N                     3.67041  -0.05889   0.01234 
 C                     4.49945  -0.92779  -0.70614 
 C                     4.47884   0.8135    0.75012 
 C                     4.15614  -1.92991  -1.60096 
 C                     5.84036  -0.60371  -0.42471 
 C                     4.10785   1.81358   1.63581 
 C                     5.82727   0.4975    0.50012 
 C                     5.18973  -2.63092  -2.20169 
 H                     3.12315  -2.15872  -1.82983 
 C                     6.85968  -1.32162  -1.04402 
 C                     5.12221   2.52335   2.25843 
 H                     3.06809   2.03515   1.84064 
 C                     6.82728   1.22378   1.14126 
 C                     6.52641  -2.33538  -1.92536 
 H                     4.95142  -3.4215   -2.90157 
 H                     7.8961   -1.0829   -0.83981 
 C                     6.46689   2.2372    2.01229 
 H                     4.86242   3.31321   2.95146 
 H                     7.8698    0.99261   0.96072 
 H                     7.30821  -2.90328  -2.41276 
 H                     7.23355   2.8119    2.51553 
 
 NAtoms=     94 NQM=       94 NQMF=       0 NMMI=      0 NMMIF=      0
                NMic=       0 NMicF=      0.
                    Isotopes and Nuclear Properties:
 (Nuclear quadrupole moments (NQMom) in fm**2, nuclear magnetic moments (NMagM)
  in nuclear magnetons)

  Atom         1           2           3           4           5           6           7           8           9          10
 IAtWgt=          12          12          12          12          12          12          12          12          14          14
 AtmWgt=  12.0000000  12.0000000  12.0000000  12.0000000  12.0000000  12.0000000  12.0000000  12.0000000  14.0030740  14.0030740
 NucSpn=           0           0           0           0           0           0           0           0           2           2
 AtZEff=   0.0000000   0.0000000   0.0000000   0.0000000   0.0000000   0.0000000   0.0000000   0.0000000   0.0000000   0.0000000
 NQMom=    0.0000000   0.0000000   0.0000000   0.0000000   0.0000000   0.0000000   0.0000000   0.0000000   2.0440000   2.0440000
 NMagM=    0.0000000   0.0000000   0.0000000   0.0000000   0.0000000   0.0000000   0.0000000   0.0000000   0.4037610   0.4037610
 AtZNuc=   6.0000000   6.0000000   6.0000000   6.0000000   6.0000000   6.0000000   6.0000000   6.0000000   7.0000000   7.0000000

  Atom        11          12          13          14          15          16          17          18          19          20
 IAtWgt=          14          12          12          12          12          12          12          12           1          12
 AtmWgt=  14.0030740  12.0000000  12.0000000  12.0000000  12.0000000  12.0000000  12.0000000  12.0000000   1.0078250  12.0000000
 NucSpn=           2           0           0           0           0           0           0           0           1           0
 AtZEff=   0.0000000   0.0000000   0.0000000   0.0000000   0.0000000   0.0000000   0.0000000   0.0000000   0.0000000   0.0000000
 NQMom=    2.0440000   0.0000000   0.0000000   0.0000000   0.0000000   0.0000000   0.0000000   0.0000000   0.0000000   0.0000000
 NMagM=    0.4037610   0.0000000   0.0000000   0.0000000   0.0000000   0.0000000   0.0000000   0.0000000   2.7928460   0.0000000
 AtZNuc=   7.0000000   6.0000000   6.0000000   6.0000000   6.0000000   6.0000000   6.0000000   6.0000000   1.0000000   6.0000000

  Atom        21          22          23          24          25          26          27          28          29          30
 IAtWgt=          12           1          12          12           1           1          12           1           1           1
 AtmWgt=  12.0000000   1.0078250  12.0000000  12.0000000   1.0078250   1.0078250  12.0000000   1.0078250   1.0078250   1.0078250
 NucSpn=           0           1           0           0           1           1           0           1           1           1
 AtZEff=   0.0000000   0.0000000   0.0000000   0.0000000   0.0000000   0.0000000   0.0000000   0.0000000   0.0000000   0.0000000
 NQMom=    0.0000000   0.0000000   0.0000000   0.0000000   0.0000000   0.0000000   0.0000000   0.0000000   0.0000000   0.0000000
 NMagM=    0.0000000   2.7928460   0.0000000   0.0000000   2.7928460   2.7928460   0.0000000   2.7928460   2.7928460   2.7928460
 AtZNuc=   6.0000000   1.0000000   6.0000000   6.0000000   1.0000000   1.0000000   6.0000000   1.0000000   1.0000000   1.0000000

  Atom        31          32          33          34          35          36          37          38          39          40
 IAtWgt=           1          14          12          12          12          12          12          12          12           1
 AtmWgt=   1.0078250  14.0030740  12.0000000  12.0000000  12.0000000  12.0000000  12.0000000  12.0000000  12.0000000   1.0078250
 NucSpn=           1           2           0           0           0           0           0           0           0           1
 AtZEff=   0.0000000   0.0000000   0.0000000   0.0000000   0.0000000   0.0000000   0.0000000   0.0000000   0.0000000   0.0000000
 NQMom=    0.0000000   2.0440000   0.0000000   0.0000000   0.0000000   0.0000000   0.0000000   0.0000000   0.0000000   0.0000000
 NMagM=    2.7928460   0.4037610   0.0000000   0.0000000   0.0000000   0.0000000   0.0000000   0.0000000   0.0000000   2.7928460
 AtZNuc=   1.0000000   7.0000000   6.0000000   6.0000000   6.0000000   6.0000000   6.0000000   6.0000000   6.0000000   1.0000000

  Atom        41          42          43          44          45          46          47          48          49          50
 IAtWgt=          12          12           1          12          12           1           1          12           1           1
 AtmWgt=  12.0000000  12.0000000   1.0078250  12.0000000  12.0000000   1.0078250   1.0078250  12.0000000   1.0078250   1.0078250
 NucSpn=           0           0           1           0           0           1           1           0           1           1
 AtZEff=   0.0000000   0.0000000   0.0000000   0.0000000   0.0000000   0.0000000   0.0000000   0.0000000   0.0000000   0.0000000
 NQMom=    0.0000000   0.0000000   0.0000000   0.0000000   0.0000000   0.0000000   0.0000000   0.0000000   0.0000000   0.0000000
 NMagM=    0.0000000   0.0000000   2.7928460   0.0000000   0.0000000   2.7928460   2.7928460   0.0000000   2.7928460   2.7928460
 AtZNuc=   6.0000000   6.0000000   1.0000000   6.0000000   6.0000000   1.0000000   1.0000000   6.0000000   1.0000000   1.0000000

  Atom        51          52          53          54          55          56          57          58          59          60
 IAtWgt=           1           1          14          12          12          12          12          12          12          12
 AtmWgt=   1.0078250   1.0078250  14.0030740  12.0000000  12.0000000  12.0000000  12.0000000  12.0000000  12.0000000  12.0000000
 NucSpn=           1           1           2           0           0           0           0           0           0           0
 AtZEff=   0.0000000   0.0000000   0.0000000   0.0000000   0.0000000   0.0000000   0.0000000   0.0000000   0.0000000   0.0000000
 NQMom=    0.0000000   0.0000000   2.0440000   0.0000000   0.0000000   0.0000000   0.0000000   0.0000000   0.0000000   0.0000000
 NMagM=    2.7928460   2.7928460   0.4037610   0.0000000   0.0000000   0.0000000   0.0000000   0.0000000   0.0000000   0.0000000
 AtZNuc=   1.0000000   1.0000000   7.0000000   6.0000000   6.0000000   6.0000000   6.0000000   6.0000000   6.0000000   6.0000000

  Atom        61          62          63          64          65          66          67          68          69          70
 IAtWgt=           1          12          12           1          12          12           1           1          12           1
 AtmWgt=   1.0078250  12.0000000  12.0000000   1.0078250  12.0000000  12.0000000   1.0078250   1.0078250  12.0000000   1.0078250
 NucSpn=           1           0           0           1           0           0           1           1           0           1
 AtZEff=   0.0000000   0.0000000   0.0000000   0.0000000   0.0000000   0.0000000   0.0000000   0.0000000   0.0000000   0.0000000
 NQMom=    0.0000000   0.0000000   0.0000000   0.0000000   0.0000000   0.0000000   0.0000000   0.0000000   0.0000000   0.0000000
 NMagM=    2.7928460   0.0000000   0.0000000   2.7928460   0.0000000   0.0000000   2.7928460   2.7928460   0.0000000   2.7928460
 AtZNuc=   1.0000000   6.0000000   6.0000000   1.0000000   6.0000000   6.0000000   1.0000000   1.0000000   6.0000000   1.0000000

  Atom        71          72          73          74          75          76          77          78          79          80
 IAtWgt=           1           1           1          14          12          12          12          12          12          12
 AtmWgt=   1.0078250   1.0078250   1.0078250  14.0030740  12.0000000  12.0000000  12.0000000  12.0000000  12.0000000  12.0000000
 NucSpn=           1           1           1           2           0           0           0           0           0           0
 AtZEff=   0.0000000   0.0000000   0.0000000   0.0000000   0.0000000   0.0000000   0.0000000   0.0000000   0.0000000   0.0000000
 NQMom=    0.0000000   0.0000000   0.0000000   2.0440000   0.0000000   0.0000000   0.0000000   0.0000000   0.0000000   0.0000000
 NMagM=    2.7928460   2.7928460   2.7928460   0.4037610   0.0000000   0.0000000   0.0000000   0.0000000   0.0000000   0.0000000
 AtZNuc=   1.0000000   1.0000000   1.0000000   7.0000000   6.0000000   6.0000000   6.0000000   6.0000000   6.0000000   6.0000000

  Atom        81          82          83          84          85          86          87          88          89          90
 IAtWgt=          12           1          12          12           1          12          12           1           1          12
 AtmWgt=  12.0000000   1.0078250  12.0000000  12.0000000   1.0078250  12.0000000  12.0000000   1.0078250   1.0078250  12.0000000
 NucSpn=           0           1           0           0           1           0           0           1           1           0
 AtZEff=   0.0000000   0.0000000   0.0000000   0.0000000   0.0000000   0.0000000   0.0000000   0.0000000   0.0000000   0.0000000
 NQMom=    0.0000000   0.0000000   0.0000000   0.0000000   0.0000000   0.0000000   0.0000000   0.0000000   0.0000000   0.0000000
 NMagM=    0.0000000   2.7928460   0.0000000   0.0000000   2.7928460   0.0000000   0.0000000   2.7928460   2.7928460   0.0000000
 AtZNuc=   6.0000000   1.0000000   6.0000000   6.0000000   1.0000000   6.0000000   6.0000000   1.0000000   1.0000000   6.0000000

  Atom        91          92          93          94
 IAtWgt=           1           1           1           1
 AtmWgt=   1.0078250   1.0078250   1.0078250   1.0078250
 NucSpn=           1           1           1           1
 AtZEff=   0.0000000   0.0000000   0.0000000   0.0000000
 NQMom=    0.0000000   0.0000000   0.0000000   0.0000000
 NMagM=    2.7928460   2.7928460   2.7928460   2.7928460
 AtZNuc=   1.0000000   1.0000000   1.0000000   1.0000000
 Leave Link  101 at Tue Jun 28 20:30:22 2022, MaxMem=  5242880000 cpu:         1.2
 (Enter /opt/nce/packages/global/g09/l202.exe)
 Stoichiometry    C56H32N6
 Framework group  C1[X(C56H32N6)]
 Deg. of freedom   276
 Full point group                 C1      NOp   1
 Largest Abelian subgroup         C1      NOp   1
 Largest concise Abelian subgroup C1      NOp   1
                         Standard orientation:                         
 ---------------------------------------------------------------------
 Center     Atomic      Atomic             Coordinates (Angstroms)
 Number     Number       Type             X           Y           Z
 ---------------------------------------------------------------------
      1          6           0        0.137083   -1.179213    0.319302
      2          6           0       -0.555569   -0.001826   -0.008794
      3          6           0        0.175420    1.149009   -0.354530
      4          6           0        1.580930    1.111562   -0.375929
      5          6           0        2.275613   -0.046958   -0.007715
      6          6           0        1.543850   -1.186856    0.344073
      7          6           0        2.297115    2.217986   -0.897582
      8          6           0        2.219580   -2.322864    0.855571
      9          7           0        2.881333    3.111419   -1.342910
     10          7           0        2.771509   -3.241468    1.290731
     11          7           0       -0.543238   -2.349952    0.668156
     12          6           0       -1.506144   -2.488400    1.671448
     13          6           0       -0.465239   -3.559196   -0.035914
     14          6           0       -1.868522   -1.592535    2.664795
     15          6           0       -2.061336   -3.779856    1.590785
     16          6           0        0.311744   -3.881500   -1.138253
     17          6           0       -1.399829   -4.458942    0.509240
     18          6           0       -2.857134   -1.986766    3.552384
     19          1           0       -1.394448   -0.624389    2.754184
     20          6           0       -3.047337   -4.155204    2.498889
     21          6           0        0.157664   -5.148087   -1.680098
     22          1           0        1.003422   -3.171041   -1.574021
     23          6           0       -1.537104   -5.724015   -0.055342
     24          6           0       -3.448965   -3.249083    3.466040
     25          1           0       -3.166999   -1.302386    4.332385
     26          1           0       -3.485545   -5.144370    2.450650
     27          6           0       -0.752090   -6.062270   -1.144235
     28          1           0        0.754340   -5.428933   -2.538440
     29          1           0       -2.254800   -6.426638    0.349808
     30          1           0       -4.217901   -3.525728    4.175616
     31          1           0       -0.846620   -7.043053   -1.591828
     32          7           0       -1.957045    0.034524    0.022646
     33          6           0       -2.723290    0.887142    0.820775
     34          6           0       -2.825974   -0.769174   -0.718542
     35          6           0       -2.303904    1.803494    1.772775
     36          6           0       -4.087098    0.633746    0.579768
     37          6           0       -2.533493   -1.719645   -1.685180
     38          6           0       -4.152398   -0.425874   -0.389802
     39          6           0       -3.279366    2.517164    2.450736
     40          1           0       -1.255016    1.945799    1.997504
     41          6           0       -5.049069    1.359541    1.278002
     42          6           0       -3.597844   -2.370669   -2.288401
     43          1           0       -1.514287   -1.938310   -1.975471
     44          6           0       -5.204607   -1.090270   -1.014446
     45          6           0       -4.637822    2.307027    2.200268
     46          1           0       -2.978017    3.244684    3.194185
     47          1           0       -6.102414    1.176730    1.104767
     48          6           0       -4.919825   -2.068311   -1.952185
     49          1           0       -3.395443   -3.123621   -3.040036
     50          1           0       -6.229437   -0.837978   -0.771433
     51          1           0       -5.374743    2.881690    2.746148
     52          1           0       -5.727769   -2.596627   -2.441424
     53          7           0       -0.471067    2.331344   -0.726157
     54          6           0       -0.352926    3.562440   -0.066413
     55          6           0       -1.437566    2.462894   -1.727464
     56          6           0        0.445247    3.904276    1.014629
     57          6           0       -1.268811    4.467345   -0.634419
     58          6           0       -1.828630    1.544848   -2.688766
     59          6           0       -1.956736    3.770634   -1.687931
     60          6           0        0.329821    5.192501    1.512973
     61          1           0        1.124811    3.192526    1.466697
     62          6           0       -1.367394    5.754680   -0.113689
     63          6           0       -2.810139    1.935855   -3.585595
     64          1           0       -1.380909    0.561797   -2.748243
     65          6           0       -2.936672    4.142522   -2.604249
     66          6           0       -0.562516    6.110438    0.954791
     67          1           0        0.944181    5.488101    2.353721
     68          1           0       -2.070403    6.461282   -0.537183
     69          6           0       -3.367365    3.215866   -3.538810
     70          1           0       -3.142116    1.234543   -4.341070
     71          1           0       -3.347923    5.144204   -2.587114
     72          1           0       -0.626678    7.108575    1.368086
     73          1           0       -4.132043    3.489582   -4.254121
     74          7           0        3.670411   -0.058886    0.012338
     75          6           0        4.499451   -0.927788   -0.706143
     76          6           0        4.478841    0.813498    0.750115
     77          6           0        4.156141   -1.929909   -1.600958
     78          6           0        5.840359   -0.603714   -0.424713
     79          6           0        4.107847    1.813576    1.635813
     80          6           0        5.827267    0.497495    0.500116
     81          6           0        5.189731   -2.630917   -2.201690
     82          1           0        3.123145   -2.158722   -1.829827
     83          6           0        6.859680   -1.321615   -1.044022
     84          6           0        5.122212    2.523350    2.258430
     85          1           0        3.068086    2.035151    1.840638
     86          6           0        6.827280    1.223780    1.141263
     87          6           0        6.526405   -2.335376   -1.925355
     88          1           0        4.951417   -3.421501   -2.901571
     89          1           0        7.896096   -1.082900   -0.839810
     90          6           0        6.466887    2.237204    2.012286
     91          1           0        4.862416    3.313209    2.951459
     92          1           0        7.869796    0.992610    0.960721
     93          1           0        7.308210   -2.903277   -2.412756
     94          1           0        7.233550    2.811895    2.515526
 ---------------------------------------------------------------------
 Rotational constants (GHZ):      0.0572502      0.0453083      0.0322714
 Leave Link  202 at Tue Jun 28 20:30:22 2022, MaxMem=  5242880000 cpu:         0.1
 (Enter /opt/nce/packages/global/g09/l301.exe)
 Standard basis: def2TZVP (5D, 7F)
 Ernie: Thresh=  0.10000D-02 Tol=  0.10000D-05 Strict=F.
 There are  2424 symmetry adapted cartesian basis functions of A   symmetry.
 There are  2114 symmetry adapted basis functions of A   symmetry.
  2114 basis functions,  3418 primitive gaussians,  2424 cartesian basis functions
   205 alpha electrons      205 beta electrons
       nuclear repulsion energy      8864.3651563244 Hartrees.
 IExCor= 4134 DFT=T Ex+Corr=M06L ExCW=0 ScaHFX=  0.000000
 ScaDFX=  1.000000  1.000000  1.000000  1.000000 ScalE2=  1.000000  1.000000
 IRadAn=      5 IRanWt=     -1 IRanGd=            0 ICorTp=0 IEmpDi=  4
 NAtoms=   94 NActive=   94 NUniq=   94 SFac= 1.00D+00 NAtFMM=   60 NAOKFM=T Big=T
 Integral buffers will be    131072 words long.
 Regular integral format.
 Two-electron integral symmetry is turned on.
 ------------------------------------------------------------------------------
 Polarizable Continuum Model (PCM)
 =================================
 Model                : PCM (using non-symmetric T matrix).
 Atomic radii         : SMD-Coulomb.
 Polarization charges : Total charges.
 Charge compensation  : None.
 Solution method      : On-the-fly selection.
 Cavity type          : VdW (van der Waals Surface) (Alpha=1.000).
 Cavity algorithm     : GePol (No added spheres)
                        Default sphere list used, NSphG=   94.
                        Lebedev-Laikov grids with approx.  5.0 points / Ang**2.
                        Smoothing algorithm: York/Karplus (Gamma=1.0000).
                        Polarization charges: spherical gaussians, with
                                              point-specific exponents (IZeta= 3).
                        Self-potential: point-specific (ISelfS= 7).
                        Self-field    : sphere-specific E.n sum rule (ISelfD= 2).
 Solvent              : Acetonitrile, Eps=  35.688000 Eps(inf)=   1.806874
 ------------------------------------------------------------------------------
 GePol: Number of generator spheres                  =      94
 GePol: Total number of spheres                      =      94
 GePol: Number of exposed spheres                    =      94 (100.00%)
 GePol: Number of points                             =    6974
 GePol: Average weight of points                     =       0.11
 GePol: Minimum weight of points                     =   0.18D-11
 GePol: Maximum weight of points                     =    0.17992
 GePol: Number of points with low weight             =     481
 GePol: Fraction of low-weight points (<1% of avg)   =       6.90%
 GePol: Cavity surface area                          =    733.386 Ang**2
 GePol: Cavity volume                                =    777.243 Ang**3
 ------------------------------------------------------------------------------
 Atomic radii for non-electrostatic terms: SMD-CDS.
 ------------------------------------------------------------------------------
 PCM non-electrostatic energy =        -0.0158667614 Hartrees.
 Nuclear repulsion after PCM non-electrostatic terms =     8864.3492895630 Hartrees.
 Leave Link  301 at Tue Jun 28 20:30:22 2022, MaxMem=  5242880000 cpu:         2.0
 (Enter /opt/nce/packages/global/g09/l302.exe)
 NPDir=0 NMtPBC=     1 NCelOv=     1 NCel=       1 NClECP=     1 NCelD=      1
         NCelK=      1 NCelE2=     1 NClLst=     1 CellRange=     0.0.
 One-electron integrals computed using PRISM.
   1 Symmetry operations used in ECPInt.
 ECPInt:  NShTT=  328455 NPrTT= 1027488 LenC2=  242616 LenP2D=  487637.
 LDataN:  DoStor=T MaxTD1= 6 Len=  172
 NBasis=  2114 RedAO= T EigKep=  2.47D-06  NBF=  2114
 NBsUse=  2113 1.00D-06 EigRej=  6.53D-07 NBFU=  2113
 Precomputing XC quadrature grid using
 IXCGrd= 4 IRadAn=           5 IRanWt=          -1 IRanGd=           0 AccXCQ= 0.00D+00.
 Generated NRdTot=       0 NPtTot=           0 NUsed=           0 NTot=          32
 NSgBfM=  2313  2313  2313  2313  2313 MxSgAt=    94 MxSgA2=    94.
 Leave Link  302 at Tue Jun 28 20:30:36 2022, MaxMem=  5242880000 cpu:       167.9
 (Enter /opt/nce/packages/global/g09/l308.exe)
 Leave Link  308 at Tue Jun 28 20:30:38 2022, MaxMem=  5242880000 cpu:        18.4
 (Enter /opt/nce/packages/global/g09/l303.exe)
 DipDrv:  MaxL=1.
 Leave Link  303 at Tue Jun 28 20:30:39 2022, MaxMem=  5242880000 cpu:        10.1
 (Enter /opt/nce/packages/global/g09/l401.exe)
 ExpMin= 9.52D-02 ExpMax= 1.97D+04 ExpMxC= 6.73D+02 IAcc=3 IRadAn=         5 AccDes= 0.00D+00
 Harris functional with IExCor= 1009 and IRadAn=       5 diagonalized for initial guess.
 HarFok:  IExCor= 1009 AccDes= 0.00D+00 IRadAn=         5 IDoV= 1 UseB2=F ITyADJ=14
 ICtDFT=  3500011 ScaDFX=  1.000000  1.000000  1.000000  1.000000
 FoFCou: FMM=F IPFlag=           0 FMFlag=      100000 FMFlg1=        2001
         NFxFlg=           0 DoJE=T BraDBF=F KetDBF=T FulRan=T
         wScrn=  0.000000 ICntrl=     500 IOpCl=  0 I1Cent=   200000004 NGrid=           0
         NMat0=    1 NMatS0=      1 NMatT0=    0 NMatD0=    1 NMtDS0=    0 NMtDT0=    0
 Petite list used in FoFCou.
 Harris En= -2480.47524878616    
 JPrj=0 DoOrth=F DoCkMO=F.
 Leave Link  401 at Tue Jun 28 20:31:18 2022, MaxMem=  5242880000 cpu:       468.0
 (Enter /opt/nce/packages/global/g09/l502.exe)
 Closed shell SCF:
 Using DIIS extrapolation, IDIIS=  1040.
 Integral symmetry usage will be decided dynamically.
 IVT=    17692622 IEndB=    17692622 NGot=  5242880000 MDV=  5231082219
 LenX=  5231082219 LenY=  5225204019
 Requested convergence on RMS density matrix=1.00D-08 within 128 cycles.
 Requested convergence on MAX density matrix=1.00D-06.
 Requested convergence on             energy=1.00D-06.
 No special actions if energy rises.
 Fock matrices will be formed incrementally for  20 cycles.

 Cycle   1  Pass 1  IDiag  1:
 FoFJK:  IHMeth= 1 ICntrl=     500 DoSepK=F KAlg= 0 I1Cent=   0 FoldK=F
 IRaf= 670000000 NMat=   1 IRICut=       1 DoRegI=T DoRafI=F ISym2E= 0.
 FoFCou: FMM=T IPFlag=           0 FMFlag=      100000 FMFlg1=        2001
         NFxFlg=           0 DoJE=T BraDBF=F KetDBF=F FulRan=T
         wScrn=  0.000000 ICntrl=     500 IOpCl=  0 I1Cent=           0 NGrid=           0
         NMat0=    1 NMatS0=      1 NMatT0=    0 NMatD0=    1 NMtDS0=    0 NMtDT0=    0
 Symmetry not used in FoFCou.
 FMM levels:  10  Number of levels for PrismC:   9
 Inv3:  Mode=1 IEnd=   145910028.
 Iteration    1 A*A^-1 deviation from unit magnitude is 8.33D-15 for   6974.
 Iteration    1 A*A^-1 deviation from orthogonality  is 4.39D-15 for   4202   1888.
 Iteration    1 A^-1*A deviation from unit magnitude is 8.33D-15 for   6974.
 Iteration    1 A^-1*A deviation from orthogonality  is 1.26D-10 for   5356   5302.
 Iteration    2 A*A^-1 deviation from unit magnitude is 2.44D-15 for    166.
 Iteration    2 A*A^-1 deviation from orthogonality  is 3.33D-15 for   5076    647.
 Iteration    2 A^-1*A deviation from unit magnitude is 9.99D-16 for    423.
 Iteration    2 A^-1*A deviation from orthogonality  is 4.12D-16 for   4087   1131.
 E= -2481.17575087312    
 DIIS: error= 1.61D-02 at cycle   1 NSaved=   1.
 NSaved= 1 IEnMin= 1 EnMin= -2481.17575087312     IErMin= 1 ErrMin= 1.61D-02
 ErrMax= 1.61D-02  0.00D+00 EMaxC= 1.00D-01 BMatC= 1.46D+00 BMatP= 1.46D+00
 IDIUse=3 WtCom= 8.39D-01 WtEn= 1.61D-01
 Coeff-Com:  0.100D+01
 Coeff-En:   0.100D+01
 Coeff:      0.100D+01
 Gap=     0.217 Goal=   None    Shift=    0.000
 GapD=    0.217 DampG=1.000 DampE=0.500 DampFc=0.5000 IDamp=-1.
 Damping current iteration by 5.00D-01
 RMSDP=4.42D-03 MaxDP=7.27D-01              OVMax= 7.63D-01

 Cycle   2  Pass 1  IDiag  1:
 RMSU=  2.18D-03    CP:  1.08D+00
 E= -2481.33482905507     Delta-E=       -0.159078181943 Rises=F Damp=T
 DIIS: error= 7.93D-03 at cycle   2 NSaved=   2.
 NSaved= 2 IEnMin= 2 EnMin= -2481.33482905507     IErMin= 2 ErrMin= 7.93D-03
 ErrMax= 7.93D-03  0.00D+00 EMaxC= 1.00D-01 BMatC= 3.40D-01 BMatP= 1.46D+00
 IDIUse=3 WtCom= 9.21D-01 WtEn= 7.93D-02
 Coeff-Com:  0.188D+00 0.812D+00
 Coeff-En:   0.434D+00 0.566D+00
 Coeff:      0.207D+00 0.793D+00
 Gap=    -0.078 Goal=   None    Shift=    0.000
 RMSDP=1.94D-03 MaxDP=2.91D-01 DE=-1.59D-01 OVMax= 5.88D-01

 Cycle   3  Pass 1  IDiag  1:
 RMSU=  1.88D-03    CP:  9.80D-01  8.91D-01
 E= -2481.78494599415     Delta-E=       -0.450116939082 Rises=F Damp=F
 DIIS: error= 1.32D-02 at cycle   3 NSaved=   3.
 NSaved= 3 IEnMin= 3 EnMin= -2481.78494599415     IErMin= 2 ErrMin= 7.93D-03
 ErrMax= 1.32D-02  0.00D+00 EMaxC= 1.00D-01 BMatC= 5.43D-01 BMatP= 3.40D-01
 IDIUse=2 WtCom= 0.00D+00 WtEn= 1.00D+00
 Coeff-En:   0.000D+00 0.320D+00 0.680D+00
 Coeff:      0.000D+00 0.320D+00 0.680D+00
 Gap=     0.208 Goal=   None    Shift=    0.000
 RMSDP=1.56D-03 MaxDP=2.66D-01 DE=-4.50D-01 OVMax= 3.75D-01

 Cycle   4  Pass 1  IDiag  1:
 RMSU=  1.16D-03    CP:  1.03D+00  1.17D+00  5.57D-01
 E= -2481.38366922131     Delta-E=        0.401276772844 Rises=F Damp=F
 DIIS: error= 1.81D-02 at cycle   4 NSaved=   4.
 NSaved= 4 IEnMin= 3 EnMin= -2481.78494599415     IErMin= 2 ErrMin= 7.93D-03
 ErrMax= 1.81D-02  0.00D+00 EMaxC= 1.00D-01 BMatC= 9.45D-01 BMatP= 3.40D-01
 IDIUse=2 WtCom= 0.00D+00 WtEn= 1.00D+00
 Coeff-En:   0.000D+00 0.000D+00 0.586D+00 0.414D+00
 Coeff:      0.000D+00 0.000D+00 0.586D+00 0.414D+00
 Gap=     0.052 Goal=   None    Shift=    0.000
 RMSDP=8.69D-04 MaxDP=1.21D-01 DE= 4.01D-01 OVMax= 2.57D-01

 Cycle   5  Pass 1  IDiag  1:
 RMSU=  4.38D-04    CP:  1.00D+00  9.91D-01  7.50D-01  5.51D-01
 E= -2482.36921243066     Delta-E=       -0.985543209350 Rises=F Damp=F
 DIIS: error= 3.28D-03 at cycle   5 NSaved=   5.
 NSaved= 5 IEnMin= 5 EnMin= -2482.36921243066     IErMin= 5 ErrMin= 3.28D-03
 ErrMax= 3.28D-03  0.00D+00 EMaxC= 1.00D-01 BMatC= 4.83D-02 BMatP= 3.40D-01
 IDIUse=3 WtCom= 9.67D-01 WtEn= 3.28D-02
 Coeff-Com:  0.153D-01-0.571D-02 0.325D+00 0.242D+00 0.424D+00
 Coeff-En:   0.000D+00 0.000D+00 0.000D+00 0.000D+00 0.100D+01
 Coeff:      0.148D-01-0.553D-02 0.314D+00 0.234D+00 0.442D+00
 Gap=     0.084 Goal=   None    Shift=    0.000
 RMSDP=2.52D-04 MaxDP=3.51D-02 DE=-9.86D-01 OVMax= 6.21D-02

 Cycle   6  Pass 1  IDiag  1:
 RMSU=  1.70D-04    CP:  1.01D+00  9.82D-01  7.73D-01  4.62D-01  6.64D-01
 E= -2482.41102674248     Delta-E=       -0.041814311828 Rises=F Damp=F
 DIIS: error= 1.79D-03 at cycle   6 NSaved=   6.
 NSaved= 6 IEnMin= 6 EnMin= -2482.41102674248     IErMin= 6 ErrMin= 1.79D-03
 ErrMax= 1.79D-03  0.00D+00 EMaxC= 1.00D-01 BMatC= 6.70D-03 BMatP= 4.83D-02
 IDIUse=3 WtCom= 9.82D-01 WtEn= 1.79D-02
 Coeff-Com:  0.144D-04-0.883D-02 0.816D-01 0.569D-01 0.269D+00 0.601D+00
 Coeff-En:   0.000D+00 0.000D+00 0.000D+00 0.000D+00 0.107D+00 0.893D+00
 Coeff:      0.142D-04-0.868D-02 0.802D-01 0.559D-01 0.266D+00 0.607D+00
 Gap=     0.086 Goal=   None    Shift=    0.000
 RMSDP=9.68D-05 MaxDP=1.66D-02 DE=-4.18D-02 OVMax= 2.08D-02

 Cycle   7  Pass 1  IDiag  1:
 RMSU=  9.12D-05    CP:  1.01D+00  9.87D-01  7.74D-01  4.68D-01  6.84D-01
                    CP:  8.35D-01
 E= -2482.41426622705     Delta-E=       -0.003239484562 Rises=F Damp=F
 DIIS: error= 1.02D-03 at cycle   7 NSaved=   7.
 NSaved= 7 IEnMin= 7 EnMin= -2482.41426622705     IErMin= 7 ErrMin= 1.02D-03
 ErrMax= 1.02D-03  0.00D+00 EMaxC= 1.00D-01 BMatC= 2.82D-03 BMatP= 6.70D-03
 IDIUse=3 WtCom= 9.90D-01 WtEn= 1.02D-02
 Coeff-Com: -0.245D-02-0.487D-05 0.106D-01 0.250D-02 0.112D+00 0.450D+00
 Coeff-Com:  0.427D+00
 Coeff-En:   0.000D+00 0.000D+00 0.000D+00 0.000D+00 0.000D+00 0.355D+00
 Coeff-En:   0.645D+00
 Coeff:     -0.242D-02-0.482D-05 0.105D-01 0.248D-02 0.111D+00 0.449D+00
 Coeff:      0.430D+00
 Gap=     0.083 Goal=   None    Shift=    0.000
 RMSDP=5.19D-05 MaxDP=6.64D-03 DE=-3.24D-03 OVMax= 1.36D-02

 Cycle   8  Pass 1  IDiag  1:
 RMSU=  3.73D-05    CP:  1.01D+00  9.88D-01  7.71D-01  4.65D-01  7.16D-01
                    CP:  9.38D-01  7.00D-01
 E= -2482.41702747646     Delta-E=       -0.002761249414 Rises=F Damp=F
 DIIS: error= 2.54D-04 at cycle   8 NSaved=   8.
 NSaved= 8 IEnMin= 8 EnMin= -2482.41702747646     IErMin= 8 ErrMin= 2.54D-04
 ErrMax= 2.54D-04  0.00D+00 EMaxC= 1.00D-01 BMatC= 2.23D-04 BMatP= 2.82D-03
 IDIUse=3 WtCom= 9.97D-01 WtEn= 2.54D-03
 Coeff-Com: -0.170D-02 0.124D-02 0.166D-02-0.241D-02 0.537D-01 0.253D+00
 Coeff-Com:  0.288D+00 0.406D+00
 Coeff-En:   0.000D+00 0.000D+00 0.000D+00 0.000D+00 0.000D+00 0.000D+00
 Coeff-En:   0.243D-01 0.976D+00
 Coeff:     -0.169D-02 0.124D-02 0.166D-02-0.241D-02 0.535D-01 0.253D+00
 Coeff:      0.287D+00 0.408D+00
 Gap=     0.082 Goal=   None    Shift=    0.000
 RMSDP=1.50D-05 MaxDP=2.29D-03 DE=-2.76D-03 OVMax= 4.60D-03

 Cycle   9  Pass 1  IDiag  1:
 RMSU=  1.33D-05    CP:  1.01D+00  9.87D-01  7.72D-01  4.66D-01  7.20D-01
                    CP:  9.20D-01  7.52D-01  9.23D-01
 E= -2482.41724455001     Delta-E=       -0.000217073550 Rises=F Damp=F
 DIIS: error= 1.22D-04 at cycle   9 NSaved=   9.
 NSaved= 9 IEnMin= 9 EnMin= -2482.41724455001     IErMin= 9 ErrMin= 1.22D-04
 ErrMax= 1.22D-04  0.00D+00 EMaxC= 1.00D-01 BMatC= 1.92D-05 BMatP= 2.23D-04
 IDIUse=3 WtCom= 9.99D-01 WtEn= 1.22D-03
 Coeff-Com: -0.910D-03 0.148D-02 0.890D-04-0.200D-02 0.192D-01 0.101D+00
 Coeff-Com:  0.125D+00 0.256D+00 0.501D+00
 Coeff-En:   0.000D+00 0.000D+00 0.000D+00 0.000D+00 0.000D+00 0.000D+00
 Coeff-En:   0.000D+00 0.571D-01 0.943D+00
 Coeff:     -0.909D-03 0.148D-02 0.889D-04-0.199D-02 0.192D-01 0.101D+00
 Coeff:      0.125D+00 0.256D+00 0.501D+00
 Gap=     0.083 Goal=   None    Shift=    0.000
 RMSDP=5.49D-06 MaxDP=8.58D-04 DE=-2.17D-04 OVMax= 1.58D-03

 Cycle  10  Pass 1  IDiag  1:
 RMSU=  4.43D-06    CP:  1.01D+00  9.87D-01  7.71D-01  4.65D-01  7.21D-01
                    CP:  9.28D-01  7.57D-01  9.89D-01  9.27D-01
 E= -2482.41726208550     Delta-E=       -0.000017535489 Rises=F Damp=F
 DIIS: error= 4.44D-05 at cycle  10 NSaved=  10.
 NSaved=10 IEnMin=10 EnMin= -2482.41726208550     IErMin=10 ErrMin= 4.44D-05
 ErrMax= 4.44D-05  0.00D+00 EMaxC= 1.00D-01 BMatC= 2.77D-06 BMatP= 1.92D-05
 IDIUse=1 WtCom= 1.00D+00 WtEn= 0.00D+00
 Coeff-Com: -0.162D-03 0.365D-03-0.350D-03-0.651D-03 0.736D-03 0.622D-02
 Coeff-Com:  0.120D-01 0.631D-01 0.308D+00 0.611D+00
 Coeff:     -0.162D-03 0.365D-03-0.350D-03-0.651D-03 0.736D-03 0.622D-02
 Coeff:      0.120D-01 0.631D-01 0.308D+00 0.611D+00
 Gap=     0.083 Goal=   None    Shift=    0.000
 RMSDP=2.95D-06 MaxDP=4.10D-04 DE=-1.75D-05 OVMax= 4.53D-04

 Cycle  11  Pass 1  IDiag  1:
 RMSU=  2.44D-06    CP:  1.01D+00  9.87D-01  7.71D-01  4.65D-01  7.22D-01
                    CP:  9.32D-01  7.66D-01  9.99D-01  9.76D-01  1.03D+00
 E= -2482.41726462125     Delta-E=       -0.000002535751 Rises=F Damp=F
 DIIS: error= 1.11D-05 at cycle  11 NSaved=  11.
 NSaved=11 IEnMin=11 EnMin= -2482.41726462125     IErMin=11 ErrMin= 1.11D-05
 ErrMax= 1.11D-05  0.00D+00 EMaxC= 1.00D-01 BMatC= 3.12D-07 BMatP= 2.77D-06
 IDIUse=1 WtCom= 1.00D+00 WtEn= 0.00D+00
 Coeff-Com: -0.120D-04 0.791D-04-0.180D-03-0.157D-03-0.130D-02-0.571D-02
 Coeff-Com: -0.487D-02 0.116D-01 0.129D+00 0.348D+00 0.524D+00
 Coeff:     -0.120D-04 0.791D-04-0.180D-03-0.157D-03-0.130D-02-0.571D-02
 Coeff:     -0.487D-02 0.116D-01 0.129D+00 0.348D+00 0.524D+00
 Gap=     0.083 Goal=   None    Shift=    0.000
 RMSDP=8.35D-07 MaxDP=9.60D-05 DE=-2.54D-06 OVMax= 1.62D-04

 Cycle  12  Pass 1  IDiag  1:
 RMSU=  5.33D-07    CP:  1.01D+00  9.87D-01  7.71D-01  4.65D-01  7.22D-01
                    CP:  9.34D-01  7.68D-01  1.00D+00  9.90D-01  1.11D+00
                    CP:  1.08D+00
 E= -2482.41726490285     Delta-E=       -0.000000281600 Rises=F Damp=F
 DIIS: error= 3.63D-06 at cycle  12 NSaved=  12.
 NSaved=12 IEnMin=12 EnMin= -2482.41726490285     IErMin=12 ErrMin= 3.63D-06
 ErrMax= 3.63D-06  0.00D+00 EMaxC= 1.00D-01 BMatC= 4.02D-08 BMatP= 3.12D-07
 IDIUse=1 WtCom= 1.00D+00 WtEn= 0.00D+00
 Coeff-Com:  0.194D-04-0.197D-04-0.411D-04 0.321D-04-0.884D-03-0.425D-02
 Coeff-Com: -0.482D-02-0.394D-02 0.221D-01 0.963D-01 0.296D+00 0.599D+00
 Coeff:      0.194D-04-0.197D-04-0.411D-04 0.321D-04-0.884D-03-0.425D-02
 Coeff:     -0.482D-02-0.394D-02 0.221D-01 0.963D-01 0.296D+00 0.599D+00
 Gap=     0.083 Goal=   None    Shift=    0.000
 RMSDP=3.97D-07 MaxDP=6.42D-05 DE=-2.82D-07 OVMax= 4.75D-05

 Cycle  13  Pass 1  IDiag  1:
 RMSU=  1.99D-07    CP:  1.01D+00  9.87D-01  7.71D-01  4.65D-01  7.23D-01
                    CP:  9.34D-01  7.69D-01  1.01D+00  9.96D-01  1.14D+00
                    CP:  1.17D+00  1.01D+00
 E= -2482.41726493746     Delta-E=       -0.000000034610 Rises=F Damp=F
 DIIS: error= 9.29D-07 at cycle  13 NSaved=  13.
 NSaved=13 IEnMin=13 EnMin= -2482.41726493746     IErMin=13 ErrMin= 9.29D-07
 ErrMax= 9.29D-07  0.00D+00 EMaxC= 1.00D-01 BMatC= 4.73D-09 BMatP= 4.02D-08
 IDIUse=1 WtCom= 1.00D+00 WtEn= 0.00D+00
 Coeff-Com:  0.809D-05-0.794D-05-0.118D-04 0.239D-04-0.391D-03-0.165D-02
 Coeff-Com: -0.196D-02-0.279D-02-0.556D-04 0.185D-01 0.111D+00 0.327D+00
 Coeff-Com:  0.550D+00
 Coeff:      0.809D-05-0.794D-05-0.118D-04 0.239D-04-0.391D-03-0.165D-02
 Coeff:     -0.196D-02-0.279D-02-0.556D-04 0.185D-01 0.111D+00 0.327D+00
 Coeff:      0.550D+00
 Gap=     0.083 Goal=   None    Shift=    0.000
 RMSDP=1.23D-07 MaxDP=1.23D-05 DE=-3.46D-08 OVMax= 1.60D-05

 Cycle  14  Pass 1  IDiag  1:
 RMSU=  8.66D-08    CP:  1.01D+00  9.87D-01  7.71D-01  4.65D-01  7.23D-01
                    CP:  9.34D-01  7.70D-01  1.01D+00  9.97D-01  1.14D+00
                    CP:  1.19D+00  1.08D+00  9.88D-01
 E= -2482.41726494097     Delta-E=       -0.000000003507 Rises=F Damp=F
 DIIS: error= 5.00D-07 at cycle  14 NSaved=  14.
 NSaved=14 IEnMin=14 EnMin= -2482.41726494097     IErMin=14 ErrMin= 5.00D-07
 ErrMax= 5.00D-07  0.00D+00 EMaxC= 1.00D-01 BMatC= 1.44D-09 BMatP= 4.73D-09
 IDIUse=1 WtCom= 1.00D+00 WtEn= 0.00D+00
 Coeff-Com:  0.122D-05-0.454D-06-0.105D-05 0.918D-05-0.105D-03-0.281D-03
 Coeff-Com: -0.347D-03-0.101D-02-0.431D-02-0.657D-02 0.192D-01 0.112D+00
 Coeff-Com:  0.387D+00 0.494D+00
 Coeff:      0.122D-05-0.454D-06-0.105D-05 0.918D-05-0.105D-03-0.281D-03
 Coeff:     -0.347D-03-0.101D-02-0.431D-02-0.657D-02 0.192D-01 0.112D+00
 Coeff:      0.387D+00 0.494D+00
 Gap=     0.083 Goal=   None    Shift=    0.000
 RMSDP=5.86D-08 MaxDP=6.44D-06 DE=-3.51D-09 OVMax= 7.29D-06

 Cycle  15  Pass 1  IDiag  1:
 RMSU=  3.75D-08    CP:  1.01D+00  9.87D-01  7.71D-01  4.65D-01  7.23D-01
                    CP:  9.34D-01  7.70D-01  1.01D+00  9.97D-01  1.14D+00
                    CP:  1.20D+00  1.10D+00  1.10D+00  1.06D+00
 E= -2482.41726494242     Delta-E=       -0.000000001453 Rises=F Damp=F
 DIIS: error= 2.97D-07 at cycle  15 NSaved=  15.
 NSaved=15 IEnMin=15 EnMin= -2482.41726494242     IErMin=15 ErrMin= 2.97D-07
 ErrMax= 2.97D-07  0.00D+00 EMaxC= 1.00D-01 BMatC= 2.04D-10 BMatP= 1.44D-09
 IDIUse=1 WtCom= 1.00D+00 WtEn= 0.00D+00
 Coeff-Com: -0.372D-06 0.104D-05 0.570D-06 0.279D-05-0.226D-04 0.189D-04
 Coeff-Com:  0.206D-04-0.280D-03-0.279D-02-0.665D-02-0.783D-03 0.361D-01
 Coeff-Com:  0.195D+00 0.330D+00 0.449D+00
 Coeff:     -0.372D-06 0.104D-05 0.570D-06 0.279D-05-0.226D-04 0.189D-04
 Coeff:      0.206D-04-0.280D-03-0.279D-02-0.665D-02-0.783D-03 0.361D-01
 Coeff:      0.195D+00 0.330D+00 0.449D+00
 Gap=     0.083 Goal=   None    Shift=    0.000
 RMSDP=2.04D-08 MaxDP=2.87D-06 DE=-1.45D-09 OVMax= 3.59D-06

 Cycle  16  Pass 1  IDiag  1:
 RMSU=  1.45D-08    CP:  1.01D+00  9.87D-01  7.71D-01  4.65D-01  7.23D-01
                    CP:  9.34D-01  7.70D-01  1.01D+00  9.98D-01  1.14D+00
                    CP:  1.20D+00  1.10D+00  1.12D+00  1.16D+00  9.76D-01
 E= -2482.41726494255     Delta-E=       -0.000000000127 Rises=F Damp=F
 DIIS: error= 1.44D-07 at cycle  16 NSaved=  16.
 NSaved=16 IEnMin=16 EnMin= -2482.41726494255     IErMin=16 ErrMin= 1.44D-07
 ErrMax= 1.44D-07  0.00D+00 EMaxC= 1.00D-01 BMatC= 4.89D-11 BMatP= 2.04D-10
 IDIUse=1 WtCom= 1.00D+00 WtEn= 0.00D+00
 Coeff-Com: -0.606D-06 0.844D-06 0.531D-06-0.449D-06 0.974D-05 0.795D-04
 Coeff-Com:  0.100D-03 0.640D-04-0.903D-03-0.312D-02-0.546D-02-0.194D-02
 Coeff-Com:  0.418D-01 0.111D+00 0.340D+00 0.519D+00
 Coeff:     -0.606D-06 0.844D-06 0.531D-06-0.449D-06 0.974D-05 0.795D-04
 Coeff:      0.100D-03 0.640D-04-0.903D-03-0.312D-02-0.546D-02-0.194D-02
 Coeff:      0.418D-01 0.111D+00 0.340D+00 0.519D+00
 Gap=     0.083 Goal=   None    Shift=    0.000
 RMSDP=1.17D-08 MaxDP=1.40D-06 DE=-1.27D-10 OVMax= 1.37D-06

 Cycle  17  Pass 1  IDiag  1:
 RMSU=  7.46D-09    CP:  1.01D+00  9.87D-01  7.71D-01  4.65D-01  7.23D-01
                    CP:  9.34D-01  7.70D-01  1.01D+00  9.98D-01  1.15D+00
                    CP:  1.21D+00  1.11D+00  1.13D+00  1.20D+00  1.10D+00
                    CP:  1.01D+00
 E= -2482.41726494248     Delta-E=        0.000000000067 Rises=F Damp=F
 DIIS: error= 3.25D-08 at cycle  17 NSaved=  17.
 NSaved=17 IEnMin=16 EnMin= -2482.41726494255     IErMin=17 ErrMin= 3.25D-08
 ErrMax= 3.25D-08  0.00D+00 EMaxC= 1.00D-01 BMatC= 6.41D-12 BMatP= 4.89D-11
 IDIUse=1 WtCom= 1.00D+00 WtEn= 0.00D+00
 Coeff-Com: -0.273D-06 0.221D-06 0.327D-06-0.488D-06 0.863D-05 0.430D-04
 Coeff-Com:  0.549D-04 0.680D-04-0.236D-03-0.117D-02-0.329D-02-0.530D-02
 Coeff-Com:  0.232D-02 0.282D-01 0.161D+00 0.338D+00 0.480D+00
 Coeff:     -0.273D-06 0.221D-06 0.327D-06-0.488D-06 0.863D-05 0.430D-04
 Coeff:      0.549D-04 0.680D-04-0.236D-03-0.117D-02-0.329D-02-0.530D-02
 Coeff:      0.232D-02 0.282D-01 0.161D+00 0.338D+00 0.480D+00
 Gap=     0.083 Goal=   None    Shift=    0.000
 RMSDP=4.56D-09 MaxDP=4.77D-07 DE= 6.73D-11 OVMax= 6.30D-07

 Error on total polarization charges =  0.07549
 SCF Done:  E(RM06L) =  -2482.41726494     A.U. after   17 cycles
            NFock= 17  Conv=0.46D-08     -V/T= 2.0042
 KE= 2.471990109477D+03 PE=-2.349089491333D+04 EE= 9.672138249345D+03
 SMD-CDS (non-electrostatic) energy       (kcal/mol) =      -9.96
 (included in total energy above)
 Leave Link  502 at Tue Jun 28 21:55:54 2022, MaxMem=  5242880000 cpu:     60696.2
 (Enter /opt/nce/packages/global/g09/l801.exe)
 DoSCS=F DFT=T ScalE2(SS,OS)=  1.000000  1.000000
 ExpMin= 9.52D-02 ExpMax= 1.97D+04 ExpMxC= 6.73D+02 IAcc=3 IRadAn=         5 AccDes= 0.00D+00
 HarFok:  IExCor=  205 AccDes= 0.00D+00 IRadAn=         5 IDoV=-2 UseB2=F ITyADJ=14
 ICtDFT= 12500011 ScaDFX=  1.000000  1.000000  1.000000  1.000000
 Largest valence mixing into a core orbital is  8.23D-05
 Largest core mixing into a valence orbital is  3.37D-05
 Range of M.O.s used for correlation:    63  2113
 NBasis=  2114 NAE=   205 NBE=   205 NFC=    62 NFV=     0
 NROrb=   2051 NOA=   143 NOB=   143 NVA=  1908 NVB=  1908

 **** Warning!!: The largest alpha MO coefficient is  0.60006240D+02


 **** Warning!!: The smallest alpha delta epsilon is  0.82625465D-01

 Leave Link  801 at Tue Jun 28 21:55:54 2022, MaxMem=  5242880000 cpu:         8.2
 (Enter /opt/nce/packages/global/g09/l914.exe)
 RHF ground state
 MDV=  5242880000 DFT=T DoStab=F Mixed=F DoRPA=T DoScal=T NonHer=F
 Would need an additional       2554803000000 words for in-memory AO integral storage.
 NEqPCM:  Using non-equilibrium solvation (IEInf=1, Eps=  35.6880, EpsInf=   1.8069)
 Inv3:  Mode=1 IEnd=   145910028.
 Iteration    1 A*A^-1 deviation from unit magnitude is 9.44D-15 for   6959.
 Iteration    1 A*A^-1 deviation from orthogonality  is 4.44D-15 for   5386   4059.
 Iteration    1 A^-1*A deviation from unit magnitude is 9.66D-15 for   6959.
 Iteration    1 A^-1*A deviation from orthogonality  is 8.39D-14 for   3177   3137.
 Making orbital integer symmetry assigments:
 Orbital symmetries:
       Occupied  (A) (A) (A) (A) (A) (A) (A) (A) (A) (A) (A) (A)
                 (A) (A) (A) (A) (A) (A) (A) (A) (A) (A) (A) (A)
                 (A) (A) (A) (A) (A) (A) (A) (A) (A) (A) (A) (A)
                 (A) (A) (A) (A) (A) (A) (A) (A) (A) (A) (A) (A)
                 (A) (A) (A) (A) (A) (A) (A) (A) (A) (A) (A) (A)
                 (A) (A) (A) (A) (A) (A) (A) (A) (A) (A) (A) (A)
                 (A) (A) (A) (A) (A) (A) (A) (A) (A) (A) (A) (A)
                 (A) (A) (A) (A) (A) (A) (A) (A) (A) (A) (A) (A)
                 (A) (A) (A) (A) (A) (A) (A) (A) (A) (A) (A) (A)
                 (A) (A) (A) (A) (A) (A) (A) (A) (A) (A) (A) (A)
                 (A) (A) (A) (A) (A) (A) (A) (A) (A) (A) (A) (A)
                 (A) (A) (A) (A) (A) (A) (A) (A) (A) (A) (A) (A)
                 (A) (A) (A) (A) (A) (A) (A) (A) (A) (A) (A) (A)
                 (A) (A) (A) (A) (A) (A) (A) (A) (A) (A) (A) (A)
                 (A) (A) (A) (A) (A) (A) (A) (A) (A) (A) (A) (A)
                 (A) (A) (A) (A) (A) (A) (A) (A) (A) (A) (A) (A)
                 (A) (A) (A) (A) (A) (A) (A) (A) (A) (A) (A) (A)
                 (A)
       Virtual   (A) (A) (A) (A) (A) (A) (A) (A) (A) (A) (A) (A)
                 (A) (A) (A) (A) (A) (A) (A) (A) (A) (A) (A) (A)
                 (A) (A) (A) (A) (A) (A) (A) (A) (A) (A) (A) (A)
                 (A) (A) (A) (A) (A) (A) (A) (A) (A) (A) (A) (A)
                 (A) (A) (A) (A) (A) (A) (A) (A) (A) (A) (A) (A)
                 (A) (A) (A) (A) (A) (A) (A) (A) (A) (A) (A) (A)
                 (A) (A) (A) (A) (A) (A) (A) (A) (A) (A) (A) (A)
                 (A) (A) (A) (A) (A) (A) (A) (A) (A) (A) (A) (A)
                 (A) (A) (A) (A) (A) (A) (A) (A) (A) (A) (A) (A)
                 (A) (A) (A) (A) (A) (A) (A) (A) (A) (A) (A) (A)
                 (A) (A) (A) (A) (A) (A) (A) (A) (A) (A) (A) (A)
                 (A) (A) (A) (A) (A) (A) (A) (A) (A) (A) (A) (A)
                 (A) (A) (A) (A) (A) (A) (A) (A) (A) (A) (A) (A)
                 (A) (A) (A) (A) (A) (A) (A) (A) (A) (A) (A) (A)
                 (A) (A) (A) (A) (A) (A) (A) (A) (A) (A) (A) (A)
                 (A) (A) (A) (A) (A) (A) (A) (A) (A) (A) (A) (A)
                 (A) (A) (A) (A) (A) (A) (A) (A) (A) (A) (A) (A)
                 (A) (A) (A) (A) (A) (A) (A) (A) (A) (A) (A) (A)
                 (A) (A) (A) (A) (A) (A) (A) (A) (A) (A) (A) (A)
                 (A) (A) (A) (A) (A) (A) (A) (A) (A) (A) (A) (A)
                 (A) (A) (A) (A) (A) (A) (A) (A) (A) (A) (A) (A)
                 (A) (A) (A) (A) (A) (A) (A) (A) (A) (A) (A) (A)
                 (A) (A) (A) (A) (A) (A) (A) (A) (A) (A) (A) (A)
                 (A) (A) (A) (A) (A) (A) (A) (A) (A) (A) (A) (A)
                 (A) (A) (A) (A) (A) (A) (A) (A) (A) (A) (A) (A)
                 (A) (A) (A) (A) (A) (A) (A) (A) (A) (A) (A) (A)
                 (A) (A) (A) (A) (A) (A) (A) (A) (A) (A) (A) (A)
                 (A) (A) (A) (A) (A) (A) (A) (A) (A) (A) (A) (A)
                 (A) (A) (A) (A) (A) (A) (A) (A) (A) (A) (A) (A)
                 (A) (A) (A) (A) (A) (A) (A) (A) (A) (A) (A) (A)
                 (A) (A) (A) (A) (A) (A) (A) (A) (A) (A) (A) (A)
                 (A) (A) (A) (A) (A) (A) (A) (A) (A) (A) (A) (A)
                 (A) (A) (A) (A) (A) (A) (A) (A) (A) (A) (A) (A)
                 (A) (A) (A) (A) (A) (A) (A) (A) (A) (A) (A) (A)
                 (A) (A) (A) (A) (A) (A) (A) (A) (A) (A) (A) (A)
                 (A) (A) (A) (A) (A) (A) (A) (A) (A) (A) (A) (A)
                 (A) (A) (A) (A) (A) (A) (A) (A) (A) (A) (A) (A)
                 (A) (A) (A) (A) (A) (A) (A) (A) (A) (A) (A) (A)
                 (A) (A) (A) (A) (A) (A) (A) (A) (A) (A) (A) (A)
                 (A) (A) (A) (A) (A) (A) (A) (A) (A) (A) (A) (A)
                 (A) (A) (A) (A) (A) (A) (A) (A) (A) (A) (A) (A)
                 (A) (A) (A) (A) (A) (A) (A) (A) (A) (A) (A) (A)
                 (A) (A) (A) (A) (A) (A) (A) (A) (A) (A) (A) (A)
                 (A) (A) (A) (A) (A) (A) (A) (A) (A) (A) (A) (A)
                 (A) (A) (A) (A) (A) (A) (A) (A) (A) (A) (A) (A)
                 (A) (A) (A) (A) (A) (A) (A) (A) (A) (A) (A) (A)
                 (A) (A) (A) (A) (A) (A) (A) (A) (A) (A) (A) (A)
                 (A) (A) (A) (A) (A) (A) (A) (A) (A) (A) (A) (A)
                 (A) (A) (A) (A) (A) (A) (A) (A) (A) (A) (A) (A)
                 (A) (A) (A) (A) (A) (A) (A) (A) (A) (A) (A) (A)
                 (A) (A) (A) (A) (A) (A) (A) (A) (A) (A) (A) (A)
                 (A) (A) (A) (A) (A) (A) (A) (A) (A) (A) (A) (A)
                 (A) (A) (A) (A) (A) (A) (A) (A) (A) (A) (A) (A)
                 (A) (A) (A) (A) (A) (A) (A) (A) (A) (A) (A) (A)
                 (A) (A) (A) (A) (A) (A) (A) (A) (A) (A) (A) (A)
                 (A) (A) (A) (A) (A) (A) (A) (A) (A) (A) (A) (A)
                 (A) (A) (A) (A) (A) (A) (A) (A) (A) (A) (A) (A)
                 (A) (A) (A) (A) (A) (A) (A) (A) (A) (A) (A) (A)
                 (A) (A) (A) (A) (A) (A) (A) (A) (A) (A) (A) (A)
                 (A) (A) (A) (A) (A) (A) (A) (A) (A) (A) (A) (A)
                 (A) (A) (A) (A) (A) (A) (A) (A) (A) (A) (A) (A)
                 (A) (A) (A) (A) (A) (A) (A) (A) (A) (A) (A) (A)
                 (A) (A) (A) (A) (A) (A) (A) (A) (A) (A) (A) (A)
                 (A) (A) (A) (A) (A) (A) (A) (A) (A) (A) (A) (A)
                 (A) (A) (A) (A) (A) (A) (A) (A) (A) (A) (A) (A)
                 (A) (A) (A) (A) (A) (A) (A) (A) (A) (A) (A) (A)
                 (A) (A) (A) (A) (A) (A) (A) (A) (A) (A) (A) (A)
                 (A) (A) (A) (A) (A) (A) (A) (A) (A) (A) (A) (A)
                 (A) (A) (A) (A) (A) (A) (A) (A) (A) (A) (A) (A)
                 (A) (A) (A) (A) (A) (A) (A) (A) (A) (A) (A) (A)
                 (A) (A) (A) (A) (A) (A) (A) (A) (A) (A) (A) (A)
                 (A) (A) (A) (A) (A) (A) (A) (A) (A) (A) (A) (A)
                 (A) (A) (A) (A) (A) (A) (A) (A) (A) (A) (A) (A)
                 (A) (A) (A) (A) (A) (A) (A) (A) (A) (A) (A) (A)
                 (A) (A) (A) (A) (A) (A) (A) (A) (A) (A) (A) (A)
                 (A) (A) (A) (A) (A) (A) (A) (A) (A) (A) (A) (A)
                 (A) (A) (A) (A) (A) (A) (A) (A) (A) (A) (A) (A)
                 (A) (A) (A) (A) (A) (A) (A) (A) (A) (A) (A) (A)
                 (A) (A) (A) (A) (A) (A) (A) (A) (A) (A) (A) (A)
                 (A) (A) (A) (A) (A) (A) (A) (A) (A) (A) (A) (A)
                 (A) (A) (A) (A) (A) (A) (A) (A) (A) (A) (A) (A)
                 (A) (A) (A) (A) (A) (A) (A) (A) (A) (A) (A) (A)
                 (A) (A) (A) (A) (A) (A) (A) (A) (A) (A) (A) (A)
                 (A) (A) (A) (A) (A) (A) (A) (A) (A) (A) (A) (A)
                 (A) (A) (A) (A) (A) (A) (A) (A) (A) (A) (A) (A)
                 (A) (A) (A) (A) (A) (A) (A) (A) (A) (A) (A) (A)
                 (A) (A) (A) (A) (A) (A) (A) (A) (A) (A) (A) (A)
                 (A) (A) (A) (A) (A) (A) (A) (A) (A) (A) (A) (A)
                 (A) (A) (A) (A) (A) (A) (A) (A) (A) (A) (A) (A)
                 (A) (A) (A) (A) (A) (A) (A) (A) (A) (A) (A) (A)
                 (A) (A) (A) (A) (A) (A) (A) (A) (A) (A) (A) (A)
                 (A) (A) (A) (A) (A) (A) (A) (A) (A) (A) (A) (A)
                 (A) (A) (A) (A) (A) (A) (A) (A) (A) (A) (A) (A)
                 (A) (A) (A) (A) (A) (A) (A) (A) (A) (A) (A) (A)
                 (A) (A) (A) (A) (A) (A) (A) (A) (A) (A) (A) (A)
                 (A) (A) (A) (A) (A) (A) (A) (A) (A) (A) (A) (A)
                 (A) (A) (A) (A) (A) (A) (A) (A) (A) (A) (A) (A)
                 (A) (A) (A) (A) (A) (A) (A) (A) (A) (A) (A) (A)
                 (A) (A) (A) (A) (A) (A) (A) (A) (A) (A) (A) (A)
                 (A) (A) (A) (A) (A) (A) (A) (A) (A) (A) (A) (A)
                 (A) (A) (A) (A) (A) (A) (A) (A) (A) (A) (A) (A)
                 (A) (A) (A) (A) (A) (A) (A) (A) (A) (A) (A) (A)
                 (A) (A) (A) (A) (A) (A) (A) (A) (A) (A) (A) (A)
                 (A) (A) (A) (A) (A) (A) (A) (A) (A) (A) (A) (A)
                 (A) (A) (A) (A) (A) (A) (A) (A) (A) (A) (A) (A)
                 (A) (A) (A) (A) (A) (A) (A) (A) (A) (A) (A) (A)
                 (A) (A) (A) (A) (A) (A) (A) (A) (A) (A) (A) (A)
                 (A) (A) (A) (A) (A) (A) (A) (A) (A) (A) (A) (A)
                 (A) (A) (A) (A) (A) (A) (A) (A) (A) (A) (A) (A)
                 (A) (A) (A) (A) (A) (A) (A) (A) (A) (A) (A) (A)
                 (A) (A) (A) (A) (A) (A) (A) (A) (A) (A) (A) (A)
                 (A) (A) (A) (A) (A) (A) (A) (A) (A) (A) (A) (A)
                 (A) (A) (A) (A) (A) (A) (A) (A) (A) (A) (A) (A)
                 (A) (A) (A) (A) (A) (A) (A) (A) (A) (A) (A) (A)
                 (A) (A) (A) (A) (A) (A) (A) (A) (A) (A) (A) (A)
                 (A) (A) (A) (A) (A) (A) (A) (A) (A) (A) (A) (A)
                 (A) (A) (A) (A) (A) (A) (A) (A) (A) (A) (A) (A)
                 (A) (A) (A) (A) (A) (A) (A) (A) (A) (A) (A) (A)
                 (A) (A) (A) (A) (A) (A) (A) (A) (A) (A) (A) (A)
                 (A) (A) (A) (A) (A) (A) (A) (A) (A) (A) (A) (A)
                 (A) (A) (A) (A) (A) (A) (A) (A) (A) (A) (A) (A)
                 (A) (A) (A) (A) (A) (A) (A) (A) (A) (A) (A) (A)
                 (A) (A) (A) (A) (A) (A) (A) (A) (A) (A) (A) (A)
                 (A) (A) (A) (A) (A) (A) (A) (A) (A) (A) (A) (A)
                 (A) (A) (A) (A) (A) (A) (A) (A) (A) (A) (A) (A)
                 (A) (A) (A) (A) (A) (A) (A) (A) (A) (A) (A) (A)
                 (A) (A) (A) (A) (A) (A) (A) (A) (A) (A) (A) (A)
                 (A) (A) (A) (A) (A) (A) (A) (A) (A) (A) (A) (A)
                 (A) (A) (A) (A) (A) (A) (A) (A) (A) (A) (A) (A)
                 (A) (A) (A) (A) (A) (A) (A) (A) (A) (A) (A) (A)
                 (A) (A) (A) (A) (A) (A) (A) (A) (A) (A) (A) (A)
                 (A) (A) (A) (A) (A) (A) (A) (A) (A) (A) (A) (A)
                 (A) (A) (A) (A) (A) (A) (A) (A) (A) (A) (A) (A)
                 (A) (A) (A) (A) (A) (A) (A) (A) (A) (A) (A) (A)
                 (A) (A) (A) (A) (A) (A) (A) (A) (A) (A) (A) (A)
                 (A) (A) (A) (A) (A) (A) (A) (A) (A) (A) (A) (A)
                 (A) (A) (A) (A) (A) (A) (A) (A) (A) (A) (A) (A)
                 (A) (A) (A) (A) (A) (A) (A) (A) (A) (A) (A) (A)
                 (A) (A) (A) (A) (A) (A) (A) (A) (A) (A) (A) (A)
                 (A) (A) (A) (A) (A) (A) (A) (A) (A) (A) (A) (A)
                 (A) (A) (A) (A) (A) (A) (A) (A) (A) (A) (A) (A)
                 (A) (A) (A) (A) (A) (A) (A) (A) (A) (A) (A) (A)
                 (A) (A) (A) (A) (A) (A) (A) (A) (A) (A) (A) (A)
                 (A) (A) (A) (A) (A) (A) (A) (A) (A) (A) (A) (A)
                 (A) (A) (A) (A) (A) (A) (A) (A) (A) (A) (A) (A)
                 (A) (A) (A) (A) (A) (A) (A) (A) (A) (A) (A) (A)
                 (A) (A) (A) (A) (A) (A) (A) (A) (A) (A) (A) (A)
                 (A) (A) (A) (A) (A) (A) (A) (A) (A) (A) (A) (A)
                 (A) (A) (A) (A) (A) (A) (A) (A) (A) (A) (A) (A)
                 (A) (A) (A) (A) (A) (A) (A) (A) (A) (A) (A) (A)
                 (A) (A) (A) (A) (A) (A) (A) (A) (A) (A) (A) (A)
                 (A) (A) (A) (A) (A) (A) (A) (A) (A) (A) (A) (A)
                 (A) (A) (A) (A) (A) (A) (A) (A) (A) (A) (A) (A)
                 (A) (A) (A) (A) (A) (A) (A) (A) (A) (A) (A) (A)
                 (A) (A) (A) (A) (A) (A) (A) (A) (A) (A) (A) (A)
                 (A) (A) (A) (A) (A) (A) (A) (A) (A) (A) (A) (A)
                 (A) (A) (A) (A) (A) (A) (A) (A) (A) (A) (A) (A)
                 (A) (A) (A) (A) (A) (A) (A) (A) (A) (A) (A) (A)
                 (A) (A) (A) (A) (A) (A) (A) (A) (A) (A) (A) (A)
   200 initial guesses have been made.
 Convergence on wavefunction:    0.001000000000000
 Davidson Disk Diagonalization:  ConvIn= 1.00D-03 SkipCon=T Conv= 1.00D-03.
 Max sub-space:   800 roots to seek:   200 dimension of matrix:       545688
 Iteration     1 Dimension   200 NMult     0 NNew    200
 CISAX will form    60 AO SS matrices at one time.
 NMat=    60 NSing=    60 JSym2X= 0.
 FoFJK:  IHMeth= 1 ICntrl=     500 DoSepK=F KAlg= 0 I1Cent=   0 FoldK=F
 IRaf=         0 NMat=  60 IRICut=       1 DoRegI=T DoRafI=F ISym2E= 0.
 NMat=    60 NSing=    60 JSym2X= 0.
 NMat=    60 NSing=    60 JSym2X= 0.
 NMat=    20 NSing=    20 JSym2X= 0.
 New state      3 was old state      4
 New state      4 was old state      3
 New state      5 was old state      7
 New state      6 was old state      5
 New state      7 was old state      8
 New state      8 was old state      6
 New state     12 was old state     13
 New state     13 was old state     12
 New state     15 was old state     16
 New state     16 was old state     15
 New state     21 was old state     22
 New state     22 was old state     23
 New state     23 was old state     21
 New state     25 was old state     26
 New state     26 was old state     25
 New state     28 was old state     30
 New state     29 was old state     32
 New state     30 was old state     28
 New state     31 was old state     36
 New state     32 was old state     35
 New state     33 was old state     38
 New state     34 was old state     37
 New state     35 was old state     40
 New state     36 was old state     39
 New state     37 was old state     51
 New state     38 was old state     42
 New state     39 was old state     41
 New state     40 was old state     44
 New state     41 was old state     45
 New state     42 was old state     48
 New state     43 was old state     46
 New state     44 was old state     52
 New state     45 was old state     50
 New state     46 was old state     54
 New state     47 was old state     53
 New state     48 was old state     55
 New state     49 was old state     29
 New state     50 was old state     33
 Excitation Energies [eV] at current iteration:
 Root      1 :     2.345191080406276
 Root      2 :     2.529109062435460
 Root      3 :     2.546217482822186
 Root      4 :     2.580706871086904
 Root      5 :     2.672948068816169
 Root      6 :     2.719997838815148
 Root      7 :     2.733192233278507
 Root      8 :     2.780413823688457
 Root      9 :     2.800808927033142
 Root     10 :     2.922682072891681
 Root     11 :     2.983961363215139
 Root     12 :     3.057652165277700
 Root     13 :     3.082778994855509
 Root     14 :     3.116419185899817
 Root     15 :     3.209288537391308
 Root     16 :     3.215669322173693
 Root     17 :     3.496308402555408
 Root     18 :     3.556175884447369
 Root     19 :     3.570802734361245
 Root     20 :     3.585533334689118
 Root     21 :     3.593239053326070
 Root     22 :     3.610244302237316
 Root     23 :     3.658398987907869
 Root     24 :     3.694237924754986
 Root     25 :     3.742313219605676
 Root     26 :     3.768894945609539
 Root     27 :     3.774428671076408
 Root     28 :     3.782249828786626
 Root     29 :     3.806866728716574
 Root     30 :     3.812789867966731
 Root     31 :     3.820681277915748
 Root     32 :     3.830311470395676
 Root     33 :     3.882486054340603
 Root     34 :     3.888831723808677
 Root     35 :     3.901101667080742
 Root     36 :     3.913089925462744
 Root     37 :     3.947589655997063
 Root     38 :     3.951045167738072
 Root     39 :     3.973201169368176
 Root     40 :     3.975552018569365
 Root     41 :     3.986703867953686
 Root     42 :     3.990698912481815
 Root     43 :     3.994126547912431
 Root     44 :     4.042657313313705
 Root     45 :     4.043413958393419
 Root     46 :     4.043904559734576
 Root     47 :     4.072996631487932
 Root     48 :     4.098690624671363
 Root     49 :     4.190959220521187
 Root     50 :     4.200594992338925
 Root     51 :     4.219976147066359
 Root     52 :     4.237902330000822
 Root     53 :     4.263259931665697
 Root     54 :     4.306408252361664
 Root     55 :     4.321128114140468
 Root     56 :     4.364161199418524
 Root     57 :     4.394926270383941
 Root     58 :     4.399804156766006
 Root     59 :     4.436836134398855
 Root     60 :     4.521743288487150
 Root     61 :     4.524395450465147
 Root     62 :     4.543859076838904
 Root     63 :     4.557353134838471
 Root     64 :     4.578661706537486
 Root     65 :     4.580356927552393
 Root     66 :     4.612878016562917
 Root     67 :     4.618703111665067
 Root     68 :     4.627767411939680
 Root     69 :     4.637766000076759
 Root     70 :     4.647036667263340
 Root     71 :     4.650204307078914
 Root     72 :     4.669095991366170
 Root     73 :     4.681084039060185
 Root     74 :     4.694357076866851
 Root     75 :     4.711705131342088
 Root     76 :     4.719701543471309
 Root     77 :     4.731992166549782
 Root     78 :     4.733756190914360
 Root     79 :     4.756788098126534
 Root     80 :     4.764741726387649
 Root     81 :     4.768547652335102
 Root     82 :     4.773203200393771
 Root     83 :     4.774530746088717
 Root     84 :     4.790655449165258
 Root     85 :     4.799688614201218
 Root     86 :     4.800873817395141
 Root     87 :     4.807178473572702
 Root     88 :     4.813637347585528
 Root     89 :     4.821616900245873
 Root     90 :     4.833957033631910
 Root     91 :     4.838524488874305
 Root     92 :     4.839073850267855
 Root     93 :     4.843515435964546
 Root     94 :     4.847546046641643
 Root     95 :     4.860989458444140
 Root     96 :     4.872189199349494
 Root     97 :     4.879633926042626
 Root     98 :     4.887464569683818
 Root     99 :     4.893113832629958
 Root    100 :     4.904294701666666
 Root    101 :     4.908232413263453
 Root    102 :     4.909532171491044
 Root    103 :     4.918368080795281
 Root    104 :     4.922385212862467
 Root    105 :     4.927287946187279
 Root    106 :     4.935268715528185
 Root    107 :     4.939639413882492
 Root    108 :     4.944840422308645
 Root    109 :     4.961198304575758
 Root    110 :     4.967484301723553
 Root    111 :     4.975829548607984
 Root    112 :     4.978882082896620
 Root    113 :     4.986855446439773
 Root    114 :     4.991619991200828
 Root    115 :     5.000228486311648
 Root    116 :     5.031149977585046
 Root    117 :     5.045299399347553
 Root    118 :     5.069721522921265
 Root    119 :     5.078488421580912
 Root    120 :     5.084216835464545
 Root    121 :     5.109060039908118
 Root    122 :     5.118403245344416
 Root    123 :     5.145608617481988
 Root    124 :     5.149066973106005
 Root    125 :     5.163560547420684
 Root    126 :     5.173578067151254
 Root    127 :     5.189884203403245
 Root    128 :     5.221142211455977
 Root    129 :     5.226541018483899
 Root    130 :     5.235135376216042
 Root    131 :     5.256916775765194
 Root    132 :     5.279709095373923
 Root    133 :     5.282971321634497
 Root    134 :     5.292033546405611
 Root    135 :     5.302834898979464
 Root    136 :     5.309450161101682
 Root    137 :     5.317980793496440
 Root    138 :     5.325811861561269
 Root    139 :     5.331941960258261
 Root    140 :     5.336271717414183
 Root    141 :     5.359692820203525
 Root    142 :     5.365393245090349
 Root    143 :     5.373640290365583
 Root    144 :     5.385520713393548
 Root    145 :     5.389863592437957
 Root    146 :     5.400999072460813
 Root    147 :     5.403460489707073
 Root    148 :     5.407132187279148
 Root    149 :     5.408846583450001
 Root    150 :     5.416308132036374
 Root    151 :     5.421359845844555
 Root    152 :     5.428299397329866
 Root    153 :     5.433300423111740
 Root    154 :     5.436960144709826
 Root    155 :     5.448067087454643
 Root    156 :     5.450135015046978
 Root    157 :     5.463384053696410
 Root    158 :     5.464911826234834
 Root    159 :     5.469284433461895
 Root    160 :     5.477274408787816
 Root    161 :     5.483599553671505
 Root    162 :     5.489844023978204
 Root    163 :     5.496821965644327
 Root    164 :     5.503442402743325
 Root    165 :     5.509300809761263
 Root    166 :     5.514538649866926
 Root    167 :     5.537273253335231
 Root    168 :     5.546477522996442
 Root    169 :     5.558160625887860
 Root    170 :     5.562356191858695
 Root    171 :     5.573680792619270
 Root    172 :     5.579861237221412
 Root    173 :     5.585613772048231
 Root    174 :     5.591860091773302
 Root    175 :     5.601278021029116
 Root    176 :     5.607870823108640
 Root    177 :     5.614989223455821
 Root    178 :     5.617574842781488
 Root    179 :     5.687843871285835
 Root    180 :     5.748000041279195
 Root    181 :     5.828877548623930
 Root    182 :     5.837392396659111
 Root    183 :     5.849943451500173
 Root    184 :     5.881114610797419
 Root    185 :     5.972422385522391
 Root    186 :     6.005224425860977
 Root    187 :     6.043907137305897
 Root    188 :     6.103231641448645
 Root    189 :     6.184978796920213
 Root    190 :     6.241740776013604
 Root    191 :     6.346634244695720
 Root    192 :     6.379692839696208
 Root    193 :     6.604627500929352
 Root    194 :     6.724157919750564
 Root    195 :     6.877566355489788
 Root    196 :     6.886671946991252
 Root    197 :     7.034722965868190
 Root    198 :     7.465796174483054
 Root    199 :     7.480067341511603
 Root    200 :     7.684857139085466
 Iteration     2 Dimension   400 NMult   200 NNew    200
 CISAX will form    60 AO SS matrices at one time.
 NMat=    60 NSing=    60 JSym2X= 0.
 NMat=    60 NSing=    60 JSym2X= 0.
 NMat=    60 NSing=    60 JSym2X= 0.
 NMat=    20 NSing=    20 JSym2X= 0.
 Root      1 not converged, maximum delta is    0.016221446357538
 Root      2 not converged, maximum delta is    0.092641915596681
 Root      3 not converged, maximum delta is    0.158373802570708
 Root      4 not converged, maximum delta is    0.157695566792890
 Root      5 not converged, maximum delta is    0.316412230356570
 Root      6 not converged, maximum delta is    0.345720352684864
 Root      7 not converged, maximum delta is    0.011234811085872
 Root      8 not converged, maximum delta is    0.103114577973482
 Root      9 not converged, maximum delta is    0.092878329231322
 Root     10 not converged, maximum delta is    0.069252714772029
 Root     11 not converged, maximum delta is    0.073746591423825
 New state     12 was old state     13
 Root     12 not converged, maximum delta is    0.262045463537691
 New state     13 was old state     12
 Root     13 not converged, maximum delta is    0.063363276865701
 Root     14 not converged, maximum delta is    0.012725228703882
 New state     15 was old state     16
 Root     15 not converged, maximum delta is    0.235946248589247
 New state     16 was old state     15
 Root     16 not converged, maximum delta is    0.191135258542094
 Root     17 not converged, maximum delta is    0.016388831436224
 Root     18 not converged, maximum delta is    0.031685051586760
 Root     19 not converged, maximum delta is    0.039966852435700
 Root     20 not converged, maximum delta is    0.047199415618186
 Root     21 not converged, maximum delta is    0.024989382482090
 Root     22 not converged, maximum delta is    0.024617005282465
 Root     23 not converged, maximum delta is    0.070347988110066
 Root     24 not converged, maximum delta is    0.030422255521087
 Root     25 not converged, maximum delta is    0.014680438824102
 Root     26 not converged, maximum delta is    0.067261465388469
 Root     27 not converged, maximum delta is    0.028861614172675
 Root     28 not converged, maximum delta is    0.063156865380730
 Root     29 not converged, maximum delta is    0.192941125062967
 Root     30 not converged, maximum delta is    0.207881246627306
 Root     31 not converged, maximum delta is    0.056039466467870
 Root     32 not converged, maximum delta is    0.023700910364310
 Root     33 not converged, maximum delta is    0.245780193802664
 Root     34 not converged, maximum delta is    0.228435363755893
 Root     35 not converged, maximum delta is    0.372254890472763
 Root     36 not converged, maximum delta is    0.124540988872558
 Root     37 not converged, maximum delta is    0.247573512701566
 Root     38 not converged, maximum delta is    0.147624005300528
 Root     39 not converged, maximum delta is    0.133991307826526
 New state     40 was old state     42
 Root     40 not converged, maximum delta is    0.351277963339991
 New state     41 was old state     40
 Root     41 not converged, maximum delta is    0.236740904519857
 New state     42 was old state     41
 Root     42 not converged, maximum delta is    0.105710839532789
 Root     43 not converged, maximum delta is    0.292736419983550
 New state     44 was old state     46
 Root     44 not converged, maximum delta is    0.294847530891727
 New state     45 was old state     44
 Root     45 not converged, maximum delta is    0.282559553214375
 New state     46 was old state     45
 Root     46 not converged, maximum delta is    0.287025198172606
 New state     47 was old state     53
 Root     47 not converged, maximum delta is    0.227828797588098
 New state     48 was old state     50
 Root     48 not converged, maximum delta is    0.360836561709494
 Root     49 not converged, maximum delta is    0.432635769815674
 New state     50 was old state     47
 Root     50 not converged, maximum delta is    0.133824666527491
 Excitation Energies [eV] at current iteration:
 Root      1 :     2.313097940097057   Change is   -0.032093140309219
 Root      2 :     2.512537264265323   Change is   -0.016571798170136
 Root      3 :     2.530640213541431   Change is   -0.015577269280755
 Root      4 :     2.545915496076385   Change is   -0.034791375010519
 Root      5 :     2.658693028159496   Change is   -0.014255040656672
 Root      6 :     2.684450114335903   Change is   -0.035547724479245
 Root      7 :     2.723205558502178   Change is   -0.009986674776330
 Root      8 :     2.741311074179052   Change is   -0.039102749509405
 Root      9 :     2.791541734754080   Change is   -0.009267192279063
 Root     10 :     2.904957983636262   Change is   -0.017724089255419
 Root     11 :     2.949554326686173   Change is   -0.034407036528965
 Root     12 :     3.024625718924211   Change is   -0.058153275931298
 Root     13 :     3.040878419975403   Change is   -0.016773745302297
 Root     14 :     3.103611754627988   Change is   -0.012807431271829
 Root     15 :     3.155098892286290   Change is   -0.060570429887403
 Root     16 :     3.204749486150038   Change is   -0.004539051241271
 Root     17 :     3.492614134473131   Change is   -0.003694268082277
 Root     18 :     3.547357802600012   Change is   -0.008818081847357
 Root     19 :     3.558665147141737   Change is   -0.012137587219509
 Root     20 :     3.576055417005186   Change is   -0.009477917683932
 Root     21 :     3.583635460879826   Change is   -0.009603592446244
 Root     22 :     3.606753355446098   Change is   -0.003490946791218
 Root     23 :     3.631598684236072   Change is   -0.026800303671797
 Root     24 :     3.686211723170066   Change is   -0.008026201584920
 Root     25 :     3.741611327393881   Change is   -0.000701892211795
 Root     26 :     3.765566426198959   Change is   -0.003328519410580
 Root     27 :     3.773000038361345   Change is   -0.001428632715063
 Root     28 :     3.780661600926744   Change is   -0.001588227859883
 Root     29 :     3.802527749580265   Change is   -0.004338979136309
 Root     30 :     3.808421704808409   Change is   -0.004368163158323
 Root     31 :     3.816726575870431   Change is   -0.003954702045317
 Root     32 :     3.827404678233504   Change is   -0.002906792162172
 Root     33 :     3.869618650213897   Change is   -0.012867404126705
 Root     34 :     3.879775294295700   Change is   -0.009056429512977
 Root     35 :     3.891303632930230   Change is   -0.009798034150512
 Root     36 :     3.907511549281598   Change is   -0.005578376181146
 Root     37 :     3.909052413525305   Change is   -0.038537242471758
 Root     38 :     3.949072260332513   Change is   -0.001972907405558
 Root     39 :     3.965146562343394   Change is   -0.008054607024782
 Root     40 :     3.973428200249151   Change is   -0.017270712232664
 Root     41 :     3.973738749971607   Change is   -0.001813268597758
 Root     42 :     3.985061351715784   Change is   -0.001642516237902
 Root     43 :     3.989819642850477   Change is   -0.004306905061955
 Root     44 :     4.014297747595833   Change is   -0.029606812138742
 Root     45 :     4.016557869370121   Change is   -0.026099443943583
 Root     46 :     4.029293792630898   Change is   -0.014120165762521
 Root     47 :     4.050462803742843   Change is   -0.212797127922855
 Root     48 :     4.051173980214179   Change is   -0.149421012124746
 Root     49 :     4.060899694920186   Change is   -0.130059525601002
 Root     50 :     4.075399068607632   Change is    0.002402437119700
 Root     51 :     4.093777029043676   Change is   -0.126199118022683
 Root     52 :     4.095618982776138   Change is   -0.003071641895226
 Root     53 :     4.203721094448435   Change is   -0.034181235552388
 Root     54 :     4.278823871419640   Change is   -0.042304242720828
 Root     55 :     4.298171547564079   Change is   -0.008236704797585
 Root     56 :     4.321606131327789   Change is   -0.042555068090735
 Root     57 :     4.332196974205490   Change is   -0.062729296178451
 Root     58 :     4.357850863791289   Change is   -0.041953292974716
 Root     59 :     4.396929076829597   Change is   -0.039907057569259
[...]
 Alpha virt. eigenvalues --    3.21685   3.21821   3.21978   3.22108   3.22348
 Alpha virt. eigenvalues --    3.22505   3.22736   3.22893   3.23028   3.23172
 Alpha virt. eigenvalues --    3.23508   3.23637   3.23929   3.24024   3.24365
 Alpha virt. eigenvalues --    3.24457   3.24769   3.24916   3.25104   3.25216
 Alpha virt. eigenvalues --    3.25855   3.25910   3.26134   3.26841   3.27052
 Alpha virt. eigenvalues --    3.27150   3.27359   3.27517   3.27583   3.27788
 Alpha virt. eigenvalues --    3.27872   3.28333   3.28372   3.28536   3.28653
 Alpha virt. eigenvalues --    3.29129   3.29248   3.29519   3.29593   3.29871
 Alpha virt. eigenvalues --    3.30014   3.30141   3.30549   3.30599   3.31066
 Alpha virt. eigenvalues --    3.31320   3.31480   3.31516   3.32300   3.32657
 Alpha virt. eigenvalues --    3.32977   3.33056   3.33776   3.34061   3.34090
 Alpha virt. eigenvalues --    3.34443   3.34534   3.34860   3.35057   3.35356
 Alpha virt. eigenvalues --    3.35622   3.35819   3.36289   3.36502   3.36557
 Alpha virt. eigenvalues --    3.36902   3.37338   3.37433   3.37719   3.37798
 Alpha virt. eigenvalues --    3.37982   3.38168   3.38348   3.38622   3.39283
 Alpha virt. eigenvalues --    3.39390   3.39556   3.39690   3.39906   3.40263
 Alpha virt. eigenvalues --    3.40383   3.40591   3.40942   3.41065   3.41353
 Alpha virt. eigenvalues --    3.41554   3.41716   3.41828   3.41977   3.42320
 Alpha virt. eigenvalues --    3.42458   3.42888   3.43050   3.43234   3.43457
 Alpha virt. eigenvalues --    3.43651   3.43882   3.44073   3.44693   3.44847
 Alpha virt. eigenvalues --    3.45055   3.45273   3.45677   3.45765   3.45997
 Alpha virt. eigenvalues --    3.46553   3.46650   3.46741   3.47066   3.47262
 Alpha virt. eigenvalues --    3.47551   3.47930   3.48181   3.48340   3.48489
 Alpha virt. eigenvalues --    3.48697   3.48890   3.49103   3.49431   3.49665
 Alpha virt. eigenvalues --    3.49908   3.50232   3.50319   3.50404   3.50761
 Alpha virt. eigenvalues --    3.51030   3.51106   3.51569   3.51892   3.51987
 Alpha virt. eigenvalues --    3.52194   3.52466   3.52720   3.52945   3.53433
 Alpha virt. eigenvalues --    3.53728   3.54234   3.54550   3.54921   3.55155
 Alpha virt. eigenvalues --    3.55521   3.55686   3.55850   3.56181   3.56357
 Alpha virt. eigenvalues --    3.56417   3.57121   3.57164   3.57486   3.57620
 Alpha virt. eigenvalues --    3.57785   3.57816   3.58007   3.58349   3.58595
 Alpha virt. eigenvalues --    3.58662   3.58802   3.59032   3.59296   3.59413
 Alpha virt. eigenvalues --    3.59767   3.59883   3.60049   3.60245   3.60371
 Alpha virt. eigenvalues --    3.60715   3.60955   3.61238   3.61373   3.61581
 Alpha virt. eigenvalues --    3.61894   3.62347   3.62529   3.62728   3.62965
 Alpha virt. eigenvalues --    3.63295   3.63524   3.63714   3.64000   3.64107
 Alpha virt. eigenvalues --    3.64449   3.64602   3.64732   3.64796   3.65370
 Alpha virt. eigenvalues --    3.65594   3.65848   3.66124   3.66390   3.66619
 Alpha virt. eigenvalues --    3.66899   3.67060   3.67218   3.67350   3.67458
 Alpha virt. eigenvalues --    3.67816   3.68375   3.68691   3.68929   3.69114
 Alpha virt. eigenvalues --    3.69273   3.69586   3.69789   3.70164   3.70436
 Alpha virt. eigenvalues --    3.70577   3.70859   3.71096   3.71296   3.71561
 Alpha virt. eigenvalues --    3.71778   3.72091   3.72386   3.72566   3.72821
 Alpha virt. eigenvalues --    3.73081   3.73635   3.73856   3.74113   3.74487
 Alpha virt. eigenvalues --    3.75050   3.75887   3.75993   3.76455   3.77117
 Alpha virt. eigenvalues --    3.77287   3.78124   3.78585   3.78655   3.78867
 Alpha virt. eigenvalues --    3.79690   3.80181   3.80461   3.81146   3.81461
 Alpha virt. eigenvalues --    3.81592   3.82770   3.83370   3.84720   3.85618
 Alpha virt. eigenvalues --    3.86242   3.86671   3.87304   3.87599   3.88186
 Alpha virt. eigenvalues --    3.88747   3.89131   3.89586   3.89896   3.90614
 Alpha virt. eigenvalues --    3.91180   3.91948   3.92069   3.92303   3.92612
 Alpha virt. eigenvalues --    3.93110   3.93238   3.93684   3.94311   3.94374
 Alpha virt. eigenvalues --    3.94855   3.94972   3.95426   3.95567   3.96223
 Alpha virt. eigenvalues --    3.97104   3.97264   3.97785   3.98286   3.99000
 Alpha virt. eigenvalues --    3.99427   4.00323   4.00684   4.01168   4.01830
 Alpha virt. eigenvalues --    4.01851   4.02199   4.02911   4.03082   4.03776
 Alpha virt. eigenvalues --    4.04132   4.04419   4.04829   4.05004   4.05770
 Alpha virt. eigenvalues --    4.06301   4.06405   4.06938   4.07328   4.07417
 Alpha virt. eigenvalues --    4.07683   4.08051   4.08357   4.08395   4.08570
 Alpha virt. eigenvalues --    4.09341   4.09505   4.09650   4.10077   4.10302
 Alpha virt. eigenvalues --    4.10333   4.10591   4.11247   4.11307   4.11542
 Alpha virt. eigenvalues --    4.11870   4.12683   4.12766   4.14459   4.14871
 Alpha virt. eigenvalues --    4.15132   4.15506   4.15726   4.16325   4.16749
 Alpha virt. eigenvalues --    4.17122   4.17660   4.19025   4.19111   4.20068
 Alpha virt. eigenvalues --    4.20456   4.21090   4.21496   4.21707   4.22093
 Alpha virt. eigenvalues --    4.22147   4.22528   4.22639   4.22777   4.22970
 Alpha virt. eigenvalues --    4.23110   4.23593   4.23929   4.24087   4.24211
 Alpha virt. eigenvalues --    4.25169   4.25404   4.25676   4.26670   4.26811
 Alpha virt. eigenvalues --    4.27055   4.27336   4.27859   4.28382   4.28621
 Alpha virt. eigenvalues --    4.28695   4.28978   4.29119   4.29806   4.30214
 Alpha virt. eigenvalues --    4.30733   4.30870   4.30912   4.31359   4.31625
 Alpha virt. eigenvalues --    4.32009   4.32272   4.32480   4.32985   4.33030
 Alpha virt. eigenvalues --    4.33232   4.33435   4.33556   4.33644   4.34043
 Alpha virt. eigenvalues --    4.34370   4.34488   4.34958   4.35210   4.35633
 Alpha virt. eigenvalues --    4.36776   4.36979   4.37176   4.37230   4.37823
 Alpha virt. eigenvalues --    4.38193   4.38773   4.39139   4.39352   4.39477
 Alpha virt. eigenvalues --    4.39611   4.39800   4.40092   4.40194   4.40975
 Alpha virt. eigenvalues --    4.41039   4.41442   4.42100   4.42781   4.42913
 Alpha virt. eigenvalues --    4.43104   4.43289   4.44055   4.44203   4.44811
 Alpha virt. eigenvalues --    4.45003   4.45451   4.45718   4.46186   4.46457
 Alpha virt. eigenvalues --    4.46673   4.47033   4.47047   4.47705   4.48791
 Alpha virt. eigenvalues --    4.49438   4.50515   4.51364   4.51981   4.53598
 Alpha virt. eigenvalues --    4.54137   4.54296   4.54393   4.55031   4.55295
 Alpha virt. eigenvalues --    4.56079   4.56658   4.57458   4.57780   4.57953
 Alpha virt. eigenvalues --    4.58185   4.58812   4.60184   4.60797   4.63442
 Alpha virt. eigenvalues --    4.63743   4.63939   4.64703   4.65262   4.65782
 Alpha virt. eigenvalues --    4.66074   4.66483   4.66947   4.67222   4.68345
 Alpha virt. eigenvalues --    4.68410   4.69766   4.70345   4.71037   4.71957
 Alpha virt. eigenvalues --    4.72376   4.72477   4.73176   4.73942   4.74848
 Alpha virt. eigenvalues --    4.74879   4.75261   4.76193   4.76310   4.76743
 Alpha virt. eigenvalues --    4.76935   4.77201   4.78165   4.78800   4.79261
 Alpha virt. eigenvalues --    4.80021   4.80265   4.80882   4.81211   4.81575
 Alpha virt. eigenvalues --    4.82301   4.83611   4.84468   4.84607   4.85261
 Alpha virt. eigenvalues --    4.85464   4.86354   4.87208   4.87293   4.87661
 Alpha virt. eigenvalues --    4.88152   4.88881   4.89925   4.90423   4.91006
 Alpha virt. eigenvalues --    4.92318   4.92876   4.92996   4.95558   4.96870
 Alpha virt. eigenvalues --    4.97055   4.97233   4.97299   4.97585   4.98317
 Alpha virt. eigenvalues --    4.98513   4.98661   4.99013   4.99821   5.00070
 Alpha virt. eigenvalues --    5.00682   5.01336   5.02135   5.02273   5.04251
 Alpha virt. eigenvalues --    5.04565   5.05470   5.06097   5.06662   5.08323
 Alpha virt. eigenvalues --    5.08963   5.09395   5.09809   5.09995   5.10931
 Alpha virt. eigenvalues --    5.11134   5.11836   5.11943   5.12394   5.12589
 Alpha virt. eigenvalues --    5.13267   5.13572   5.13938   5.14655   5.15009
 Alpha virt. eigenvalues --    5.16547   5.16576   5.18863   5.19251   5.19736
 Alpha virt. eigenvalues --    5.20065   5.20397   5.20685   5.21011   5.21350
 Alpha virt. eigenvalues --    5.21378   5.22063   5.24405   5.24516   5.26094
 Alpha virt. eigenvalues --    5.26648   5.28385   5.31555   5.31675   5.32260
 Alpha virt. eigenvalues --    5.33064   5.33609   5.33763   5.34526   5.34594
 Alpha virt. eigenvalues --    5.35681   5.35888   5.36673   5.37803   5.39191
 Alpha virt. eigenvalues --    5.39732   5.42121   5.42785   5.44165   5.45445
 Alpha virt. eigenvalues --    5.45722   5.46656   5.46708   5.47030   5.47118
 Alpha virt. eigenvalues --    5.47334   5.48323   5.48898   5.51056   5.51414
 Alpha virt. eigenvalues --    5.52341   5.52689   5.53431   5.53766   5.54216
 Alpha virt. eigenvalues --    5.56476   5.57256   5.58091   5.59659   5.59696
 Alpha virt. eigenvalues --    5.60212   5.61501   5.64154   5.65246   5.68445
 Alpha virt. eigenvalues --    5.70082   5.71610   5.72266   5.72719   5.73906
 Alpha virt. eigenvalues --    5.75112   5.75809   5.76002   5.76523   5.77755
 Alpha virt. eigenvalues --    5.78614   5.79731   5.81068   5.81638   5.82110
 Alpha virt. eigenvalues --    5.83444   5.84814   5.85579   5.85939   5.88976
 Alpha virt. eigenvalues --    5.89975   5.90485   5.91399   5.92004   5.93733
 Alpha virt. eigenvalues --    5.94387   5.94456   5.95252   5.97278   5.97365
 Alpha virt. eigenvalues --    5.99636   6.01454   6.02217   6.02977   6.04254
 Alpha virt. eigenvalues --    6.07838   6.09096   6.09890   6.11798   6.13957
 Alpha virt. eigenvalues --    6.14899   6.29021   6.30246   6.31624   6.32226
 Alpha virt. eigenvalues --    6.36746   6.44128   6.46268   6.48436   6.49092
 Alpha virt. eigenvalues --    6.52201   6.63490   6.64247   6.65188   6.76001
 Alpha virt. eigenvalues --    6.84593  22.33581  22.37731  22.39496  22.45858
 Alpha virt. eigenvalues --   22.59344  22.60677  22.61044  22.62359  22.72102
 Alpha virt. eigenvalues --   22.72563  22.73037  22.73427  22.75691  22.76504
 Alpha virt. eigenvalues --   22.78604  22.79115  22.79970  22.81089  22.83192
 Alpha virt. eigenvalues --   22.84136  22.86498  22.87761  22.87967  22.88063
 Alpha virt. eigenvalues --   22.89348  22.90452  22.93725  22.94744  22.97390
 Alpha virt. eigenvalues --   23.06015  23.08363  23.08677  23.12016  23.14145
 Alpha virt. eigenvalues --   23.14883  23.15917  23.19130  23.29098  23.34230
 Alpha virt. eigenvalues --   23.34644  23.36921  23.37074  23.38872  23.39753
 Alpha virt. eigenvalues --   23.40873  23.66976  23.67397  23.68677  23.69927
 Alpha virt. eigenvalues --   23.72378  23.89794  23.93437  23.94281  23.94637
 Alpha virt. eigenvalues --   23.95826  24.06717  32.44160  32.45052  33.48812
 Alpha virt. eigenvalues --   33.56223  33.60275  33.76280
          Condensed to atoms (all electrons):
 Mulliken charges:
               1
     1  C    0.020928
     2  C   -0.105666
     3  C    0.008908
     4  C    0.233907
     5  C    0.265201
     6  C    0.234626
     7  C    0.065465
     8  C    0.070345
     9  N   -0.468755
    10  N   -0.469600
    11  N    0.082490
    12  C    0.234795
    13  C    0.021321
    14  C   -0.311171
    15  C   -0.093524
    16  C   -0.363032
    17  C   -0.155764
    18  C   -0.106649
    19  H    0.154792
    20  C    0.049968
    21  C   -0.063593
    22  H    0.207915
    23  C   -0.002352
    24  C   -0.091522
    25  H    0.107857
    26  H    0.092560
    27  C   -0.091781
    28  H    0.095463
    29  H    0.089211
    30  H    0.089079
    31  H    0.088985
    32  N    0.584871
    33  C    0.018451
    34  C    0.034758
    35  C   -0.521152
    36  C   -0.091129
    37  C   -0.538915
    38  C   -0.090683
    39  C   -0.036737
    40  H    0.145850
    41  C    0.069930
    42  C   -0.025047
    43  H    0.156082
    44  C    0.085674
    45  C   -0.093753
    46  H    0.107369
    47  H    0.088167
    48  C   -0.102718
    49  H    0.107236
    50  H    0.088284
    51  H    0.088212
    52  H    0.087610
    53  N    0.086940
    54  C   -0.018048
    55  C    0.211638
    56  C   -0.330314
    57  C   -0.127553
    58  C   -0.293857
    59  C   -0.082455
    60  C   -0.083056
    61  H    0.223354
    62  C   -0.002746
    63  C   -0.111879
    64  H    0.154560
    65  C    0.036658
    66  C   -0.084463
    67  H    0.094116
    68  H    0.088949
    69  C   -0.084669
    70  H    0.107137
    71  H    0.092515
    72  H    0.088775
    73  H    0.089541
    74  N   -0.194593
    75  C    0.089047
    76  C    0.113841
    77  C   -0.259083
    78  C   -0.110679
    79  C   -0.272344
    80  C   -0.110612
    81  C   -0.085902
    82  H    0.226122
    83  C    0.010427
    84  C   -0.080798
    85  H    0.211903
    86  C    0.011372
    87  C   -0.105694
    88  H    0.095118
    89  H    0.092244
    90  C   -0.106118
    91  H    0.095939
    92  H    0.092512
    93  H    0.089602
    94  H    0.089783
 Sum of Mulliken charges =  -0.00000
 Mulliken charges with hydrogens summed into heavy atoms:
               1
     1  C    0.020928
     2  C   -0.105666
     3  C    0.008908
     4  C    0.233907
     5  C    0.265201
     6  C    0.234626
     7  C    0.065465
     8  C    0.070345
     9  N   -0.468755
    10  N   -0.469600
    11  N    0.082490
    12  C    0.234795
    13  C    0.021321
    14  C   -0.156379
    15  C   -0.093524
    16  C   -0.155117
    17  C   -0.155764
    18  C    0.001208
    20  C    0.142528
    21  C    0.031870
    23  C    0.086859
    24  C   -0.002443
    27  C   -0.002796
    32  N    0.584871
    33  C    0.018451
    34  C    0.034758
    35  C   -0.375302
    36  C   -0.091129
    37  C   -0.382833
    38  C   -0.090683
    39  C    0.070632
    41  C    0.158098
    42  C    0.082189
    44  C    0.173958
    45  C   -0.005540
    48  C   -0.015108
    53  N    0.086940
    54  C   -0.018048
    55  C    0.211638
    56  C   -0.106959
    57  C   -0.127553
    58  C   -0.139297
    59  C   -0.082455
    60  C    0.011059
    62  C    0.086203
    63  C   -0.004742
    65  C    0.129173
    66  C    0.004313
    69  C    0.004872
    74  N   -0.194593
    75  C    0.089047
    76  C    0.113841
    77  C   -0.032961
    78  C   -0.110679
    79  C   -0.060441
    80  C   -0.110612
    81  C    0.009217
    83  C    0.102670
    84  C    0.015141
    86  C    0.103884
    87  C   -0.016092
    90  C   -0.016335
 Electronic spatial extent (au):  <R**2>=          34709.7873
 Charge=             -0.0000 electrons
 Dipole moment (field-independent basis, Debye):
    X=             -4.6496    Y=              0.1143    Z=              0.0206  Tot=              4.6510
 Quadrupole moment (field-independent basis, Debye-Ang):
   XX=           -340.4831   YY=           -352.6748   ZZ=           -339.8514
   XY=              0.3089   XZ=              0.7295   YZ=             33.8351
 Traceless Quadrupole moment (field-independent basis, Debye-Ang):
   XX=              3.8533   YY=             -8.3384   ZZ=              4.4850
   XY=              0.3089   XZ=              0.7295   YZ=             33.8351
 Octapole moment (field-independent basis, Debye-Ang**2):
  XXX=              4.4048  YYY=             11.1106  ZZZ=              0.3410  XYY=           -165.4638
  XXY=             -4.6274  XXZ=              5.2868  XZZ=            -50.8763  YZZ=              0.2863
  YYZ=             -4.5050  XYZ=            108.8710
 Hexadecapole moment (field-independent basis, Debye-Ang**3):
 XXXX=         -22038.7783 YYYY=         -17172.9199 ZZZZ=          -6178.4058 XXXY=            -21.3732
 XXXZ=              8.7504 YYYX=             39.1024 YYYZ=            556.1191 ZZZX=              3.8575
 ZZZY=            228.5655 XXYY=          -7061.1806 XXZZ=          -4920.9485 YYZZ=          -3876.5155
 XXYZ=            357.0520 YYXZ=              8.4206 ZZXY=             -7.1654
 N-N= 8.864349289563D+03 E-N=-2.349089492723D+04  KE= 2.471990109477D+03
 Leave Link  601 at Thu Jun 30 05:49:43 2022, MaxMem=  5242880000 cpu:        21.1
 (Enter /opt/nce/packages/global/g09/l9999.exe)
 1\1\GINC-CN032\SP\RM06L TD-FC\def2TZVP\C56H32N6\PNG4RJV\30-Jun-2022\0\
 \#p m06l/def2TZVP td=(NStates=50) int=ultrafine scrf=(SMD,solvent=Acet
 onitrile)\\Title\\0,1\C,0,0.137083,-1.179213,0.319302\C,0,-0.555569,-0
 .001826,-0.008794\C,0,0.17542,1.149009,-0.35453\C,0,1.58093,1.111562,-
 0.375929\C,0,2.275613,-0.046958,-0.007715\C,0,1.54385,-1.186856,0.3440
 73\C,0,2.297115,2.217986,-0.897582\C,0,2.21958,-2.322864,0.855571\N,0,
 2.881333,3.111419,-1.34291\N,0,2.771509,-3.241468,1.290731\N,0,-0.5432
 38,-2.349952,0.668156\C,0,-1.506144,-2.4884,1.671448\C,0,-0.465239,-3.
 559196,-0.035914\C,0,-1.868522,-1.592535,2.664795\C,0,-2.061336,-3.779
 856,1.590785\C,0,0.311744,-3.8815,-1.138253\C,0,-1.399829,-4.458942,0.
 50924\C,0,-2.857134,-1.986766,3.552384\H,0,-1.394448,-0.624389,2.75418
 4\C,0,-3.047337,-4.155204,2.498889\C,0,0.157664,-5.148087,-1.680098\H,
 0,1.003422,-3.171041,-1.574021\C,0,-1.537104,-5.724015,-0.055342\C,0,-
 3.448965,-3.249083,3.46604\H,0,-3.166999,-1.302386,4.332385\H,0,-3.485
 545,-5.14437,2.45065\C,0,-0.75209,-6.06227,-1.144235\H,0,0.75434,-5.42
 8933,-2.53844\H,0,-2.2548,-6.426638,0.349808\H,0,-4.217901,-3.525728,4
 .175616\H,0,-0.84662,-7.043053,-1.591828\N,0,-1.957045,0.034524,0.0226
 46\C,0,-2.72329,0.887142,0.820775\C,0,-2.825974,-0.769174,-0.718542\C,
 0,-2.303904,1.803494,1.772775\C,0,-4.087098,0.633746,0.579768\C,0,-2.5
 33493,-1.719645,-1.68518\C,0,-4.152398,-0.425874,-0.389802\C,0,-3.2793
 66,2.517164,2.450736\H,0,-1.255016,1.945799,1.997504\C,0,-5.049069,1.3
 59541,1.278002\C,0,-3.597844,-2.370669,-2.288401\H,0,-1.514287,-1.9383
 1,-1.975471\C,0,-5.204607,-1.09027,-1.014446\C,0,-4.637822,2.307027,2.
 200268\H,0,-2.978017,3.244684,3.194185\H,0,-6.102414,1.17673,1.104767\
 C,0,-4.919825,-2.068311,-1.952185\H,0,-3.395443,-3.123621,-3.040036\H,
 0,-6.229437,-0.837978,-0.771433\H,0,-5.374743,2.88169,2.746148\H,0,-5.
 727769,-2.596627,-2.441424\N,0,-0.471067,2.331344,-0.726157\C,0,-0.352
 926,3.56244,-0.066413\C,0,-1.437566,2.462894,-1.727464\C,0,0.445247,3.
 904276,1.014629\C,0,-1.268811,4.467345,-0.634419\C,0,-1.82863,1.544848
 ,-2.688766\C,0,-1.956736,3.770634,-1.687931\C,0,0.329821,5.192501,1.51
 2973\H,0,1.124811,3.192526,1.466697\C,0,-1.367394,5.75468,-0.113689\C,
 0,-2.810139,1.935855,-3.585595\H,0,-1.380909,0.561797,-2.748243\C,0,-2
 .936672,4.142522,-2.604249\C,0,-0.562516,6.110438,0.954791\H,0,0.94418
 1,5.488101,2.353721\H,0,-2.070403,6.461282,-0.537183\C,0,-3.367365,3.2
 15866,-3.53881\H,0,-3.142116,1.234543,-4.34107\H,0,-3.347923,5.144204,
 -2.587114\H,0,-0.626678,7.108575,1.368086\H,0,-4.132043,3.489582,-4.25
 4121\N,0,3.670411,-0.058886,0.012338\C,0,4.499451,-0.927788,-0.706143\
 C,0,4.478841,0.813498,0.750115\C,0,4.156141,-1.929909,-1.600958\C,0,5.
 840359,-0.603714,-0.424713\C,0,4.107847,1.813576,1.635813\C,0,5.827267
 ,0.497495,0.500116\C,0,5.189731,-2.630917,-2.20169\H,0,3.123145,-2.158
 722,-1.829827\C,0,6.85968,-1.321615,-1.044022\C,0,5.122212,2.52335,2.2
 5843\H,0,3.068086,2.035151,1.840638\C,0,6.82728,1.22378,1.141263\C,0,6
 .526405,-2.335376,-1.925355\H,0,4.951417,-3.421501,-2.901571\H,0,7.896
 096,-1.0829,-0.83981\C,0,6.466887,2.237204,2.012286\H,0,4.862416,3.313
 209,2.951459\H,0,7.869796,0.99261,0.960721\H,0,7.30821,-2.903277,-2.41
 2756\H,0,7.23355,2.811895,2.515526\\Version=ES64L-G09RevE.01\State=1-A
 \HF=-2482.4172649\RMSD=4.561e-09\PG=C01 [X(C56H32N6)]\\@


 SCIENCE IS LONG AND LIFE IS SHORT.

                     DON MOSER IN THE FEBRUARY 1979 SMITHSONIAN
 Job cpu time:      16 days 11 hours 34 minutes 39.5 seconds.
 File lengths (MBytes):  RWF=  27751 Int=      0 D2E=      0 Chk=   6203 Scr=      1
 Normal termination of Gaussian 09 at Thu Jun 30 05:49:54 2022.
