 Entering Gaussian System, Link 0=g09
 Input=/home/png4rjv/fotokatalizis/benchmark/OPCs/CA_50_states/CA_1_M06_def2TZVP.gjf
 Output=/home/png4rjv/fotokatalizis/benchmark/OPCs/CA_50_states/CA_1_M06_def2TZVP.log
 Initial command:
 /opt/nce/packages/global/g09/l1.exe "/home/png4rjv/fotokatalizis/benchmark/OPCs/CA_50_states/CA_1_M06_def2TZVP/Gau-63976.inp" -scrdir="/home/png4rjv/fotokatalizis/benchmark/OPCs/CA_50_states/CA_1_M06_def2TZVP/"
 Default is to use a total of  12 processors:
                               12 via shared-memory
                                1 via Linda
 Entering Link 1 = /opt/nce/packages/global/g09/l1.exe PID=     63977.
  
 Copyright (c) 1988,1990,1992,1993,1995,1998,2003,2009,2015,
            Gaussian, Inc.  All Rights Reserved.
  
 This is part of the Gaussian(R) 09 program.  It is based on
 the Gaussian(R) 03 system (copyright 2003, Gaussian, Inc.),
 the Gaussian(R) 98 system (copyright 1998, Gaussian, Inc.),
 the Gaussian(R) 94 system (copyright 1995, Gaussian, Inc.),
 the Gaussian 92(TM) system (copyright 1992, Gaussian, Inc.),
 the Gaussian 90(TM) system (copyright 1990, Gaussian, Inc.),
 the Gaussian 88(TM) system (copyright 1988, Gaussian, Inc.),
 the Gaussian 86(TM) system (copyright 1986, Carnegie Mellon
 University), and the Gaussian 82(TM) system (copyright 1983,
 Carnegie Mellon University). Gaussian is a federally registered
 trademark of Gaussian, Inc.
  
 This software contains proprietary and confidential information,
 including trade secrets, belonging to Gaussian, Inc.
  
 This software is provided under written license and may be
 used, copied, transmitted, or stored only in accord with that
 written license.
  
 The following legend is applicable only to US Government
 contracts under FAR:
  
                    RESTRICTED RIGHTS LEGEND
  
 Use, reproduction and disclosure by the US Government is
 subject to restrictions as set forth in subparagraphs (a)
 and (c) of the Commercial Computer Software - Restricted
 Rights clause in FAR 52.227-19.
  
 Gaussian, Inc.
 340 Quinnipiac St., Bldg. 40, Wallingford CT 06492
  
  
 ---------------------------------------------------------------
 Warning -- This program may not be used in any manner that
 competes with the business of Gaussian, Inc. or will provide
 assistance to any competitor of Gaussian, Inc.  The licensee
 of this program is prohibited from giving any competitor of
 Gaussian, Inc. access to this program.  By using this program,
 the user acknowledges that Gaussian, Inc. is engaged in the
 business of creating and licensing software in the field of
 computational chemistry and represents and warrants to the
 licensee that it is not a competitor of Gaussian, Inc. and that
 it will not use this program in any manner prohibited above.
 ---------------------------------------------------------------
  

 Cite this work as:
 Gaussian 09, Revision E.01,
 M. J. Frisch, G. W. Trucks, H. B. Schlegel, G. E. Scuseria, 
 M. A. Robb, J. R. Cheeseman, G. Scalmani, V. Barone, B. Mennucci, 
 G. A. Petersson, H. Nakatsuji, M. Caricato, X. Li, H. P. Hratchian, 
 A. F. Izmaylov, J. Bloino, G. Zheng, J. L. Sonnenberg, M. Hada, 
 M. Ehara, K. Toyota, R. Fukuda, J. Hasegawa, M. Ishida, T. Nakajima, 
 Y. Honda, O. Kitao, H. Nakai, T. Vreven, J. A. Montgomery, Jr., 
 J. E. Peralta, F. Ogliaro, M. Bearpark, J. J. Heyd, E. Brothers, 
 K. N. Kudin, V. N. Staroverov, T. Keith, R. Kobayashi, J. Normand, 
 K. Raghavachari, A. Rendell, J. C. Burant, S. S. Iyengar, J. Tomasi, 
 M. Cossi, N. Rega, J. M. Millam, M. Klene, J. E. Knox, J. B. Cross, 
 V. Bakken, C. Adamo, J. Jaramillo, R. Gomperts, R. E. Stratmann, 
 O. Yazyev, A. J. Austin, R. Cammi, C. Pomelli, J. W. Ochterski, 
 R. L. Martin, K. Morokuma, V. G. Zakrzewski, G. A. Voth, 
 P. Salvador, J. J. Dannenberg, S. Dapprich, A. D. Daniels, 
 O. Farkas, J. B. Foresman, J. V. Ortiz, J. Cioslowski, 
 and D. J. Fox, Gaussian, Inc., Wallingford CT, 2013.
 
 ******************************************
 Gaussian 09:  ES64L-G09RevE.01 30-Nov-2015
                28-Jun-2022 
 ******************************************
 %chk=cp.chk
 Default route:  MaxDisk=500GB
 ----------------------------------------------------------------------
 #p m06/def2TZVP td=(NStates=50) int=ultrafine scrf=(SMD,solvent=Aceton
 itrile)
 ----------------------------------------------------------------------
 1/38=1/1;
 2/12=2,17=6,18=5,40=1/2;
 3/5=44,7=101,11=9,16=1,25=1,30=1,70=32201,72=2,74=-54,75=-5/1,2,8,3;
 4//1;
 5/5=2,38=5,53=2/2;
 8/6=1,10=1,108=50/1;
 9/41=50,42=1,70=2/14;
 6/7=2,8=2,9=2,10=2/1;
 99/5=1,9=1/99;
 Leave Link    1 at Tue Jun 28 18:25:22 2022, MaxMem=           0 cpu:         1.9
 (Enter /opt/nce/packages/global/g09/l101.exe)
 -----
 Title
 -----
 Symbolic Z-matrix:
 Charge =  0 Multiplicity = 1
 C                     0.1767   -1.15297   0.38335 
 C                    -0.51198   0.00485  -0.00649 
 C                     0.21716   1.14015  -0.38768 
 C                     1.61669   1.09713  -0.40606 
 C                     2.30586  -0.04132   0.0067 
 C                     1.5765   -1.15676   0.41295 
 C                     2.34582   2.19751  -0.93886 
 C                     2.26476  -2.28067   0.95053 
 N                     2.94028   3.07658  -1.38165 
 N                     2.82576  -3.1804    1.39548 
 N                    -0.50897  -2.30871   0.77222 
 C                    -1.48077  -2.39018   1.77374 
 C                    -0.51859  -3.51476   0.05655 
 C                    -1.78619  -1.48164   2.77191 
 C                    -2.12402  -3.63352   1.68344 
 C                     0.23682  -3.89526  -1.0408 
 C                    -1.51127  -4.3483    0.59402 
 C                    -2.80081  -1.81371   3.65212 
 H                    -1.24987  -0.54537   2.86784 
 C                    -3.13499  -3.95117   2.58189 
 C                    -0.01261  -5.14211  -1.58748 
 H                     0.98818  -3.24434  -1.47474 
 C                    -1.74366  -5.59598   0.02944 
 C                    -3.47698  -3.03046   3.5546 
 H                    -3.06744  -1.11432   4.43678 
 H                    -3.63965  -4.90929   2.51915 
 C                    -0.98895  -5.98718  -1.05991 
 H                     0.56566  -5.46513  -2.44544 
 H                    -2.51201  -6.24393   0.43748 
 H                    -4.26626  -3.25999   4.26085 
 H                    -1.15636  -6.9571   -1.51331 
 N                    -1.9135    0.02574  -0.01436 
 C                    -2.72805   0.82914   0.78712 
 C                    -2.73713  -0.76931  -0.81454 
 C                    -2.37622   1.73485   1.77516 
 C                    -4.07172   0.54603   0.49476 
 C                    -2.39486  -1.67315  -1.80769 
 C                    -4.07742  -0.47573  -0.51842 
 C                    -3.39735   2.3883    2.44173 
 H                    -1.34076   1.91921   2.03562 
 C                    -5.08235   1.21      1.17997 
 C                    -3.42255  -2.31822  -2.47217 
 H                    -1.36143  -1.8615   -2.07315 
 C                    -5.09497  -1.13173  -1.20102 
 C                    -4.73806   2.13667   2.14518 
 H                    -3.14631   3.10504   3.21572 
 H                    -6.12236   0.99438   0.95946 
 C                    -4.76045  -2.05909  -2.16918 
 H                    -3.17926  -3.03337  -3.25005 
 H                    -6.13278  -0.90922  -0.977 
 H                    -5.51292   2.66621   2.68699 
 H                    -5.54084  -2.58235  -2.70914 
 N                    -0.42489   2.32115  -0.77148 
 C                    -0.37889   3.52371  -0.05221 
 C                    -1.39323   2.44917  -1.77099 
 C                     0.39496   3.86319   1.0455 
 C                    -1.33324   4.40333  -0.58498 
 C                    -1.74165   1.55683  -2.76951 
 C                    -1.97866   3.7206   -1.67636 
 C                     0.20251   5.11682   1.5996 
 H                     1.11709   3.17523   1.47209 
 C                    -1.50902   5.65663  -0.01254 
 C                    -2.74346   1.93581  -3.6454 
 H                    -1.24727   0.59808  -2.86854 
 C                    -2.97644   4.08539  -2.57174 
 C                    -0.7363    6.00714   1.07825 
 H                     0.79585   5.40938   2.45821 
 H                    -2.2483    6.34066  -0.41534 
 C                    -3.36325   3.18197  -3.54392 
 H                    -3.04453   1.25045  -4.43008 
 H                    -3.43721   5.06515  -2.50608 
 H                    -0.86002   6.98094   1.53731 
 H                    -4.14413   3.44763  -4.24682 
 N                     3.70244  -0.06355   0.01361 
 C                     4.51129  -0.87211  -0.78958 
 C                     4.52675   0.73934   0.80611 
 C                     4.14741  -1.80113  -1.75066 
 C                     5.85524  -0.58227  -0.50647 
 C                     4.18005   1.67205   1.76992 
 C                     5.86491   0.43905   0.50858 
 C                     5.16618  -2.45514  -2.42088 
 H                     3.10736  -2.01064  -1.97643 
 C                     6.8602   -1.25048  -1.19446 
 C                     5.21069   2.31998   2.42763 
 H                     3.144     1.88791   2.00703 
 C                     6.88224   1.10076   1.18457 
 C                     6.50782  -2.18736  -2.14706 
 H                     4.91279  -3.18959  -3.17672 
 H                     7.90207  -1.0326   -0.98527 
 C                     6.54729   2.04196   2.13933 
 H                     4.97099   3.05756   3.18484 
 H                     7.92017   0.87535   0.9641 
 H                     7.2789   -2.71858  -2.69266 
 H                     7.32822   2.56868   2.67515 
 
 NAtoms=     94 NQM=       94 NQMF=       0 NMMI=      0 NMMIF=      0
                NMic=       0 NMicF=      0.
                    Isotopes and Nuclear Properties:
 (Nuclear quadrupole moments (NQMom) in fm**2, nuclear magnetic moments (NMagM)
  in nuclear magnetons)

  Atom         1           2           3           4           5           6           7           8           9          10
 IAtWgt=          12          12          12          12          12          12          12          12          14          14
 AtmWgt=  12.0000000  12.0000000  12.0000000  12.0000000  12.0000000  12.0000000  12.0000000  12.0000000  14.0030740  14.0030740
 NucSpn=           0           0           0           0           0           0           0           0           2           2
 AtZEff=   0.0000000   0.0000000   0.0000000   0.0000000   0.0000000   0.0000000   0.0000000   0.0000000   0.0000000   0.0000000
 NQMom=    0.0000000   0.0000000   0.0000000   0.0000000   0.0000000   0.0000000   0.0000000   0.0000000   2.0440000   2.0440000
 NMagM=    0.0000000   0.0000000   0.0000000   0.0000000   0.0000000   0.0000000   0.0000000   0.0000000   0.4037610   0.4037610
 AtZNuc=   6.0000000   6.0000000   6.0000000   6.0000000   6.0000000   6.0000000   6.0000000   6.0000000   7.0000000   7.0000000

  Atom        11          12          13          14          15          16          17          18          19          20
 IAtWgt=          14          12          12          12          12          12          12          12           1          12
 AtmWgt=  14.0030740  12.0000000  12.0000000  12.0000000  12.0000000  12.0000000  12.0000000  12.0000000   1.0078250  12.0000000
 NucSpn=           2           0           0           0           0           0           0           0           1           0
 AtZEff=   0.0000000   0.0000000   0.0000000   0.0000000   0.0000000   0.0000000   0.0000000   0.0000000   0.0000000   0.0000000
 NQMom=    2.0440000   0.0000000   0.0000000   0.0000000   0.0000000   0.0000000   0.0000000   0.0000000   0.0000000   0.0000000
 NMagM=    0.4037610   0.0000000   0.0000000   0.0000000   0.0000000   0.0000000   0.0000000   0.0000000   2.7928460   0.0000000
 AtZNuc=   7.0000000   6.0000000   6.0000000   6.0000000   6.0000000   6.0000000   6.0000000   6.0000000   1.0000000   6.0000000

  Atom        21          22          23          24          25          26          27          28          29          30
 IAtWgt=          12           1          12          12           1           1          12           1           1           1
 AtmWgt=  12.0000000   1.0078250  12.0000000  12.0000000   1.0078250   1.0078250  12.0000000   1.0078250   1.0078250   1.0078250
 NucSpn=           0           1           0           0           1           1           0           1           1           1
 AtZEff=   0.0000000   0.0000000   0.0000000   0.0000000   0.0000000   0.0000000   0.0000000   0.0000000   0.0000000   0.0000000
 NQMom=    0.0000000   0.0000000   0.0000000   0.0000000   0.0000000   0.0000000   0.0000000   0.0000000   0.0000000   0.0000000
 NMagM=    0.0000000   2.7928460   0.0000000   0.0000000   2.7928460   2.7928460   0.0000000   2.7928460   2.7928460   2.7928460
 AtZNuc=   6.0000000   1.0000000   6.0000000   6.0000000   1.0000000   1.0000000   6.0000000   1.0000000   1.0000000   1.0000000

  Atom        31          32          33          34          35          36          37          38          39          40
 IAtWgt=           1          14          12          12          12          12          12          12          12           1
 AtmWgt=   1.0078250  14.0030740  12.0000000  12.0000000  12.0000000  12.0000000  12.0000000  12.0000000  12.0000000   1.0078250
 NucSpn=           1           2           0           0           0           0           0           0           0           1
 AtZEff=   0.0000000   0.0000000   0.0000000   0.0000000   0.0000000   0.0000000   0.0000000   0.0000000   0.0000000   0.0000000
 NQMom=    0.0000000   2.0440000   0.0000000   0.0000000   0.0000000   0.0000000   0.0000000   0.0000000   0.0000000   0.0000000
 NMagM=    2.7928460   0.4037610   0.0000000   0.0000000   0.0000000   0.0000000   0.0000000   0.0000000   0.0000000   2.7928460
 AtZNuc=   1.0000000   7.0000000   6.0000000   6.0000000   6.0000000   6.0000000   6.0000000   6.0000000   6.0000000   1.0000000

  Atom        41          42          43          44          45          46          47          48          49          50
 IAtWgt=          12          12           1          12          12           1           1          12           1           1
 AtmWgt=  12.0000000  12.0000000   1.0078250  12.0000000  12.0000000   1.0078250   1.0078250  12.0000000   1.0078250   1.0078250
 NucSpn=           0           0           1           0           0           1           1           0           1           1
 AtZEff=   0.0000000   0.0000000   0.0000000   0.0000000   0.0000000   0.0000000   0.0000000   0.0000000   0.0000000   0.0000000
 NQMom=    0.0000000   0.0000000   0.0000000   0.0000000   0.0000000   0.0000000   0.0000000   0.0000000   0.0000000   0.0000000
 NMagM=    0.0000000   0.0000000   2.7928460   0.0000000   0.0000000   2.7928460   2.7928460   0.0000000   2.7928460   2.7928460
 AtZNuc=   6.0000000   6.0000000   1.0000000   6.0000000   6.0000000   1.0000000   1.0000000   6.0000000   1.0000000   1.0000000

  Atom        51          52          53          54          55          56          57          58          59          60
 IAtWgt=           1           1          14          12          12          12          12          12          12          12
 AtmWgt=   1.0078250   1.0078250  14.0030740  12.0000000  12.0000000  12.0000000  12.0000000  12.0000000  12.0000000  12.0000000
 NucSpn=           1           1           2           0           0           0           0           0           0           0
 AtZEff=   0.0000000   0.0000000   0.0000000   0.0000000   0.0000000   0.0000000   0.0000000   0.0000000   0.0000000   0.0000000
 NQMom=    0.0000000   0.0000000   2.0440000   0.0000000   0.0000000   0.0000000   0.0000000   0.0000000   0.0000000   0.0000000
 NMagM=    2.7928460   2.7928460   0.4037610   0.0000000   0.0000000   0.0000000   0.0000000   0.0000000   0.0000000   0.0000000
 AtZNuc=   1.0000000   1.0000000   7.0000000   6.0000000   6.0000000   6.0000000   6.0000000   6.0000000   6.0000000   6.0000000

  Atom        61          62          63          64          65          66          67          68          69          70
 IAtWgt=           1          12          12           1          12          12           1           1          12           1
 AtmWgt=   1.0078250  12.0000000  12.0000000   1.0078250  12.0000000  12.0000000   1.0078250   1.0078250  12.0000000   1.0078250
 NucSpn=           1           0           0           1           0           0           1           1           0           1
 AtZEff=   0.0000000   0.0000000   0.0000000   0.0000000   0.0000000   0.0000000   0.0000000   0.0000000   0.0000000   0.0000000
 NQMom=    0.0000000   0.0000000   0.0000000   0.0000000   0.0000000   0.0000000   0.0000000   0.0000000   0.0000000   0.0000000
 NMagM=    2.7928460   0.0000000   0.0000000   2.7928460   0.0000000   0.0000000   2.7928460   2.7928460   0.0000000   2.7928460
 AtZNuc=   1.0000000   6.0000000   6.0000000   1.0000000   6.0000000   6.0000000   1.0000000   1.0000000   6.0000000   1.0000000

  Atom        71          72          73          74          75          76          77          78          79          80
 IAtWgt=           1           1           1          14          12          12          12          12          12          12
 AtmWgt=   1.0078250   1.0078250   1.0078250  14.0030740  12.0000000  12.0000000  12.0000000  12.0000000  12.0000000  12.0000000
 NucSpn=           1           1           1           2           0           0           0           0           0           0
 AtZEff=   0.0000000   0.0000000   0.0000000   0.0000000   0.0000000   0.0000000   0.0000000   0.0000000   0.0000000   0.0000000
 NQMom=    0.0000000   0.0000000   0.0000000   2.0440000   0.0000000   0.0000000   0.0000000   0.0000000   0.0000000   0.0000000
 NMagM=    2.7928460   2.7928460   2.7928460   0.4037610   0.0000000   0.0000000   0.0000000   0.0000000   0.0000000   0.0000000
 AtZNuc=   1.0000000   1.0000000   1.0000000   7.0000000   6.0000000   6.0000000   6.0000000   6.0000000   6.0000000   6.0000000

  Atom        81          82          83          84          85          86          87          88          89          90
 IAtWgt=          12           1          12          12           1          12          12           1           1          12
 AtmWgt=  12.0000000   1.0078250  12.0000000  12.0000000   1.0078250  12.0000000  12.0000000   1.0078250   1.0078250  12.0000000
 NucSpn=           0           1           0           0           1           0           0           1           1           0
 AtZEff=   0.0000000   0.0000000   0.0000000   0.0000000   0.0000000   0.0000000   0.0000000   0.0000000   0.0000000   0.0000000
 NQMom=    0.0000000   0.0000000   0.0000000   0.0000000   0.0000000   0.0000000   0.0000000   0.0000000   0.0000000   0.0000000
 NMagM=    0.0000000   2.7928460   0.0000000   0.0000000   2.7928460   0.0000000   0.0000000   2.7928460   2.7928460   0.0000000
 AtZNuc=   6.0000000   1.0000000   6.0000000   6.0000000   1.0000000   6.0000000   6.0000000   1.0000000   1.0000000   6.0000000

  Atom        91          92          93          94
 IAtWgt=           1           1           1           1
 AtmWgt=   1.0078250   1.0078250   1.0078250   1.0078250
 NucSpn=           1           1           1           1
 AtZEff=   0.0000000   0.0000000   0.0000000   0.0000000
 NQMom=    0.0000000   0.0000000   0.0000000   0.0000000
 NMagM=    2.7928460   2.7928460   2.7928460   2.7928460
 AtZNuc=   1.0000000   1.0000000   1.0000000   1.0000000
 Leave Link  101 at Tue Jun 28 18:25:22 2022, MaxMem=  5242880000 cpu:         1.9
 (Enter /opt/nce/packages/global/g09/l202.exe)
 Stoichiometry    C56H32N6
 Framework group  C1[X(C56H32N6)]
 Deg. of freedom   276
 Full point group                 C1      NOp   1
 Largest Abelian subgroup         C1      NOp   1
 Largest concise Abelian subgroup C1      NOp   1
                         Standard orientation:                         
 ---------------------------------------------------------------------
 Center     Atomic      Atomic             Coordinates (Angstroms)
 Number     Number       Type             X           Y           Z
 ---------------------------------------------------------------------
      1          6           0        0.176702   -1.152969    0.383353
      2          6           0       -0.511981    0.004848   -0.006487
      3          6           0        0.217156    1.140151   -0.387680
      4          6           0        1.616694    1.097133   -0.406058
      5          6           0        2.305864   -0.041319    0.006700
      6          6           0        1.576501   -1.156763    0.412954
      7          6           0        2.345819    2.197509   -0.938862
      8          6           0        2.264763   -2.280669    0.950530
      9          7           0        2.940276    3.076580   -1.381651
     10          7           0        2.825758   -3.180404    1.395477
     11          7           0       -0.508970   -2.308708    0.772223
     12          6           0       -1.480766   -2.390184    1.773738
     13          6           0       -0.518589   -3.514762    0.056549
     14          6           0       -1.786194   -1.481638    2.771913
     15          6           0       -2.124018   -3.633522    1.683440
     16          6           0        0.236824   -3.895255   -1.040796
     17          6           0       -1.511272   -4.348305    0.594017
     18          6           0       -2.800807   -1.813713    3.652120
     19          1           0       -1.249868   -0.545374    2.867836
     20          6           0       -3.134995   -3.951166    2.581888
     21          6           0       -0.012606   -5.142108   -1.587480
     22          1           0        0.988176   -3.244343   -1.474740
     23          6           0       -1.743656   -5.595982    0.029441
     24          6           0       -3.476979   -3.030460    3.554604
     25          1           0       -3.067444   -1.114321    4.436777
     26          1           0       -3.639647   -4.909294    2.519150
     27          6           0       -0.988945   -5.987178   -1.059915
     28          1           0        0.565656   -5.465130   -2.445442
     29          1           0       -2.512014   -6.243928    0.437475
     30          1           0       -4.266258   -3.259994    4.260849
     31          1           0       -1.156356   -6.957101   -1.513311
     32          7           0       -1.913502    0.025742   -0.014361
     33          6           0       -2.728045    0.829138    0.787117
     34          6           0       -2.737132   -0.769311   -0.814541
     35          6           0       -2.376224    1.734851    1.775155
     36          6           0       -4.071725    0.546025    0.494759
     37          6           0       -2.394858   -1.673151   -1.807688
     38          6           0       -4.077422   -0.475726   -0.518415
     39          6           0       -3.397351    2.388301    2.441725
     40          1           0       -1.340763    1.919212    2.035624
     41          6           0       -5.082353    1.210001    1.179971
     42          6           0       -3.422545   -2.318221   -2.472169
     43          1           0       -1.361428   -1.861504   -2.073149
     44          6           0       -5.094971   -1.131729   -1.201023
     45          6           0       -4.738056    2.136674    2.145178
     46          1           0       -3.146308    3.105043    3.215721
     47          1           0       -6.122363    0.994382    0.959463
     48          6           0       -4.760453   -2.059091   -2.169176
     49          1           0       -3.179260   -3.033372   -3.250054
     50          1           0       -6.132780   -0.909215   -0.977001
     51          1           0       -5.512919    2.666212    2.686993
     52          1           0       -5.540837   -2.582349   -2.709136
     53          7           0       -0.424890    2.321151   -0.771483
     54          6           0       -0.378885    3.523706   -0.052205
     55          6           0       -1.393226    2.449172   -1.770988
     56          6           0        0.394955    3.863186    1.045504
     57          6           0       -1.333240    4.403327   -0.584984
     58          6           0       -1.741649    1.556825   -2.769513
     59          6           0       -1.978662    3.720598   -1.676363
     60          6           0        0.202509    5.116816    1.599598
     61          1           0        1.117091    3.175232    1.472092
     62          6           0       -1.509020    5.656629   -0.012542
     63          6           0       -2.743457    1.935811   -3.645402
     64          1           0       -1.247273    0.598079   -2.868542
     65          6           0       -2.976436    4.085386   -2.571744
     66          6           0       -0.736299    6.007143    1.078253
     67          1           0        0.795853    5.409376    2.458209
     68          1           0       -2.248296    6.340664   -0.415341
     69          6           0       -3.363246    3.181969   -3.543917
     70          1           0       -3.044533    1.250448   -4.430075
     71          1           0       -3.437208    5.065151   -2.506077
     72          1           0       -0.860024    6.980936    1.537310
     73          1           0       -4.144130    3.447634   -4.246820
     74          7           0        3.702436   -0.063554    0.013611
     75          6           0        4.511286   -0.872107   -0.789575
     76          6           0        4.526745    0.739340    0.806108
     77          6           0        4.147409   -1.801125   -1.750659
     78          6           0        5.855243   -0.582270   -0.506472
     79          6           0        4.180047    1.672049    1.769917
     80          6           0        5.864911    0.439051    0.508578
     81          6           0        5.166176   -2.455144   -2.420884
     82          1           0        3.107355   -2.010640   -1.976429
     83          6           0        6.860202   -1.250478   -1.194464
     84          6           0        5.210688    2.319980    2.427632
     85          1           0        3.143999    1.887912    2.007029
     86          6           0        6.882242    1.100763    1.184571
     87          6           0        6.507820   -2.187364   -2.147060
     88          1           0        4.912793   -3.189591   -3.176721
     89          1           0        7.902072   -1.032598   -0.985272
     90          6           0        6.547288    2.041964    2.139326
     91          1           0        4.970986    3.057564    3.184837
     92          1           0        7.920174    0.875350    0.964103
     93          1           0        7.278896   -2.718579   -2.692663
     94          1           0        7.328219    2.568679    2.675152
 ---------------------------------------------------------------------
 Rotational constants (GHZ):      0.0582402      0.0444792      0.0328095
 Leave Link  202 at Tue Jun 28 18:25:22 2022, MaxMem=  5242880000 cpu:         0.2
 (Enter /opt/nce/packages/global/g09/l301.exe)
 Standard basis: def2TZVP (5D, 7F)
 Ernie: Thresh=  0.10000D-02 Tol=  0.10000D-05 Strict=F.
 There are  2424 symmetry adapted cartesian basis functions of A   symmetry.
 There are  2114 symmetry adapted basis functions of A   symmetry.
  2114 basis functions,  3418 primitive gaussians,  2424 cartesian basis functions
   205 alpha electrons      205 beta electrons
       nuclear repulsion energy      8874.2717572782 Hartrees.
 IExCor= 4235 DFT=T Ex+Corr=M06 ExCW=0 ScaHFX=  0.270000
 ScaDFX=  1.000000  1.000000  1.000000  1.000000 ScalE2=  1.000000  1.000000
 IRadAn=      5 IRanWt=     -1 IRanGd=            0 ICorTp=0 IEmpDi=  4
 NAtoms=   94 NActive=   94 NUniq=   94 SFac= 1.00D+00 NAtFMM=   60 NAOKFM=T Big=T
 Integral buffers will be    131072 words long.
 Regular integral format.
 Two-electron integral symmetry is turned on.
 ------------------------------------------------------------------------------
 Polarizable Continuum Model (PCM)
 =================================
 Model                : PCM (using non-symmetric T matrix).
 Atomic radii         : SMD-Coulomb.
 Polarization charges : Total charges.
 Charge compensation  : None.
 Solution method      : On-the-fly selection.
 Cavity type          : VdW (van der Waals Surface) (Alpha=1.000).
 Cavity algorithm     : GePol (No added spheres)
                        Default sphere list used, NSphG=   94.
                        Lebedev-Laikov grids with approx.  5.0 points / Ang**2.
                        Smoothing algorithm: York/Karplus (Gamma=1.0000).
                        Polarization charges: spherical gaussians, with
                                              point-specific exponents (IZeta= 3).
                        Self-potential: point-specific (ISelfS= 7).
                        Self-field    : sphere-specific E.n sum rule (ISelfD= 2).
 Solvent              : Acetonitrile, Eps=  35.688000 Eps(inf)=   1.806874
 ------------------------------------------------------------------------------
 GePol: Number of generator spheres                  =      94
 GePol: Total number of spheres                      =      94
 GePol: Number of exposed spheres                    =      94 (100.00%)
 GePol: Number of points                             =    7042
 GePol: Average weight of points                     =       0.11
 GePol: Minimum weight of points                     =   0.17D-11
 GePol: Maximum weight of points                     =    0.17992
 GePol: Number of points with low weight             =     441
 GePol: Fraction of low-weight points (<1% of avg)   =       6.26%
 GePol: Cavity surface area                          =    742.380 Ang**2
 GePol: Cavity volume                                =    778.026 Ang**3
 ------------------------------------------------------------------------------
 Atomic radii for non-electrostatic terms: SMD-CDS.
 ------------------------------------------------------------------------------
 PCM non-electrostatic energy =        -0.0158436847 Hartrees.
 Nuclear repulsion after PCM non-electrostatic terms =     8874.2559135935 Hartrees.
 Leave Link  301 at Tue Jun 28 18:25:22 2022, MaxMem=  5242880000 cpu:         2.3
 (Enter /opt/nce/packages/global/g09/l302.exe)
 NPDir=0 NMtPBC=     1 NCelOv=     1 NCel=       1 NClECP=     1 NCelD=      1
         NCelK=      1 NCelE2=     1 NClLst=     1 CellRange=     0.0.
 One-electron integrals computed using PRISM.
   1 Symmetry operations used in ECPInt.
 ECPInt:  NShTT=  328455 NPrTT= 1027488 LenC2=  243146 LenP2D=  488585.
 LDataN:  DoStor=T MaxTD1= 6 Len=  172
 NBasis=  2114 RedAO= T EigKep=  2.48D-06  NBF=  2114
 NBsUse=  2113 1.00D-06 EigRej=  6.39D-07 NBFU=  2113
 Precomputing XC quadrature grid using
 IXCGrd= 4 IRadAn=           5 IRanWt=          -1 IRanGd=           0 AccXCQ= 0.00D+00.
 Generated NRdTot=       0 NPtTot=           0 NUsed=           0 NTot=          32
 NSgBfM=  2260  2260  2261  2266  2272 MxSgAt=    94 MxSgA2=    94.
 Leave Link  302 at Tue Jun 28 18:25:35 2022, MaxMem=  5242880000 cpu:       150.5
 (Enter /opt/nce/packages/global/g09/l308.exe)
 Leave Link  308 at Tue Jun 28 18:25:37 2022, MaxMem=  5242880000 cpu:        19.2
 (Enter /opt/nce/packages/global/g09/l303.exe)
 DipDrv:  MaxL=1.
 Leave Link  303 at Tue Jun 28 18:25:38 2022, MaxMem=  5242880000 cpu:        10.2
 (Enter /opt/nce/packages/global/g09/l401.exe)
 ExpMin= 9.52D-02 ExpMax= 1.97D+04 ExpMxC= 6.73D+02 IAcc=3 IRadAn=         5 AccDes= 0.00D+00
 Harris functional with IExCor= 1009 and IRadAn=       5 diagonalized for initial guess.
 HarFok:  IExCor= 1009 AccDes= 0.00D+00 IRadAn=         5 IDoV= 1 UseB2=F ITyADJ=14
 ICtDFT=  3500011 ScaDFX=  1.000000  1.000000  1.000000  1.000000
 FoFCou: FMM=F IPFlag=           0 FMFlag=      100000 FMFlg1=        2001
         NFxFlg=           0 DoJE=T BraDBF=F KetDBF=T FulRan=T
         wScrn=  0.000000 ICntrl=     500 IOpCl=  0 I1Cent=   200000004 NGrid=           0
         NMat0=    1 NMatS0=      1 NMatT0=    0 NMatD0=    1 NMtDS0=    0 NMtDT0=    0
 Petite list used in FoFCou.
 Harris En= -2480.48833542733    
 JPrj=0 DoOrth=F DoCkMO=F.
 Leave Link  401 at Tue Jun 28 18:26:17 2022, MaxMem=  5242880000 cpu:       467.9
 (Enter /opt/nce/packages/global/g09/l502.exe)
 Closed shell SCF:
 Using DIIS extrapolation, IDIIS=  1040.
 Integral symmetry usage will be decided dynamically.
 IVT=    17692622 IEndB=    17692622 NGot=  5242880000 MDV=  5231082219
 LenX=  5231082219 LenY=  5225204019
 Requested convergence on RMS density matrix=1.00D-08 within 128 cycles.
 Requested convergence on MAX density matrix=1.00D-06.
 Requested convergence on             energy=1.00D-06.
 No special actions if energy rises.
 Fock matrices will be formed incrementally for  20 cycles.

 Cycle   1  Pass 1  IDiag  1:
 FoFJK:  IHMeth= 1 ICntrl=       0 DoSepK=F KAlg= 0 I1Cent=   0 FoldK=F
 IRaf= 670000000 NMat=   1 IRICut=       1 DoRegI=T DoRafI=F ISym2E= 0.
 FoFCou: FMM=T IPFlag=           0 FMFlag=      100000 FMFlg1=        2001
         NFxFlg=           0 DoJE=F BraDBF=F KetDBF=F FulRan=T
         wScrn=  0.000000 ICntrl=       0 IOpCl=  0 I1Cent=           0 NGrid=           0
         NMat0=    1 NMatS0=      1 NMatT0=    0 NMatD0=    1 NMtDS0=    0 NMtDT0=    0
 Symmetry not used in FoFCou.
 FMM levels:  10  Number of levels for PrismC:   9
 Inv3:  Mode=1 IEnd=   148769292.
 Iteration    1 A*A^-1 deviation from unit magnitude is 1.04D-14 for   7039.
 Iteration    1 A*A^-1 deviation from orthogonality  is 3.73D-15 for   2454    987.
 Iteration    1 A^-1*A deviation from unit magnitude is 1.04D-14 for   7039.
 Iteration    1 A^-1*A deviation from orthogonality  is 1.93D-10 for   6142   3397.
 Iteration    2 A*A^-1 deviation from unit magnitude is 2.66D-15 for   2536.
 Iteration    2 A*A^-1 deviation from orthogonality  is 4.00D-15 for   5081    635.
 Iteration    2 A^-1*A deviation from unit magnitude is 9.99D-16 for    408.
 Iteration    2 A^-1*A deviation from orthogonality  is 3.96D-16 for   4843   2694.
 E= -2479.72458945678    
 DIIS: error= 1.56D-02 at cycle   1 NSaved=   1.
 NSaved= 1 IEnMin= 1 EnMin= -2479.72458945678     IErMin= 1 ErrMin= 1.56D-02
 ErrMax= 1.56D-02  0.00D+00 EMaxC= 1.00D-01 BMatC= 1.12D+00 BMatP= 1.12D+00
 IDIUse=3 WtCom= 8.44D-01 WtEn= 1.56D-01
 Coeff-Com:  0.100D+01
 Coeff-En:   0.100D+01
 Coeff:      0.100D+01
 Gap=     0.270 Goal=   None    Shift=    0.000
 GapD=    0.270 DampG=1.000 DampE=0.500 DampFc=0.5000 IDamp=-1.
 Damping current iteration by 5.00D-01
 RMSDP=3.74D-03 MaxDP=7.03D-01              OVMax= 2.85D-01

 Cycle   2  Pass 1  IDiag  1:
 RMSU=  1.84D-03    CP:  1.08D+00
 E= -2480.17153713580     Delta-E=       -0.446947679024 Rises=F Damp=T
 DIIS: error= 4.71D-03 at cycle   2 NSaved=   2.
 NSaved= 2 IEnMin= 2 EnMin= -2480.17153713580     IErMin= 2 ErrMin= 4.71D-03
 ErrMax= 4.71D-03  0.00D+00 EMaxC= 1.00D-01 BMatC= 1.28D-01 BMatP= 1.12D+00
 IDIUse=3 WtCom= 9.53D-01 WtEn= 4.71D-02
 Coeff-Com:  0.109D+00 0.891D+00
 Coeff-En:   0.189D+00 0.811D+00
 Coeff:      0.113D+00 0.887D+00
 Gap=     0.162 Goal=   None    Shift=    0.000
 RMSDP=1.46D-03 MaxDP=1.71D-01 DE=-4.47D-01 OVMax= 2.43D-01

 Cycle   3  Pass 1  IDiag  1:
 RMSU=  1.44D-03    CP:  1.05D+00  9.25D-01
 E= -2480.73161064583     Delta-E=       -0.560073510027 Rises=F Damp=F
 DIIS: error= 8.56D-03 at cycle   3 NSaved=   3.
 NSaved= 3 IEnMin= 3 EnMin= -2480.73161064583     IErMin= 2 ErrMin= 4.71D-03
 ErrMax= 8.56D-03  0.00D+00 EMaxC= 1.00D-01 BMatC= 1.43D-01 BMatP= 1.28D-01
 IDIUse=3 WtCom= 9.75D-02 WtEn= 9.02D-01
 Coeff-Com: -0.190D-01 0.521D+00 0.498D+00
 Coeff-En:   0.000D+00 0.000D+00 0.100D+01
 Coeff:     -0.185D-02 0.509D-01 0.951D+00
 Gap=     0.145 Goal=   None    Shift=    0.000
 RMSDP=9.19D-04 MaxDP=1.03D-01 DE=-5.60D-01 OVMax= 2.21D-01

 Cycle   4  Pass 1  IDiag  1:
 RMSU=  8.44D-04    CP:  1.07D+00  1.02D+00  7.83D-01
 E= -2480.38636255981     Delta-E=        0.345248086018 Rises=F Damp=F
 DIIS: error= 1.51D-02 at cycle   4 NSaved=   4.
 NSaved= 4 IEnMin= 3 EnMin= -2480.73161064583     IErMin= 2 ErrMin= 4.71D-03
 ErrMax= 1.51D-02  0.00D+00 EMaxC= 1.00D-01 BMatC= 5.07D-01 BMatP= 1.28D-01
 IDIUse=2 WtCom= 0.00D+00 WtEn= 1.00D+00
 Coeff-En:   0.000D+00 0.000D+00 0.727D+00 0.273D+00
 Coeff:      0.000D+00 0.000D+00 0.727D+00 0.273D+00
 Gap=     0.136 Goal=   None    Shift=    0.000
 RMSDP=4.91D-04 MaxDP=8.17D-02 DE= 3.45D-01 OVMax= 9.54D-02

 Cycle   5  Pass 1  IDiag  1:
 RMSU=  1.50D-04    CP:  1.05D+00  9.13D-01  9.24D-01  5.61D-01
 E= -2480.84780370294     Delta-E=       -0.461441143130 Rises=F Damp=F
 DIIS: error= 2.71D-03 at cycle   5 NSaved=   5.
 NSaved= 5 IEnMin= 5 EnMin= -2480.84780370294     IErMin= 5 ErrMin= 2.71D-03
 ErrMax= 2.71D-03  0.00D+00 EMaxC= 1.00D-01 BMatC= 2.40D-02 BMatP= 1.28D-01
 IDIUse=3 WtCom= 9.73D-01 WtEn= 2.71D-02
 Coeff-Com:  0.821D-02-0.882D-02 0.323D+00 0.420D-01 0.635D+00
 Coeff-En:   0.000D+00 0.000D+00 0.180D+00 0.000D+00 0.820D+00
 Coeff:      0.799D-02-0.858D-02 0.319D+00 0.408D-01 0.640D+00
 Gap=     0.136 Goal=   None    Shift=    0.000
 RMSDP=1.40D-04 MaxDP=1.46D-02 DE=-4.61D-01 OVMax= 2.98D-02

 Cycle   6  Pass 1  IDiag  1:
 RMSU=  4.90D-05    CP:  1.05D+00  9.15D-01  9.61D-01  4.19D-01  9.19D-01
 E= -2480.87114758432     Delta-E=       -0.023343881378 Rises=F Damp=F
 DIIS: error= 5.07D-04 at cycle   6 NSaved=   6.
 NSaved= 6 IEnMin= 6 EnMin= -2480.87114758432     IErMin= 6 ErrMin= 5.07D-04
 ErrMax= 5.07D-04  0.00D+00 EMaxC= 1.00D-01 BMatC= 5.08D-04 BMatP= 2.40D-02
 IDIUse=3 WtCom= 9.95D-01 WtEn= 5.07D-03
 Coeff-Com:  0.401D-03-0.446D-02 0.106D+00-0.238D-01 0.387D+00 0.534D+00
 Coeff-En:   0.000D+00 0.000D+00 0.000D+00 0.000D+00 0.000D+00 0.100D+01
 Coeff:      0.399D-03-0.444D-02 0.106D+00-0.237D-01 0.385D+00 0.537D+00
 Gap=     0.137 Goal=   None    Shift=    0.000
 RMSDP=2.83D-05 MaxDP=6.73D-03 DE=-2.33D-02 OVMax= 4.01D-03

 Cycle   7  Pass 1  IDiag  1:
 RMSU=  2.26D-05    CP:  1.05D+00  9.18D-01  9.68D-01  4.28D-01  9.63D-01
                    CP:  9.04D-01
 E= -2480.87157168057     Delta-E=       -0.000424096253 Rises=F Damp=F
 DIIS: error= 1.27D-04 at cycle   7 NSaved=   7.
 NSaved= 7 IEnMin= 7 EnMin= -2480.87157168057     IErMin= 7 ErrMin= 1.27D-04
 ErrMax= 1.27D-04  0.00D+00 EMaxC= 1.00D-01 BMatC= 4.36D-05 BMatP= 5.08D-04
 IDIUse=3 WtCom= 9.99D-01 WtEn= 1.27D-03
 Coeff-Com: -0.373D-03-0.960D-03 0.276D-01-0.165D-01 0.147D+00 0.297D+00
 Coeff-Com:  0.546D+00
 Coeff-En:   0.000D+00 0.000D+00 0.000D+00 0.000D+00 0.000D+00 0.254D-01
 Coeff-En:   0.975D+00
 Coeff:     -0.373D-03-0.959D-03 0.276D-01-0.165D-01 0.147D+00 0.297D+00
 Coeff:      0.547D+00
 Gap=     0.137 Goal=   None    Shift=    0.000
 RMSDP=9.81D-06 MaxDP=1.93D-03 DE=-4.24D-04 OVMax= 1.55D-03

 Cycle   8  Pass 1  IDiag  1:
 RMSU=  7.29D-06    CP:  1.05D+00  9.19D-01  9.70D-01  4.32D-01  9.79D-01
                    CP:  9.87D-01  8.88D-01
 E= -2480.87160976779     Delta-E=       -0.000038087222 Rises=F Damp=F
 DIIS: error= 3.96D-05 at cycle   8 NSaved=   8.
 NSaved= 8 IEnMin= 8 EnMin= -2480.87160976779     IErMin= 8 ErrMin= 3.96D-05
 ErrMax= 3.96D-05  0.00D+00 EMaxC= 1.00D-01 BMatC= 6.70D-06 BMatP= 4.36D-05
 IDIUse=1 WtCom= 1.00D+00 WtEn= 0.00D+00
 Coeff-Com: -0.137D-03-0.130D-03-0.972D-03-0.542D-02 0.206D-01 0.858D-01
 Coeff-Com:  0.319D+00 0.581D+00
 Coeff:     -0.137D-03-0.130D-03-0.972D-03-0.542D-02 0.206D-01 0.858D-01
 Coeff:      0.319D+00 0.581D+00
 Gap=     0.137 Goal=   None    Shift=    0.000
 RMSDP=4.38D-06 MaxDP=1.17D-03 DE=-3.81D-05 OVMax= 6.42D-04

 Cycle   9  Pass 1  IDiag  1:
 RMSU=  2.76D-06    CP:  1.05D+00  9.19D-01  9.70D-01  4.34D-01  9.91D-01
                    CP:  1.01D+00  9.65D-01  9.91D-01
 E= -2480.87161554752     Delta-E=       -0.000005779730 Rises=F Damp=F
 DIIS: error= 1.45D-05 at cycle   9 NSaved=   9.
 NSaved= 9 IEnMin= 9 EnMin= -2480.87161554752     IErMin= 9 ErrMin= 1.45D-05
 ErrMax= 1.45D-05  0.00D+00 EMaxC= 1.00D-01 BMatC= 8.62D-07 BMatP= 6.70D-06
 IDIUse=1 WtCom= 1.00D+00 WtEn= 0.00D+00
 Coeff-Com:  0.472D-04-0.139D-03-0.415D-02-0.697D-03-0.861D-02 0.976D-02
 Coeff-Com:  0.110D+00 0.324D+00 0.570D+00
 Coeff:      0.472D-04-0.139D-03-0.415D-02-0.697D-03-0.861D-02 0.976D-02
 Coeff:      0.110D+00 0.324D+00 0.570D+00
 Gap=     0.137 Goal=   None    Shift=    0.000
 RMSDP=1.73D-06 MaxDP=4.77D-04 DE=-5.78D-06 OVMax= 2.05D-04

 Cycle  10  Pass 1  IDiag  1:
 RMSU=  1.01D-06    CP:  1.05D+00  9.19D-01  9.71D-01  4.34D-01  9.94D-01
                    CP:  1.03D+00  9.84D-01  1.05D+00  9.45D-01
 E= -2480.87161639519     Delta-E=       -0.000000847671 Rises=F Damp=F
 DIIS: error= 4.94D-06 at cycle  10 NSaved=  10.
 NSaved=10 IEnMin=10 EnMin= -2480.87161639519     IErMin=10 ErrMin= 4.94D-06
 ErrMax= 4.94D-06  0.00D+00 EMaxC= 1.00D-01 BMatC= 7.19D-08 BMatP= 8.62D-07
 IDIUse=1 WtCom= 1.00D+00 WtEn= 0.00D+00
 Coeff-Com:  0.744D-04-0.173D-03-0.160D-02 0.516D-03-0.650D-02-0.634D-02
 Coeff-Com:  0.458D-02 0.596D-01 0.253D+00 0.697D+00
 Coeff:      0.744D-04-0.173D-03-0.160D-02 0.516D-03-0.650D-02-0.634D-02
 Coeff:      0.458D-02 0.596D-01 0.253D+00 0.697D+00
 Gap=     0.137 Goal=   None    Shift=    0.000
 RMSDP=7.76D-07 MaxDP=2.42D-04 DE=-8.48D-07 OVMax= 6.19D-05

 Cycle  11  Pass 1  IDiag  1:
 RMSU=  3.64D-07    CP:  1.05D+00  9.19D-01  9.71D-01  4.35D-01  9.95D-01
                    CP:  1.04D+00  9.90D-01  1.08D+00  1.04D+00  1.14D+00
 E= -2480.87161646007     Delta-E=       -0.000000064876 Rises=F Damp=F
 DIIS: error= 1.69D-06 at cycle  11 NSaved=  11.
 NSaved=11 IEnMin=11 EnMin= -2480.87161646007     IErMin=11 ErrMin= 1.69D-06
 ErrMax= 1.69D-06  0.00D+00 EMaxC= 1.00D-01 BMatC= 1.09D-08 BMatP= 7.19D-08
 IDIUse=1 WtCom= 1.00D+00 WtEn= 0.00D+00
 Coeff-Com:  0.327D-04-0.611D-04-0.349D-03 0.338D-03-0.226D-02-0.417D-02
 Coeff-Com: -0.110D-01-0.771D-02 0.553D-01 0.334D+00 0.636D+00
 Coeff:      0.327D-04-0.611D-04-0.349D-03 0.338D-03-0.226D-02-0.417D-02
 Coeff:     -0.110D-01-0.771D-02 0.553D-01 0.334D+00 0.636D+00
 Gap=     0.137 Goal=   None    Shift=    0.000
 RMSDP=3.11D-07 MaxDP=1.02D-04 DE=-6.49D-08 OVMax= 3.07D-05

 Cycle  12  Pass 1  IDiag  1:
 RMSU=  1.30D-07    CP:  1.05D+00  9.19D-01  9.71D-01  4.35D-01  9.96D-01
                    CP:  1.04D+00  9.94D-01  1.09D+00  1.07D+00  1.21D+00
                    CP:  9.97D-01
 E= -2480.87161647053     Delta-E=       -0.000000010457 Rises=F Damp=F
 DIIS: error= 7.37D-07 at cycle  12 NSaved=  12.
 NSaved=12 IEnMin=12 EnMin= -2480.87161647053     IErMin=12 ErrMin= 7.37D-07
 ErrMax= 7.37D-07  0.00D+00 EMaxC= 1.00D-01 BMatC= 1.58D-09 BMatP= 1.09D-08
 IDIUse=1 WtCom= 1.00D+00 WtEn= 0.00D+00
 Coeff-Com:  0.547D-05-0.139D-05 0.384D-04 0.899D-04-0.203D-03-0.118D-02
 Coeff-Com: -0.612D-02-0.109D-01-0.770D-02 0.626D-01 0.318D+00 0.646D+00
 Coeff:      0.547D-05-0.139D-05 0.384D-04 0.899D-04-0.203D-03-0.118D-02
 Coeff:     -0.612D-02-0.109D-01-0.770D-02 0.626D-01 0.318D+00 0.646D+00
 Gap=     0.137 Goal=   None    Shift=    0.000
 RMSDP=1.10D-07 MaxDP=3.84D-05 DE=-1.05D-08 OVMax= 8.16D-06

 Cycle  13  Pass 1  IDiag  1:
 RMSU=  5.21D-08    CP:  1.05D+00  9.19D-01  9.71D-01  4.35D-01  9.96D-01
                    CP:  1.04D+00  9.95D-01  1.09D+00  1.08D+00  1.23D+00
                    CP:  1.04D+00  1.14D+00
 E= -2480.87161647198     Delta-E=       -0.000000001457 Rises=F Damp=F
 DIIS: error= 1.70D-07 at cycle  13 NSaved=  13.
 NSaved=13 IEnMin=13 EnMin= -2480.87161647198     IErMin=13 ErrMin= 1.70D-07
 ErrMax= 1.70D-07  0.00D+00 EMaxC= 1.00D-01 BMatC= 1.86D-10 BMatP= 1.58D-09
 IDIUse=1 WtCom= 1.00D+00 WtEn= 0.00D+00
 Coeff-Com: -0.125D-05 0.644D-05 0.467D-04 0.648D-05 0.129D-03-0.185D-03
 Coeff-Com: -0.187D-02-0.419D-02-0.971D-02-0.496D-02 0.969D-01 0.323D+00
 Coeff-Com:  0.601D+00
 Coeff:     -0.125D-05 0.644D-05 0.467D-04 0.648D-05 0.129D-03-0.185D-03
 Coeff:     -0.187D-02-0.419D-02-0.971D-02-0.496D-02 0.969D-01 0.323D+00
 Coeff:      0.601D+00
 Gap=     0.137 Goal=   None    Shift=    0.000
 RMSDP=3.95D-08 MaxDP=1.10D-05 DE=-1.46D-09 OVMax= 2.63D-06

 Cycle  14  Pass 1  IDiag  1:
 RMSU=  2.55D-08    CP:  1.05D+00  9.19D-01  9.71D-01  4.35D-01  9.96D-01
                    CP:  1.04D+00  9.96D-01  1.09D+00  1.09D+00  1.24D+00
                    CP:  1.06D+00  1.24D+00  1.10D+00
 E= -2480.87161647213     Delta-E=       -0.000000000144 Rises=F Damp=F
 DIIS: error= 9.77D-08 at cycle  14 NSaved=  14.
 NSaved=14 IEnMin=14 EnMin= -2480.87161647213     IErMin=14 ErrMin= 9.77D-08
 ErrMax= 9.77D-08  0.00D+00 EMaxC= 1.00D-01 BMatC= 3.69D-11 BMatP= 1.86D-10
 IDIUse=1 WtCom= 1.00D+00 WtEn= 0.00D+00
 Coeff-Com: -0.163D-05 0.447D-05 0.214D-04-0.959D-05 0.103D-03 0.459D-04
 Coeff-Com: -0.191D-03-0.657D-03-0.427D-02-0.115D-01 0.122D-01 0.905D-01
 Coeff-Com:  0.341D+00 0.573D+00
 Coeff:     -0.163D-05 0.447D-05 0.214D-04-0.959D-05 0.103D-03 0.459D-04
 Coeff:     -0.191D-03-0.657D-03-0.427D-02-0.115D-01 0.122D-01 0.905D-01
 Coeff:      0.341D+00 0.573D+00
 Gap=     0.137 Goal=   None    Shift=    0.000
 RMSDP=3.06D-08 MaxDP=3.28D-06 DE=-1.44D-10 OVMax= 1.20D-06

 Cycle  15  Pass 1  IDiag  1:
 RMSU=  2.18D-08    CP:  1.05D+00  9.19D-01  9.71D-01  4.35D-01  9.96D-01
                    CP:  1.04D+00  9.96D-01  1.09D+00  1.09D+00  1.24D+00
                    CP:  1.07D+00  1.29D+00  1.28D+00  1.64D+00
 E= -2480.87161647207     Delta-E=        0.000000000058 Rises=F Damp=F
 DIIS: error= 5.55D-08 at cycle  15 NSaved=  15.
 NSaved=15 IEnMin=14 EnMin= -2480.87161647213     IErMin=15 ErrMin= 5.55D-08
 ErrMax= 5.55D-08  0.00D+00 EMaxC= 1.00D-01 BMatC= 6.62D-12 BMatP= 3.69D-11
 IDIUse=1 WtCom= 1.00D+00 WtEn= 0.00D+00
 Coeff-Com: -0.723D-06 0.171D-05 0.562D-05-0.605D-05 0.375D-04 0.435D-04
 Coeff-Com:  0.169D-03 0.331D-03-0.721D-03-0.511D-02-0.785D-02-0.427D-02
 Coeff-Com:  0.844D-01 0.325D+00 0.608D+00
 Coeff:     -0.723D-06 0.171D-05 0.562D-05-0.605D-05 0.375D-04 0.435D-04
 Coeff:      0.169D-03 0.331D-03-0.721D-03-0.511D-02-0.785D-02-0.427D-02
 Coeff:      0.844D-01 0.325D+00 0.608D+00
 Gap=     0.137 Goal=   None    Shift=    0.000
 RMSDP=4.42D-08 MaxDP=4.54D-06 DE= 5.82D-11 OVMax= 5.70D-07

 Cycle  16  Pass 1  IDiag  1:
 RMSU=  1.94D-08    CP:  1.05D+00  9.19D-01  9.71D-01  4.35D-01  9.96D-01
                    CP:  1.04D+00  9.96D-01  1.09D+00  1.09D+00  1.24D+00
                    CP:  1.07D+00  1.32D+00  1.45D+00  2.63D+00  2.32D+00
 E= -2480.87161647256     Delta-E=       -0.000000000489 Rises=F Damp=F
 DIIS: error= 3.66D-08 at cycle  16 NSaved=  16.
 NSaved=16 IEnMin=16 EnMin= -2480.87161647256     IErMin=16 ErrMin= 3.66D-08
 ErrMax= 3.66D-08  0.00D+00 EMaxC= 1.00D-01 BMatC= 2.89D-12 BMatP= 6.62D-12
 IDIUse=1 WtCom= 1.00D+00 WtEn= 0.00D+00
 Coeff-Com: -0.297D-06 0.600D-06 0.102D-05-0.282D-05 0.114D-04 0.203D-04
 Coeff-Com:  0.136D-03 0.318D-03 0.802D-04-0.191D-02-0.722D-02-0.173D-01
 Coeff-Com:  0.746D-02 0.148D+00 0.439D+00 0.431D+00
 Coeff:     -0.297D-06 0.600D-06 0.102D-05-0.282D-05 0.114D-04 0.203D-04
 Coeff:      0.136D-03 0.318D-03 0.802D-04-0.191D-02-0.722D-02-0.173D-01
 Coeff:      0.746D-02 0.148D+00 0.439D+00 0.431D+00
 Gap=     0.137 Goal=   None    Shift=    0.000
 RMSDP=5.29D-08 MaxDP=5.51D-06 DE=-4.89D-10 OVMax= 1.97D-07

 Cycle  17  Pass 1  IDiag  1:
 RMSU=  2.87D-08    CP:  1.05D+00  9.19D-01  9.71D-01  4.35D-01  9.96D-01
                    CP:  1.04D+00  9.96D-01  1.09D+00  1.09D+00  1.24D+00
                    CP:  1.07D+00  1.35D+00  1.61D+00  3.00D+00  3.00D+00
                    CP:  2.36D+00
 E= -2480.87161647267     Delta-E=       -0.000000000111 Rises=F Damp=F
 DIIS: error= 4.33D-08 at cycle  17 NSaved=  17.
 NSaved=17 IEnMin=17 EnMin= -2480.87161647267     IErMin=16 ErrMin= 3.66D-08
 ErrMax= 4.33D-08  0.00D+00 EMaxC= 1.00D-01 BMatC= 1.80D-12 BMatP= 2.89D-12
 IDIUse=1 WtCom= 1.00D+00 WtEn= 0.00D+00
 Coeff-Com: -0.323D-06 0.647D-06 0.869D-06-0.318D-05 0.118D-04 0.233D-04
 Coeff-Com:  0.165D-03 0.389D-03 0.174D-03-0.207D-02-0.880D-02-0.220D-01
 Coeff-Com:  0.335D-02 0.166D+00 0.524D+00 0.579D+00-0.241D+00
 Coeff:     -0.323D-06 0.647D-06 0.869D-06-0.318D-05 0.118D-04 0.233D-04
 Coeff:      0.165D-03 0.389D-03 0.174D-03-0.207D-02-0.880D-02-0.220D-01
 Coeff:      0.335D-02 0.166D+00 0.524D+00 0.579D+00-0.241D+00
 Gap=     0.137 Goal=   None    Shift=    0.000
 RMSDP=2.79D-08 MaxDP=3.09D-06 DE=-1.11D-10 OVMax= 3.02D-08

 Cycle  18  Pass 1  IDiag  1:
 RMSU=  7.54D-09    CP:  1.05D+00  9.19D-01  9.71D-01  4.35D-01  9.96D-01
                    CP:  1.04D+00  9.96D-01  1.09D+00  1.09D+00  1.24D+00
                    CP:  1.07D+00  1.34D+00  1.53D+00  3.00D+00  3.00D+00
                    CP:  1.64D+00  2.19D-01
 E= -2480.87161647255     Delta-E=        0.000000000124 Rises=F Damp=F
 DIIS: error= 4.70D-08 at cycle  18 NSaved=  18.
 NSaved=18 IEnMin=17 EnMin= -2480.87161647267     IErMin=16 ErrMin= 3.66D-08
 ErrMax= 4.70D-08  0.00D+00 EMaxC= 1.00D-01 BMatC= 1.72D-12 BMatP= 1.80D-12
 IDIUse=1 WtCom= 1.00D+00 WtEn= 0.00D+00
 Coeff-Com: -0.309D-06 0.607D-06 0.729D-06-0.306D-05 0.109D-04 0.222D-04
 Coeff-Com:  0.162D-03 0.382D-03 0.188D-03-0.196D-02-0.867D-02-0.221D-01
 Coeff-Com:  0.125D-02 0.160D+00 0.512D+00 0.588D+00-0.524D+00 0.295D+00
 Coeff:     -0.309D-06 0.607D-06 0.729D-06-0.306D-05 0.109D-04 0.222D-04
 Coeff:      0.162D-03 0.382D-03 0.188D-03-0.196D-02-0.867D-02-0.221D-01
 Coeff:      0.125D-02 0.160D+00 0.512D+00 0.588D+00-0.524D+00 0.295D+00
 Gap=     0.137 Goal=   None    Shift=    0.000
 RMSDP=1.08D-08 MaxDP=8.36D-07 DE= 1.24D-10 OVMax= 1.26D-08

 Cycle  19  Pass 1  IDiag  1:
 RMSU=  6.92D-09    CP:  1.05D+00  9.19D-01  9.71D-01  4.35D-01  9.96D-01
                    CP:  1.04D+00  9.96D-01  1.09D+00  1.09D+00  1.25D+00
                    CP:  1.07D+00  1.34D+00  1.50D+00  3.00D+00  3.00D+00
                    CP:  1.51D+00  8.55D-02  1.88D+00
 E= -2480.87161647240     Delta-E=        0.000000000146 Rises=F Damp=F
 DIIS: error= 4.93D-08 at cycle  19 NSaved=  19.
 NSaved=19 IEnMin=17 EnMin= -2480.87161647267     IErMin=16 ErrMin= 3.66D-08
 ErrMax= 4.93D-08  0.00D+00 EMaxC= 1.00D-01 BMatC= 1.74D-12 BMatP= 1.72D-12
 IDIUse=1 WtCom= 1.00D+00 WtEn= 0.00D+00
 Coeff-Com: -0.309D-06 0.606D-06 0.722D-06-0.305D-05 0.109D-04 0.222D-04
 Coeff-Com:  0.162D-03 0.383D-03 0.189D-03-0.196D-02-0.868D-02-0.221D-01
 Coeff-Com:  0.113D-02 0.160D+00 0.513D+00 0.590D+00-0.536D+00 0.325D+00
 Coeff-Com: -0.211D-01
 Coeff:     -0.309D-06 0.606D-06 0.722D-06-0.305D-05 0.109D-04 0.222D-04
 Coeff:      0.162D-03 0.383D-03 0.189D-03-0.196D-02-0.868D-02-0.221D-01
 Coeff:      0.113D-02 0.160D+00 0.513D+00 0.590D+00-0.536D+00 0.325D+00
 Coeff:     -0.211D-01
 Gap=     0.137 Goal=   None    Shift=    0.000
 RMSDP=7.34D-10 MaxDP=7.56D-08 DE= 1.46D-10 OVMax= 6.44D-10

 Error on total polarization charges =  0.08358
 SCF Done:  E(RM06) =  -2480.87161647     A.U. after   19 cycles
            NFock= 19  Conv=0.73D-09     -V/T= 2.0048
 KE= 2.469058485134D+03 PE=-2.350783642679D+04 EE= 9.683650411589D+03
 SMD-CDS (non-electrostatic) energy       (kcal/mol) =      -9.94
 (included in total energy above)
 Leave Link  502 at Tue Jun 28 22:15:06 2022, MaxMem=  5242880000 cpu:    164490.0
 (Enter /opt/nce/packages/global/g09/l801.exe)
 DoSCS=F DFT=T ScalE2(SS,OS)=  1.000000  1.000000
 ExpMin= 9.52D-02 ExpMax= 1.97D+04 ExpMxC= 6.73D+02 IAcc=3 IRadAn=         5 AccDes= 0.00D+00
 HarFok:  IExCor=  205 AccDes= 0.00D+00 IRadAn=         5 IDoV=-2 UseB2=F ITyADJ=14
 ICtDFT= 12500011 ScaDFX=  1.000000  1.000000  1.000000  1.000000
 Largest valence mixing into a core orbital is  4.99D-05
 Largest core mixing into a valence orbital is  1.69D-05
 Range of M.O.s used for correlation:    63  2113
 NBasis=  2114 NAE=   205 NBE=   205 NFC=    62 NFV=     0
 NROrb=   2051 NOA=   143 NOB=   143 NVA=  1908 NVB=  1908

 **** Warning!!: The largest alpha MO coefficient is  0.53545709D+02

 Leave Link  801 at Tue Jun 28 22:15:06 2022, MaxMem=  5242880000 cpu:         8.8
 (Enter /opt/nce/packages/global/g09/l914.exe)
 RHF ground state
 MDV=  5242880000 DFT=T DoStab=F Mixed=T DoRPA=T DoScal=F NonHer=T
 Would need an additional       7552511400000 words for in-memory AO integral storage.
 NEqPCM:  Using non-equilibrium solvation (IEInf=1, Eps=  35.6880, EpsInf=   1.8069)
 Inv3:  Mode=1 IEnd=   148769292.
 Iteration    1 A*A^-1 deviation from unit magnitude is 1.09D-14 for   7035.
 Iteration    1 A*A^-1 deviation from orthogonality  is 4.44D-15 for   6121    770.
 Iteration    1 A^-1*A deviation from unit magnitude is 1.12D-14 for   7035.
 Iteration    1 A^-1*A deviation from orthogonality  is 4.61D-15 for   6111   6032.
 Making orbital integer symmetry assigments:
 Orbital symmetries:
       Occupied  (A) (A) (A) (A) (A) (A) (A) (A) (A) (A) (A) (A)
                 (A) (A) (A) (A) (A) (A) (A) (A) (A) (A) (A) (A)
                 (A) (A) (A) (A) (A) (A) (A) (A) (A) (A) (A) (A)
                 (A) (A) (A) (A) (A) (A) (A) (A) (A) (A) (A) (A)
                 (A) (A) (A) (A) (A) (A) (A) (A) (A) (A) (A) (A)
                 (A) (A) (A) (A) (A) (A) (A) (A) (A) (A) (A) (A)
                 (A) (A) (A) (A) (A) (A) (A) (A) (A) (A) (A) (A)
                 (A) (A) (A) (A) (A) (A) (A) (A) (A) (A) (A) (A)
                 (A) (A) (A) (A) (A) (A) (A) (A) (A) (A) (A) (A)
                 (A) (A) (A) (A) (A) (A) (A) (A) (A) (A) (A) (A)
                 (A) (A) (A) (A) (A) (A) (A) (A) (A) (A) (A) (A)
                 (A) (A) (A) (A) (A) (A) (A) (A) (A) (A) (A) (A)
                 (A) (A) (A) (A) (A) (A) (A) (A) (A) (A) (A) (A)
                 (A) (A) (A) (A) (A) (A) (A) (A) (A) (A) (A) (A)
                 (A) (A) (A) (A) (A) (A) (A) (A) (A) (A) (A) (A)
                 (A) (A) (A) (A) (A) (A) (A) (A) (A) (A) (A) (A)
                 (A) (A) (A) (A) (A) (A) (A) (A) (A) (A) (A) (A)
                 (A)
       Virtual   (A) (A) (A) (A) (A) (A) (A) (A) (A) (A) (A) (A)
                 (A) (A) (A) (A) (A) (A) (A) (A) (A) (A) (A) (A)
                 (A) (A) (A) (A) (A) (A) (A) (A) (A) (A) (A) (A)
                 (A) (A) (A) (A) (A) (A) (A) (A) (A) (A) (A) (A)
                 (A) (A) (A) (A) (A) (A) (A) (A) (A) (A) (A) (A)
                 (A) (A) (A) (A) (A) (A) (A) (A) (A) (A) (A) (A)
                 (A) (A) (A) (A) (A) (A) (A) (A) (A) (A) (A) (A)
                 (A) (A) (A) (A) (A) (A) (A) (A) (A) (A) (A) (A)
                 (A) (A) (A) (A) (A) (A) (A) (A) (A) (A) (A) (A)
                 (A) (A) (A) (A) (A) (A) (A) (A) (A) (A) (A) (A)
                 (A) (A) (A) (A) (A) (A) (A) (A) (A) (A) (A) (A)
                 (A) (A) (A) (A) (A) (A) (A) (A) (A) (A) (A) (A)
                 (A) (A) (A) (A) (A) (A) (A) (A) (A) (A) (A) (A)
                 (A) (A) (A) (A) (A) (A) (A) (A) (A) (A) (A) (A)
                 (A) (A) (A) (A) (A) (A) (A) (A) (A) (A) (A) (A)
                 (A) (A) (A) (A) (A) (A) (A) (A) (A) (A) (A) (A)
                 (A) (A) (A) (A) (A) (A) (A) (A) (A) (A) (A) (A)
                 (A) (A) (A) (A) (A) (A) (A) (A) (A) (A) (A) (A)
                 (A) (A) (A) (A) (A) (A) (A) (A) (A) (A) (A) (A)
                 (A) (A) (A) (A) (A) (A) (A) (A) (A) (A) (A) (A)
                 (A) (A) (A) (A) (A) (A) (A) (A) (A) (A) (A) (A)
                 (A) (A) (A) (A) (A) (A) (A) (A) (A) (A) (A) (A)
                 (A) (A) (A) (A) (A) (A) (A) (A) (A) (A) (A) (A)
                 (A) (A) (A) (A) (A) (A) (A) (A) (A) (A) (A) (A)
                 (A) (A) (A) (A) (A) (A) (A) (A) (A) (A) (A) (A)
                 (A) (A) (A) (A) (A) (A) (A) (A) (A) (A) (A) (A)
                 (A) (A) (A) (A) (A) (A) (A) (A) (A) (A) (A) (A)
                 (A) (A) (A) (A) (A) (A) (A) (A) (A) (A) (A) (A)
                 (A) (A) (A) (A) (A) (A) (A) (A) (A) (A) (A) (A)
                 (A) (A) (A) (A) (A) (A) (A) (A) (A) (A) (A) (A)
                 (A) (A) (A) (A) (A) (A) (A) (A) (A) (A) (A) (A)
                 (A) (A) (A) (A) (A) (A) (A) (A) (A) (A) (A) (A)
                 (A) (A) (A) (A) (A) (A) (A) (A) (A) (A) (A) (A)
                 (A) (A) (A) (A) (A) (A) (A) (A) (A) (A) (A) (A)
                 (A) (A) (A) (A) (A) (A) (A) (A) (A) (A) (A) (A)
                 (A) (A) (A) (A) (A) (A) (A) (A) (A) (A) (A) (A)
                 (A) (A) (A) (A) (A) (A) (A) (A) (A) (A) (A) (A)
                 (A) (A) (A) (A) (A) (A) (A) (A) (A) (A) (A) (A)
                 (A) (A) (A) (A) (A) (A) (A) (A) (A) (A) (A) (A)
                 (A) (A) (A) (A) (A) (A) (A) (A) (A) (A) (A) (A)
                 (A) (A) (A) (A) (A) (A) (A) (A) (A) (A) (A) (A)
                 (A) (A) (A) (A) (A) (A) (A) (A) (A) (A) (A) (A)
                 (A) (A) (A) (A) (A) (A) (A) (A) (A) (A) (A) (A)
                 (A) (A) (A) (A) (A) (A) (A) (A) (A) (A) (A) (A)
                 (A) (A) (A) (A) (A) (A) (A) (A) (A) (A) (A) (A)
                 (A) (A) (A) (A) (A) (A) (A) (A) (A) (A) (A) (A)
                 (A) (A) (A) (A) (A) (A) (A) (A) (A) (A) (A) (A)
                 (A) (A) (A) (A) (A) (A) (A) (A) (A) (A) (A) (A)
                 (A) (A) (A) (A) (A) (A) (A) (A) (A) (A) (A) (A)
                 (A) (A) (A) (A) (A) (A) (A) (A) (A) (A) (A) (A)
                 (A) (A) (A) (A) (A) (A) (A) (A) (A) (A) (A) (A)
                 (A) (A) (A) (A) (A) (A) (A) (A) (A) (A) (A) (A)
                 (A) (A) (A) (A) (A) (A) (A) (A) (A) (A) (A) (A)
                 (A) (A) (A) (A) (A) (A) (A) (A) (A) (A) (A) (A)
                 (A) (A) (A) (A) (A) (A) (A) (A) (A) (A) (A) (A)
                 (A) (A) (A) (A) (A) (A) (A) (A) (A) (A) (A) (A)
                 (A) (A) (A) (A) (A) (A) (A) (A) (A) (A) (A) (A)
                 (A) (A) (A) (A) (A) (A) (A) (A) (A) (A) (A) (A)
                 (A) (A) (A) (A) (A) (A) (A) (A) (A) (A) (A) (A)
                 (A) (A) (A) (A) (A) (A) (A) (A) (A) (A) (A) (A)
                 (A) (A) (A) (A) (A) (A) (A) (A) (A) (A) (A) (A)
                 (A) (A) (A) (A) (A) (A) (A) (A) (A) (A) (A) (A)
                 (A) (A) (A) (A) (A) (A) (A) (A) (A) (A) (A) (A)
                 (A) (A) (A) (A) (A) (A) (A) (A) (A) (A) (A) (A)
                 (A) (A) (A) (A) (A) (A) (A) (A) (A) (A) (A) (A)
                 (A) (A) (A) (A) (A) (A) (A) (A) (A) (A) (A) (A)
                 (A) (A) (A) (A) (A) (A) (A) (A) (A) (A) (A) (A)
                 (A) (A) (A) (A) (A) (A) (A) (A) (A) (A) (A) (A)
                 (A) (A) (A) (A) (A) (A) (A) (A) (A) (A) (A) (A)
                 (A) (A) (A) (A) (A) (A) (A) (A) (A) (A) (A) (A)
                 (A) (A) (A) (A) (A) (A) (A) (A) (A) (A) (A) (A)
                 (A) (A) (A) (A) (A) (A) (A) (A) (A) (A) (A) (A)
                 (A) (A) (A) (A) (A) (A) (A) (A) (A) (A) (A) (A)
                 (A) (A) (A) (A) (A) (A) (A) (A) (A) (A) (A) (A)
                 (A) (A) (A) (A) (A) (A) (A) (A) (A) (A) (A) (A)
                 (A) (A) (A) (A) (A) (A) (A) (A) (A) (A) (A) (A)
                 (A) (A) (A) (A) (A) (A) (A) (A) (A) (A) (A) (A)
                 (A) (A) (A) (A) (A) (A) (A) (A) (A) (A) (A) (A)
                 (A) (A) (A) (A) (A) (A) (A) (A) (A) (A) (A) (A)
                 (A) (A) (A) (A) (A) (A) (A) (A) (A) (A) (A) (A)
                 (A) (A) (A) (A) (A) (A) (A) (A) (A) (A) (A) (A)
                 (A) (A) (A) (A) (A) (A) (A) (A) (A) (A) (A) (A)
                 (A) (A) (A) (A) (A) (A) (A) (A) (A) (A) (A) (A)
                 (A) (A) (A) (A) (A) (A) (A) (A) (A) (A) (A) (A)
                 (A) (A) (A) (A) (A) (A) (A) (A) (A) (A) (A) (A)
                 (A) (A) (A) (A) (A) (A) (A) (A) (A) (A) (A) (A)
                 (A) (A) (A) (A) (A) (A) (A) (A) (A) (A) (A) (A)
                 (A) (A) (A) (A) (A) (A) (A) (A) (A) (A) (A) (A)
                 (A) (A) (A) (A) (A) (A) (A) (A) (A) (A) (A) (A)
                 (A) (A) (A) (A) (A) (A) (A) (A) (A) (A) (A) (A)
                 (A) (A) (A) (A) (A) (A) (A) (A) (A) (A) (A) (A)
                 (A) (A) (A) (A) (A) (A) (A) (A) (A) (A) (A) (A)
                 (A) (A) (A) (A) (A) (A) (A) (A) (A) (A) (A) (A)
                 (A) (A) (A) (A) (A) (A) (A) (A) (A) (A) (A) (A)
                 (A) (A) (A) (A) (A) (A) (A) (A) (A) (A) (A) (A)
                 (A) (A) (A) (A) (A) (A) (A) (A) (A) (A) (A) (A)
                 (A) (A) (A) (A) (A) (A) (A) (A) (A) (A) (A) (A)
                 (A) (A) (A) (A) (A) (A) (A) (A) (A) (A) (A) (A)
                 (A) (A) (A) (A) (A) (A) (A) (A) (A) (A) (A) (A)
                 (A) (A) (A) (A) (A) (A) (A) (A) (A) (A) (A) (A)
                 (A) (A) (A) (A) (A) (A) (A) (A) (A) (A) (A) (A)
                 (A) (A) (A) (A) (A) (A) (A) (A) (A) (A) (A) (A)
                 (A) (A) (A) (A) (A) (A) (A) (A) (A) (A) (A) (A)
                 (A) (A) (A) (A) (A) (A) (A) (A) (A) (A) (A) (A)
                 (A) (A) (A) (A) (A) (A) (A) (A) (A) (A) (A) (A)
                 (A) (A) (A) (A) (A) (A) (A) (A) (A) (A) (A) (A)
                 (A) (A) (A) (A) (A) (A) (A) (A) (A) (A) (A) (A)
                 (A) (A) (A) (A) (A) (A) (A) (A) (A) (A) (A) (A)
                 (A) (A) (A) (A) (A) (A) (A) (A) (A) (A) (A) (A)
                 (A) (A) (A) (A) (A) (A) (A) (A) (A) (A) (A) (A)
                 (A) (A) (A) (A) (A) (A) (A) (A) (A) (A) (A) (A)
                 (A) (A) (A) (A) (A) (A) (A) (A) (A) (A) (A) (A)
                 (A) (A) (A) (A) (A) (A) (A) (A) (A) (A) (A) (A)
                 (A) (A) (A) (A) (A) (A) (A) (A) (A) (A) (A) (A)
                 (A) (A) (A) (A) (A) (A) (A) (A) (A) (A) (A) (A)
                 (A) (A) (A) (A) (A) (A) (A) (A) (A) (A) (A) (A)
                 (A) (A) (A) (A) (A) (A) (A) (A) (A) (A) (A) (A)
                 (A) (A) (A) (A) (A) (A) (A) (A) (A) (A) (A) (A)
                 (A) (A) (A) (A) (A) (A) (A) (A) (A) (A) (A) (A)
                 (A) (A) (A) (A) (A) (A) (A) (A) (A) (A) (A) (A)
                 (A) (A) (A) (A) (A) (A) (A) (A) (A) (A) (A) (A)
                 (A) (A) (A) (A) (A) (A) (A) (A) (A) (A) (A) (A)
                 (A) (A) (A) (A) (A) (A) (A) (A) (A) (A) (A) (A)
                 (A) (A) (A) (A) (A) (A) (A) (A) (A) (A) (A) (A)
                 (A) (A) (A) (A) (A) (A) (A) (A) (A) (A) (A) (A)
                 (A) (A) (A) (A) (A) (A) (A) (A) (A) (A) (A) (A)
                 (A) (A) (A) (A) (A) (A) (A) (A) (A) (A) (A) (A)
                 (A) (A) (A) (A) (A) (A) (A) (A) (A) (A) (A) (A)
                 (A) (A) (A) (A) (A) (A) (A) (A) (A) (A) (A) (A)
                 (A) (A) (A) (A) (A) (A) (A) (A) (A) (A) (A) (A)
                 (A) (A) (A) (A) (A) (A) (A) (A) (A) (A) (A) (A)
                 (A) (A) (A) (A) (A) (A) (A) (A) (A) (A) (A) (A)
                 (A) (A) (A) (A) (A) (A) (A) (A) (A) (A) (A) (A)
                 (A) (A) (A) (A) (A) (A) (A) (A) (A) (A) (A) (A)
                 (A) (A) (A) (A) (A) (A) (A) (A) (A) (A) (A) (A)
                 (A) (A) (A) (A) (A) (A) (A) (A) (A) (A) (A) (A)
                 (A) (A) (A) (A) (A) (A) (A) (A) (A) (A) (A) (A)
                 (A) (A) (A) (A) (A) (A) (A) (A) (A) (A) (A) (A)
                 (A) (A) (A) (A) (A) (A) (A) (A) (A) (A) (A) (A)
                 (A) (A) (A) (A) (A) (A) (A) (A) (A) (A) (A) (A)
                 (A) (A) (A) (A) (A) (A) (A) (A) (A) (A) (A) (A)
                 (A) (A) (A) (A) (A) (A) (A) (A) (A) (A) (A) (A)
                 (A) (A) (A) (A) (A) (A) (A) (A) (A) (A) (A) (A)
                 (A) (A) (A) (A) (A) (A) (A) (A) (A) (A) (A) (A)
                 (A) (A) (A) (A) (A) (A) (A) (A) (A) (A) (A) (A)
                 (A) (A) (A) (A) (A) (A) (A) (A) (A) (A) (A) (A)
                 (A) (A) (A) (A) (A) (A) (A) (A) (A) (A) (A) (A)
                 (A) (A) (A) (A) (A) (A) (A) (A) (A) (A) (A) (A)
                 (A) (A) (A) (A) (A) (A) (A) (A) (A) (A) (A) (A)
                 (A) (A) (A) (A) (A) (A) (A) (A) (A) (A) (A) (A)
                 (A) (A) (A) (A) (A) (A) (A) (A) (A) (A) (A) (A)
                 (A) (A) (A) (A) (A) (A) (A) (A) (A) (A) (A) (A)
                 (A) (A) (A) (A) (A) (A) (A) (A) (A) (A) (A) (A)
                 (A) (A) (A) (A) (A) (A) (A) (A) (A) (A) (A) (A)
                 (A) (A) (A) (A) (A) (A) (A) (A) (A) (A) (A) (A)
                 (A) (A) (A) (A) (A) (A) (A) (A) (A) (A) (A) (A)
                 (A) (A) (A) (A) (A) (A) (A) (A) (A) (A) (A) (A)
                 (A) (A) (A) (A) (A) (A) (A) (A) (A) (A) (A) (A)
                 (A) (A) (A) (A) (A) (A) (A) (A) (A) (A) (A) (A)
   200 initial guesses have been made.
 Convergence on wavefunction:    0.001000000000000
 Davidson Disk Diagonalization:  ConvIn= 1.00D-03 SkipCon=T Conv= 1.00D-03.
 Max sub-space:   800 roots to seek:   200 dimension of matrix:       545688
 Iteration     1 Dimension   200 NMult     0 NNew    200
 CISAX will form    60 AO SS matrices at one time.
 NMat=    60 NSing=    60 JSym2X= 0.
 FoFJK:  IHMeth= 1 ICntrl=       0 DoSepK=F KAlg= 0 I1Cent=   0 FoldK=F
 IRaf=         0 NMat= 120 IRICut=       1 DoRegI=T DoRafI=F ISym2E= 0.
 NMat=    60 NSing=    60 JSym2X= 0.
 NMat=    60 NSing=    60 JSym2X= 0.
 NMat=    20 NSing=    20 JSym2X= 0.
 New state      2 was old state      3
 New state      3 was old state      2
 New state      5 was old state      6
 New state      6 was old state      5
 New state     10 was old state     12
 New state     11 was old state     10
 New state     12 was old state     11
 New state     13 was old state     14
 New state     14 was old state     13
 New state     18 was old state     20
 New state     20 was old state     18
 New state     21 was old state     22
 New state     22 was old state     21
 New state     24 was old state     27
 New state     27 was old state     30
 New state     28 was old state     34
 New state     29 was old state     38
 New state     30 was old state     24
 New state     31 was old state     40
 New state     33 was old state     41
 New state     34 was old state     54
 New state     35 was old state     48
 New state     37 was old state     29
 New state     38 was old state     28
 New state     39 was old state     49
 New state     40 was old state     57
 New state     41 was old state     31
 New state     42 was old state     33
 New state     43 was old state     35
 New state     44 was old state     42
 New state     45 was old state     53
 New state     46 was old state     37
 New state     47 was old state     55
 New state     48 was old state     52
 New state     49 was old state     39
 New state     50 was old state     43
 Excitation Energies [eV] at current iteration:
 Root      1 :     2.884338316628796
 Root      2 :     3.118258288922352
 Root      3 :     3.132286639602952
 Root      4 :     3.165572656639326
 Root      5 :     3.286996886920590
 Root      6 :     3.289607186519119
 Root      7 :     3.382742239151747
 Root      8 :     3.390586734037472
 Root      9 :     3.468000453889236
 Root     10 :     3.485049406464920
 Root     11 :     3.524509010840717
 Root     12 :     3.599121182315348
 Root     13 :     3.654282856619577
 Root     14 :     3.697606424094070
 Root     15 :     3.838440004027047
 Root     16 :     3.889883252220035
 Root     17 :     4.220996323469784
 Root     18 :     4.281077978455269
 Root     19 :     4.298586603791908
 Root     20 :     4.315614981404532
 Root     21 :     4.343262071854058
 Root     22 :     4.419975288881073
 Root     23 :     4.429646389754145
 Root     24 :     4.465803291392136
 Root     25 :     4.473016049385535
 Root     26 :     4.514923385930455
 Root     27 :     4.515807203389703
 Root     28 :     4.522489029713859
 Root     29 :     4.600313636844081
 Root     30 :     4.605358154962595
 Root     31 :     4.635657663680858
 Root     32 :     4.638773131994943
 Root     33 :     4.670364990007996
 Root     34 :     4.695203940273985
 Root     35 :     4.728994736049835
 Root     36 :     4.745485247828969
 Root     37 :     4.752791885711025
 Root     38 :     4.760165015374177
 Root     39 :     4.773331793522168
 Root     40 :     4.791142540647221
 Root     41 :     4.818401818208556
 Root     42 :     4.819439980935528
 Root     43 :     4.828570987008613
 Root     44 :     4.835111044641666
 Root     45 :     4.837343436087423
 Root     46 :     4.860547478290037
 Root     47 :     4.867259979388050
 Root     48 :     4.873926410897357
 Root     49 :     4.894076911567882
 Root     50 :     4.946223110253066
 Root     51 :     4.947460285603976
 Root     52 :     4.958695446205879
 Root     53 :     4.978908218746451
 Root     54 :     4.982046250881351
 Root     55 :     5.021427242267450
 Root     56 :     5.028192725275098
 Root     57 :     5.095228267330569
 Root     58 :     5.135168584240293
 Root     59 :     5.140729123987771
 Root     60 :     5.170421285703108
 Root     61 :     5.205790221337111
 Root     62 :     5.214614460051687
 Root     63 :     5.263823360732147
 Root     64 :     5.314649244132650
 Root     65 :     5.326400942101875
 Root     66 :     5.389385616464454
 Root     67 :     5.401668949309726
 Root     68 :     5.425479139597590
 Root     69 :     5.427931188379850
 Root     70 :     5.445140131552149
 Root     71 :     5.464360838530260
 Root     72 :     5.497436348859954
 Root     73 :     5.503503479920357
 Root     74 :     5.507041281272124
 Root     75 :     5.513459313003558
 Root     76 :     5.522512715149528
 Root     77 :     5.552691920319172
 Root     78 :     5.558259498767357
 Root     79 :     5.567737408554699
 Root     80 :     5.577947454909185
 Root     81 :     5.579993140307337
 Root     82 :     5.586095882063625
 Root     83 :     5.595772035296617
 Root     84 :     5.607481712016079
 Root     85 :     5.625227921097198
 Root     86 :     5.632986431812819
 Root     87 :     5.648406079653722
 Root     88 :     5.662528061327381
 Root     89 :     5.668970966354750
 Root     90 :     5.679499249264907
 Root     91 :     5.682867699819899
 Root     92 :     5.683129999010641
 Root     93 :     5.703656714332728
 Root     94 :     5.714303496733149
 Root     95 :     5.726079911859726
 Root     96 :     5.740011994793221
 Root     97 :     5.750798161157473
 Root     98 :     5.753183217914270
 Root     99 :     5.755899055815435
 Root    100 :     5.769010155306573
 Root    101 :     5.771628521720094
 Root    102 :     5.786254390699890
 Root    103 :     5.797485486564613
 Root    104 :     5.807626889868356
 Root    105 :     5.807860932774455
 Root    106 :     5.828640835217837
 Root    107 :     5.846130194895819
 Root    108 :     5.852596712112638
 Root    109 :     5.858423519946904
 Root    110 :     5.867370094237550
 Root    111 :     5.871203609405089
 Root    112 :     5.876599260587020
 Root    113 :     5.887256151717178
 Root    114 :     5.906047688499450
 Root    115 :     5.908942619315195
 Root    116 :     5.911203608963930
 Root    117 :     5.933655802128592
 Root    118 :     5.937013732670214
 Root    119 :     5.938513058284273
 Root    120 :     5.953338291387694
 Root    121 :     5.962541378154479
 Root    122 :     5.963150081464860
 Root    123 :     5.967225068061977
 Root    124 :     5.971603590779665
 Root    125 :     5.987584121799530
 Root    126 :     5.999299824923609
 Root    127 :     6.003862412402325
 Root    128 :     6.004919594209667
 Root    129 :     6.012732271425935
 Root    130 :     6.015040120413093
 Root    131 :     6.016539646201920
 Root    132 :     6.031355452355085
 Root    133 :     6.055269389915883
 Root    134 :     6.056403075293826
 Root    135 :     6.067055610836591
 Root    136 :     6.076421497529970
 Root    137 :     6.078505565660943
 Root    138 :     6.085042594130529
 Root    139 :     6.094073453974406
 Root    140 :     6.114266551574812
 Root    141 :     6.124923759283099
 Root    142 :     6.138572118687826
 Root    143 :     6.144140621258583
 Root    144 :     6.164291192269401
 Root    145 :     6.166285219196071
 Root    146 :     6.170146920989026
 Root    147 :     6.208021898799151
 Root    148 :     6.225950075676345
 Root    149 :     6.245850491952908
 Root    150 :     6.248338158366272
 Root    151 :     6.267222074937944
 Root    152 :     6.277248125776003
 Root    153 :     6.280827497854012
 Root    154 :     6.284382851167378
 Root    155 :     6.301182438389263
 Root    156 :     6.313188966658775
 Root    157 :     6.325090528481928
 Root    158 :     6.332152067928200
 Root    159 :     6.358544430755723
 Root    160 :     6.378319237796300
 Root    161 :     6.382739937742350
 Root    162 :     6.388429578594222
 Root    163 :     6.389939715737261
 Root    164 :     6.392551960954228
 Root    165 :     6.395246355334447
 Root    166 :     6.404378138777592
 Root    167 :     6.411063392769623
 Root    168 :     6.416213744273650
 Root    169 :     6.431151525191758
 Root    170 :     6.441234974075564
 Root    171 :     6.444754260744233
 Root    172 :     6.455780617077270
 Root    173 :     6.463551571075214
 Root    174 :     6.468140286235871
 Root    175 :     6.486508877327798
 Root    176 :     6.500362640812631
 Root    177 :     6.514058590877356
 Root    178 :     6.517691247348460
 Root    179 :     6.524848207285174
 Root    180 :     6.542787567746038
 Root    181 :     6.554754243858131
 Root    182 :     6.570958349086660
 Root    183 :     6.584301504667224
 Root    184 :     6.603588534150597
 Root    185 :     6.608880472684866
 Root    186 :     6.626339611664124
 Root    187 :     6.646433993037409
 Root    188 :     6.664148621862781
 Root    189 :     6.705458438096636
 Root    190 :     6.748390205948331
 Root    191 :     6.757143858303334
 Root    192 :     6.811019633962687
 Root    193 :     6.891929988813421
 Root    194 :     6.927909864327796
 Root    195 :     6.994328443428202
 Root    196 :     7.018671794365296
 Root    197 :     7.142734173546026
 Root    198 :     7.466390309345431
 Root    199 :     7.535813575149915
 Root    200 :     7.850741598476856
 Iteration     2 Dimension   300 NMult   200 NNew    100
 CISAX will form    60 AO SS matrices at one time.
 NMat=    60 NSing=    60 JSym2X= 0.
 NMat=    40 NSing=    40 JSym2X= 0.
 Root      1 not converged, maximum delta is    0.024281357871020
 New state      2 was old state      3
 Root      2 not converged, maximum delta is    0.205337768576739
 New state      3 was old state      2
 Root      3 not converged, maximum delta is    0.216451595129122
 Root      4 not converged, maximum delta is    0.153381742004193
 Root      5 not converged, maximum delta is    0.473640601335405
 Root      6 not converged, maximum delta is    0.491148200091003
 New state      7 was old state      8
 Root      7 not converged, maximum delta is    0.021926060255870
 New state      8 was old state      7
 Root      8 not converged, maximum delta is    0.025449288830532
 New state      9 was old state     10
 Root      9 not converged, maximum delta is    0.349787087422779
 New state     10 was old state      9
 Root     10 not converged, maximum delta is    0.279813852014099
 Root     11 not converged, maximum delta is    0.062702042101474
 Root     12 not converged, maximum delta is    0.111856302664919
 Root     13 not converged, maximum delta is    0.018420006397833
 Root     14 not converged, maximum delta is    0.062708793492147
 Root     15 not converged, maximum delta is    0.071565295872047
 Root     16 not converged, maximum delta is    0.023690459988148
 New state     17 was old state     18
 Root     17 not converged, maximum delta is    0.104223518203904
 New state     18 was old state     19
 Root     18 not converged, maximum delta is    0.148669227813895
 New state     19 was old state     20
 Root     19 not converged, maximum delta is    0.160715886794468
 New state     20 was old state     22
 Root     20 not converged, maximum delta is    0.144531914432505
 New state     21 was old state     17
 Root     21 not converged, maximum delta is    0.060453388826215
 New state     22 was old state     21
 Root     22 not converged, maximum delta is    0.142820910269949
 New state     23 was old state     24
 Root     23 not converged, maximum delta is    0.349539357457815
 New state     24 was old state     25
 Root     24 not converged, maximum delta is    0.326508439529320
 New state     25 was old state     26
 Root     25 not converged, maximum delta is    0.299237445125567
 New state     26 was old state     23
 Root     26 not converged, maximum delta is    0.067441179411011
 Root     27 not converged, maximum delta is    0.457333980407394
 New state     28 was old state     44
 Root     28 not converged, maximum delta is    0.316219438991323
 New state     29 was old state     28
 Root     29 not converged, maximum delta is    0.389892905979621
 Root     30 not converged, maximum delta is    0.219072106197260
 New state     31 was old state     29
 Root     31 not converged, maximum delta is    0.426168577864885
 New state     32 was old state     31
 Root     32 not converged, maximum delta is    0.433271483842188
 New state     33 was old state     32
 Root     33 not converged, maximum delta is    0.080194205097823
 New state     34 was old state     33
 Root     34 not converged, maximum delta is    0.329539479595633
 New state     35 was old state     48
 Root     35 not converged, maximum delta is    0.290861152115017
 New state     36 was old state     47
 Root     36 not converged, maximum delta is    0.265382091492587
 New state     37 was old state     34
 Root     37 not converged, maximum delta is    0.266186965975341
 New state     38 was old state     35
 Root     38 not converged, maximum delta is    0.124834962200705
 New state     39 was old state     40
 Root     39 not converged, maximum delta is    0.412667329032073
 New state     40 was old state     45
 Root     40 not converged, maximum delta is    0.261308793638743
 New state     41 was old state     36
 Root     41 not converged, maximum delta is    0.133852767921572
 New state     42 was old state     37
 Root     42 not converged, maximum delta is    0.194456005159744
 New state     43 was old state     38
 Root     43 not converged, maximum delta is    0.252897232622284
 New state     44 was old state     39
 Root     44 not converged, maximum delta is    0.179655117458458
 New state     45 was old state     41
 Root     45 not converged, maximum delta is    0.047186123341150
 New state     46 was old state     42
 Root     46 not converged, maximum delta is    0.178708004831750
 New state     47 was old state     43
 Root     47 not converged, maximum delta is    0.118922112784183
 New state     48 was old state     46
 Root     48 not converged, maximum delta is    0.102769163287447
 Root     49 not converged, maximum delta is    0.043683361611066
 New state     50 was old state     51
 Root     50 not converged, maximum delta is    0.048954285700629
 Excitation Energies [eV] at current iteration:
 Root      1 :     2.831886201887066   Change is   -0.052452114741731
 Root      2 :     3.062864945406175   Change is   -0.069421694196776
 Root      3 :     3.078415399275154   Change is   -0.039842889647199
 Root      4 :     3.134091940437958   Change is   -0.031480716201368
 Root      5 :     3.206087068726859   Change is   -0.080909818193731
 Root      6 :     3.255480040972784   Change is   -0.034127145546335
 Root      7 :     3.370883709154559   Change is   -0.019703024882913
 Root      8 :     3.378134102145205   Change is   -0.004608137006542
 Root      9 :     3.417847187980108   Change is   -0.067202218484812
 Root     10 :     3.461012346152536   Change is   -0.006988107736700
 Root     11 :     3.482560881758654   Change is   -0.041948129082063
 Root     12 :     3.532865227313256   Change is   -0.066255955002093
 Root     13 :     3.636329782676841   Change is   -0.017953073942736
 Root     14 :     3.677665014062803   Change is   -0.019941410031267
 Root     15 :     3.814078101386619   Change is   -0.024361902640429
 Root     16 :     3.876885874105353   Change is   -0.012997378114683
 Root     17 :     4.105948235526153   Change is   -0.175129742929117
 Root     18 :     4.158537544388606   Change is   -0.140049059403302
[...]
 Alpha virt. eigenvalues --    3.13359   3.13688   3.13716   3.14054   3.14126
 Alpha virt. eigenvalues --    3.14211   3.14361   3.14883   3.15008   3.15310
 Alpha virt. eigenvalues --    3.15500   3.15535   3.15828   3.16342   3.16543
 Alpha virt. eigenvalues --    3.16771   3.16823   3.17288   3.17478   3.17610
 Alpha virt. eigenvalues --    3.17769   3.17974   3.18109   3.18277   3.18542
 Alpha virt. eigenvalues --    3.18772   3.19076   3.19416   3.19484   3.19691
 Alpha virt. eigenvalues --    3.19924   3.19989   3.20080   3.20172   3.20515
 Alpha virt. eigenvalues --    3.20664   3.21000   3.21128   3.21170   3.21493
 Alpha virt. eigenvalues --    3.21747   3.21874   3.22033   3.22307   3.22827
 Alpha virt. eigenvalues --    3.22945   3.23095   3.23899   3.23958   3.24200
 Alpha virt. eigenvalues --    3.24505   3.24779   3.25017   3.25296   3.25454
 Alpha virt. eigenvalues --    3.25570   3.26325   3.26523   3.26592   3.26854
 Alpha virt. eigenvalues --    3.26897   3.27468   3.27789   3.27828   3.28069
 Alpha virt. eigenvalues --    3.28102   3.28363   3.28785   3.28988   3.29051
 Alpha virt. eigenvalues --    3.29424   3.29765   3.29908   3.29938   3.30054
 Alpha virt. eigenvalues --    3.30438   3.30568   3.31106   3.31359   3.31448
 Alpha virt. eigenvalues --    3.31920   3.32014   3.32177   3.32218   3.32834
 Alpha virt. eigenvalues --    3.33034   3.33135   3.33270   3.33337   3.33530
 Alpha virt. eigenvalues --    3.33754   3.34112   3.34479   3.34543   3.35082
 Alpha virt. eigenvalues --    3.35113   3.35329   3.35755   3.35916   3.36003
 Alpha virt. eigenvalues --    3.36387   3.36613   3.36822   3.36851   3.37010
 Alpha virt. eigenvalues --    3.37317   3.37593   3.37768   3.38091   3.38217
 Alpha virt. eigenvalues --    3.38454   3.38802   3.38933   3.39248   3.39318
 Alpha virt. eigenvalues --    3.39401   3.39728   3.40051   3.40126   3.40614
 Alpha virt. eigenvalues --    3.40831   3.40925   3.41341   3.41505   3.41666
 Alpha virt. eigenvalues --    3.41916   3.42016   3.42248   3.42533   3.42552
 Alpha virt. eigenvalues --    3.43189   3.43297   3.43879   3.44140   3.44464
 Alpha virt. eigenvalues --    3.44510   3.44847   3.45079   3.45518   3.45863
 Alpha virt. eigenvalues --    3.45951   3.46406   3.46445   3.46631   3.46853
 Alpha virt. eigenvalues --    3.47311   3.47354   3.47456   3.47744   3.48142
 Alpha virt. eigenvalues --    3.48327   3.48447   3.48618   3.48676   3.48820
 Alpha virt. eigenvalues --    3.49217   3.49365   3.49375   3.49800   3.49927
 Alpha virt. eigenvalues --    3.50026   3.50230   3.50906   3.51003   3.51131
 Alpha virt. eigenvalues --    3.51448   3.51532   3.51624   3.51918   3.52024
 Alpha virt. eigenvalues --    3.52815   3.52977   3.53093   3.53318   3.53417
 Alpha virt. eigenvalues --    3.53429   3.53714   3.53790   3.54012   3.54066
 Alpha virt. eigenvalues --    3.54305   3.54748   3.54856   3.55025   3.55165
 Alpha virt. eigenvalues --    3.55530   3.55834   3.55955   3.56152   3.56676
 Alpha virt. eigenvalues --    3.56696   3.57076   3.57508   3.57623   3.57790
 Alpha virt. eigenvalues --    3.58010   3.58113   3.58697   3.58877   3.58997
 Alpha virt. eigenvalues --    3.59147   3.59392   3.59692   3.59878   3.60096
 Alpha virt. eigenvalues --    3.60661   3.60682   3.60978   3.61255   3.61353
 Alpha virt. eigenvalues --    3.61514   3.62085   3.62648   3.62832   3.62925
 Alpha virt. eigenvalues --    3.63435   3.63790   3.64387   3.64519   3.65584
 Alpha virt. eigenvalues --    3.65890   3.66009   3.66103   3.66367   3.67753
 Alpha virt. eigenvalues --    3.68195   3.68310   3.68520   3.68607   3.69080
 Alpha virt. eigenvalues --    3.69301   3.71081   3.71591   3.72733   3.73011
 Alpha virt. eigenvalues --    3.73477   3.74340   3.74597   3.75000   3.75517
 Alpha virt. eigenvalues --    3.76012   3.76403   3.76985   3.77091   3.77713
 Alpha virt. eigenvalues --    3.78538   3.78622   3.78873   3.79194   3.79399
 Alpha virt. eigenvalues --    3.80297   3.80547   3.80642   3.81522   3.81897
 Alpha virt. eigenvalues --    3.82108   3.82343   3.82662   3.82957   3.83761
 Alpha virt. eigenvalues --    3.83979   3.84117   3.84474   3.85987   3.86241
 Alpha virt. eigenvalues --    3.86386   3.86632   3.88222   3.88372   3.88772
 Alpha virt. eigenvalues --    3.89150   3.89304   3.90277   3.90854   3.91138
 Alpha virt. eigenvalues --    3.91288   3.91527   3.92006   3.92250   3.92953
 Alpha virt. eigenvalues --    3.93113   3.93319   3.93809   3.93985   3.94354
 Alpha virt. eigenvalues --    3.94634   3.94689   3.95170   3.95755   3.95826
 Alpha virt. eigenvalues --    3.96034   3.96640   3.96870   3.97012   3.97109
 Alpha virt. eigenvalues --    3.97495   3.97678   3.98289   3.98298   3.98419
 Alpha virt. eigenvalues --    3.98677   3.99277   3.99436   4.01255   4.01760
 Alpha virt. eigenvalues --    4.02140   4.02800   4.02855   4.03333   4.04144
 Alpha virt. eigenvalues --    4.04235   4.04778   4.05720   4.06130   4.07069
 Alpha virt. eigenvalues --    4.07492   4.07573   4.07830   4.08235   4.08319
 Alpha virt. eigenvalues --    4.08410   4.08453   4.08717   4.08961   4.09046
 Alpha virt. eigenvalues --    4.09618   4.09785   4.10456   4.10554   4.10789
 Alpha virt. eigenvalues --    4.11701   4.11856   4.12209   4.12549   4.13296
 Alpha virt. eigenvalues --    4.13342   4.14066   4.14173   4.14499   4.14969
 Alpha virt. eigenvalues --    4.15032   4.15217   4.15532   4.15973   4.16161
 Alpha virt. eigenvalues --    4.16362   4.16501   4.16689   4.16906   4.17049
 Alpha virt. eigenvalues --    4.17243   4.17917   4.18180   4.18290   4.18478
 Alpha virt. eigenvalues --    4.18521   4.19009   4.19243   4.19396   4.19687
 Alpha virt. eigenvalues --    4.19831   4.19988   4.20476   4.20784   4.21943
 Alpha virt. eigenvalues --    4.22264   4.23000   4.23199   4.23244   4.23837
 Alpha virt. eigenvalues --    4.23979   4.24302   4.24612   4.25025   4.25475
 Alpha virt. eigenvalues --    4.25730   4.25955   4.25957   4.26296   4.26787
 Alpha virt. eigenvalues --    4.27074   4.27512   4.28147   4.28159   4.28766
 Alpha virt. eigenvalues --    4.28924   4.29053   4.29293   4.29512   4.29702
 Alpha virt. eigenvalues --    4.30416   4.30551   4.30771   4.31264   4.32144
 Alpha virt. eigenvalues --    4.32343   4.33567   4.33690   4.33922   4.34969
 Alpha virt. eigenvalues --    4.36168   4.36644   4.36995   4.38390   4.39034
 Alpha virt. eigenvalues --    4.39103   4.39418   4.39676   4.40092   4.40555
 Alpha virt. eigenvalues --    4.40688   4.41746   4.42106   4.42737   4.43185
 Alpha virt. eigenvalues --    4.44603   4.44683   4.45183   4.46181   4.48072
 Alpha virt. eigenvalues --    4.48437   4.49255   4.49376   4.50578   4.51155
 Alpha virt. eigenvalues --    4.51298   4.51532   4.53055   4.53802   4.54276
 Alpha virt. eigenvalues --    4.55303   4.55520   4.55716   4.56660   4.56773
 Alpha virt. eigenvalues --    4.56951   4.57108   4.58059   4.59007   4.59438
 Alpha virt. eigenvalues --    4.60234   4.61242   4.61384   4.62093   4.62539
 Alpha virt. eigenvalues --    4.62585   4.63040   4.63780   4.63904   4.64901
 Alpha virt. eigenvalues --    4.65052   4.65609   4.65895   4.66001   4.66678
 Alpha virt. eigenvalues --    4.66875   4.67930   4.68930   4.69469   4.69729
 Alpha virt. eigenvalues --    4.69856   4.70372   4.71326   4.71388   4.71919
 Alpha virt. eigenvalues --    4.72088   4.73455   4.74454   4.75234   4.75458
 Alpha virt. eigenvalues --    4.76823   4.77036   4.77364   4.78050   4.78283
 Alpha virt. eigenvalues --    4.79229   4.79401   4.80941   4.81126   4.81759
 Alpha virt. eigenvalues --    4.82044   4.82557   4.82700   4.83136   4.84282
 Alpha virt. eigenvalues --    4.84587   4.84753   4.86019   4.86503   4.87197
 Alpha virt. eigenvalues --    4.88080   4.89583   4.90518   4.91357   4.92705
 Alpha virt. eigenvalues --    4.92999   4.93099   4.93582   4.93841   4.94582
 Alpha virt. eigenvalues --    4.94857   4.95040   4.95978   4.96084   4.96153
 Alpha virt. eigenvalues --    4.96498   4.97221   4.97912   4.98090   4.98968
 Alpha virt. eigenvalues --    5.00283   5.02275   5.02453   5.02934   5.03700
 Alpha virt. eigenvalues --    5.04281   5.04434   5.04513   5.04734   5.05381
 Alpha virt. eigenvalues --    5.05616   5.05801   5.07915   5.09472   5.09774
 Alpha virt. eigenvalues --    5.10225   5.11783   5.14203   5.15004   5.15732
 Alpha virt. eigenvalues --    5.16330   5.16453   5.17408   5.18043   5.18827
 Alpha virt. eigenvalues --    5.19275   5.20056   5.20322   5.22007   5.23257
 Alpha virt. eigenvalues --    5.23666   5.25564   5.27620   5.27967   5.28426
 Alpha virt. eigenvalues --    5.28947   5.29047   5.29651   5.30030   5.30209
 Alpha virt. eigenvalues --    5.31519   5.32788   5.33593   5.33724   5.34630
 Alpha virt. eigenvalues --    5.35152   5.35536   5.35963   5.36341   5.36576
 Alpha virt. eigenvalues --    5.39839   5.40230   5.41479   5.42527   5.42908
 Alpha virt. eigenvalues --    5.44129   5.44976   5.47964   5.48164   5.48675
 Alpha virt. eigenvalues --    5.50299   5.52472   5.53407   5.54273   5.56617
 Alpha virt. eigenvalues --    5.57372   5.57713   5.58693   5.58754   5.59959
 Alpha virt. eigenvalues --    5.60037   5.61466   5.61913   5.64508   5.64538
 Alpha virt. eigenvalues --    5.65984   5.66380   5.66887   5.67286   5.69992
 Alpha virt. eigenvalues --    5.70731   5.72103   5.72354   5.74334   5.74699
 Alpha virt. eigenvalues --    5.75429   5.75476   5.75860   5.77838   5.78408
 Alpha virt. eigenvalues --    5.80083   5.82064   5.82850   5.83274   5.84010
 Alpha virt. eigenvalues --    5.89356   5.90324   5.90761   5.92669   5.94207
 Alpha virt. eigenvalues --    5.96185   6.10656   6.12042   6.12995   6.15340
 Alpha virt. eigenvalues --    6.19907   6.25556   6.26163   6.29096   6.30567
 Alpha virt. eigenvalues --    6.33371   6.40294   6.40845   6.42182   6.56698
 Alpha virt. eigenvalues --    6.58339  22.21608  22.25968  22.26916  22.34759
 Alpha virt. eigenvalues --   22.47736  22.49376  22.49727  22.51128  22.61007
 Alpha virt. eigenvalues --   22.61572  22.62359  22.62692  22.64191  22.65272
 Alpha virt. eigenvalues --   22.67429  22.67637  22.69558  22.69691  22.72618
 Alpha virt. eigenvalues --   22.72767  22.74892  22.76010  22.76404  22.76904
 Alpha virt. eigenvalues --   22.77998  22.78193  22.82376  22.83351  22.85465
 Alpha virt. eigenvalues --   22.94266  22.96948  22.97172  23.01414  23.02240
 Alpha virt. eigenvalues --   23.03519  23.03942  23.06987  23.15931  23.23555
 Alpha virt. eigenvalues --   23.23646  23.25975  23.26685  23.27577  23.27980
 Alpha virt. eigenvalues --   23.29446  23.55962  23.56439  23.57565  23.57957
 Alpha virt. eigenvalues --   23.61140  23.79475  23.81759  23.82398  23.83454
 Alpha virt. eigenvalues --   23.83827  23.95615  32.26989  32.28271  33.32458
 Alpha virt. eigenvalues --   33.41937  33.43173  33.59686
          Condensed to atoms (all electrons):
 Mulliken charges:
               1
     1  C    0.025837
     2  C   -0.083205
     3  C    0.045102
     4  C    0.143715
     5  C    0.076185
     6  C    0.148359
     7  C   -0.112874
     8  C   -0.109857
     9  N   -0.154871
    10  N   -0.156244
    11  N    0.045273
    12  C    0.101330
    13  C   -0.050187
    14  C   -0.184102
    15  C   -0.100926
    16  C   -0.308031
    17  C   -0.120023
    18  C   -0.194245
    19  H    0.200739
    20  C   -0.013529
    21  C   -0.123963
    22  H    0.256984
    23  C   -0.009767
    24  C   -0.098609
    25  H    0.140723
    26  H    0.126491
    27  C   -0.122717
    28  H    0.127431
    29  H    0.124030
    30  H    0.125302
    31  H    0.124234
    32  N    0.468793
    33  C   -0.010328
    34  C   -0.032800
    35  C   -0.501817
    36  C   -0.110673
    37  C   -0.486947
    38  C   -0.097568
    39  C   -0.088245
    40  H    0.207072
    41  C    0.057146
    42  C   -0.095725
    43  H    0.202098
    44  C    0.051631
    45  C   -0.119343
    46  H    0.137577
    47  H    0.121923
    48  C   -0.114452
    49  H    0.138056
    50  H    0.122071
    51  H    0.122834
    52  H    0.122965
    53  N    0.045261
    54  C   -0.057238
    55  C    0.101529
    56  C   -0.312385
    57  C   -0.113997
    58  C   -0.188618
    59  C   -0.096089
    60  C   -0.121682
    61  H    0.258725
    62  C   -0.010488
    63  C   -0.193344
    64  H    0.202379
    65  C   -0.011947
    66  C   -0.124926
    67  H    0.127966
    68  H    0.123921
    69  C   -0.099531
    70  H    0.141525
    71  H    0.126339
    72  H    0.124266
    73  H    0.125314
    74  N   -0.075731
    75  C    0.042424
    76  C    0.044434
    77  C   -0.231987
    78  C   -0.112574
    79  C   -0.236683
    80  C   -0.110683
    81  C   -0.118293
    82  H    0.222537
    83  C   -0.016604
    84  C   -0.112298
    85  H    0.217458
    86  C   -0.016146
    87  C   -0.138853
    88  H    0.131470
    89  H    0.128786
    90  C   -0.139627
    91  H    0.131964
    92  H    0.128873
    93  H    0.125844
    94  H    0.125857
 Sum of Mulliken charges =  -0.00000
 Mulliken charges with hydrogens summed into heavy atoms:
               1
     1  C    0.025837
     2  C   -0.083205
     3  C    0.045102
     4  C    0.143715
     5  C    0.076185
     6  C    0.148359
     7  C   -0.112874
     8  C   -0.109857
     9  N   -0.154871
    10  N   -0.156244
    11  N    0.045273
    12  C    0.101330
    13  C   -0.050187
    14  C    0.016637
    15  C   -0.100926
    16  C   -0.051047
    17  C   -0.120023
    18  C   -0.053522
    20  C    0.112963
    21  C    0.003467
    23  C    0.114263
    24  C    0.026693
    27  C    0.001517
    32  N    0.468793
    33  C   -0.010328
    34  C   -0.032800
    35  C   -0.294745
    36  C   -0.110673
    37  C   -0.284849
    38  C   -0.097568
    39  C    0.049332
    41  C    0.179069
    42  C    0.042331
    44  C    0.173703
    45  C    0.003490
    48  C    0.008513
    53  N    0.045261
    54  C   -0.057238
    55  C    0.101529
    56  C   -0.053660
    57  C   -0.113997
    58  C    0.013761
    59  C   -0.096089
    60  C    0.006284
    62  C    0.113434
    63  C   -0.051819
    65  C    0.114392
    66  C   -0.000660
    69  C    0.025783
    74  N   -0.075731
    75  C    0.042424
    76  C    0.044434
    77  C   -0.009450
    78  C   -0.112574
    79  C   -0.019225
    80  C   -0.110683
    81  C    0.013176
    83  C    0.112182
    84  C    0.019666
    86  C    0.112727
    87  C   -0.013009
    90  C   -0.013770
 Electronic spatial extent (au):  <R**2>=          34522.2744
 Charge=             -0.0000 electrons
 Dipole moment (field-independent basis, Debye):
    X=             -4.7810    Y=              0.1228    Z=             -0.0233  Tot=              4.7826
 Quadrupole moment (field-independent basis, Debye-Ang):
   XX=           -340.5289   YY=           -354.6458   ZZ=           -339.2587
   XY=              0.0561   XZ=              0.3628   YZ=             37.7336
 Traceless Quadrupole moment (field-independent basis, Debye-Ang):
   XX=              4.2822   YY=             -9.8347   ZZ=              5.5524
   XY=              0.0561   XZ=              0.3628   YZ=             37.7336
 Octapole moment (field-independent basis, Debye-Ang**2):
  XXX=             -1.1641  YYY=             11.3287  ZZZ=             -0.1812  XYY=           -179.8009
  XXY=             -5.7349  XXZ=              3.0271  XZZ=            -51.8673  YZZ=              1.1946
  YYZ=             -4.4784  XYZ=            113.3015
 Hexadecapole moment (field-independent basis, Debye-Ang**3):
 XXXX=         -22107.9039 YYYY=         -16522.0988 ZZZZ=          -6607.8851 XXXY=            -11.1057
 XXXZ=             -2.1450 YYYX=             17.2855 YYYZ=            617.2702 ZZZX=              2.3870
 ZZZY=            298.8404 XXYY=          -6974.6481 XXZZ=          -4979.2827 YYZZ=          -3827.4230
 XXYZ=            388.0561 YYXZ=              2.2488 ZZXY=             -1.1736
 N-N= 8.874255913593D+03 E-N=-2.350783642682D+04  KE= 2.469058485134D+03
 Leave Link  601 at Fri Jul  1 13:03:46 2022, MaxMem=  5242880000 cpu:        21.0
 (Enter /opt/nce/packages/global/g09/l9999.exe)
 1\1\GINC-CN084\SP\RM06 TD-FC\def2TZVP\C56H32N6\PNG4RJV\01-Jul-2022\0\\
 #p m06/def2TZVP td=(NStates=50) int=ultrafine scrf=(SMD,solvent=Aceton
 itrile)\\Title\\0,1\C,0,0.176702,-1.152969,0.383353\C,0,-0.511981,0.00
 4848,-0.006487\C,0,0.217156,1.140151,-0.38768\C,0,1.616694,1.097133,-0
 .406058\C,0,2.305864,-0.041319,0.0067\C,0,1.576501,-1.156763,0.412954\
 C,0,2.345819,2.197509,-0.938862\C,0,2.264763,-2.280669,0.95053\N,0,2.9
 40276,3.07658,-1.381651\N,0,2.825758,-3.180404,1.395477\N,0,-0.50897,-
 2.308708,0.772223\C,0,-1.480766,-2.390184,1.773738\C,0,-0.518589,-3.51
 4762,0.056549\C,0,-1.786194,-1.481638,2.771913\C,0,-2.124018,-3.633522
 ,1.68344\C,0,0.236824,-3.895255,-1.040796\C,0,-1.511272,-4.348305,0.59
 4017\C,0,-2.800807,-1.813713,3.65212\H,0,-1.249868,-0.545374,2.867836\
 C,0,-3.134995,-3.951166,2.581888\C,0,-0.012606,-5.142108,-1.58748\H,0,
 0.988176,-3.244343,-1.47474\C,0,-1.743656,-5.595982,0.029441\C,0,-3.47
 6979,-3.03046,3.554604\H,0,-3.067444,-1.114321,4.436777\H,0,-3.639647,
 -4.909294,2.51915\C,0,-0.988945,-5.987178,-1.059915\H,0,0.565656,-5.46
 513,-2.445442\H,0,-2.512014,-6.243928,0.437475\H,0,-4.266258,-3.259994
 ,4.260849\H,0,-1.156356,-6.957101,-1.513311\N,0,-1.913502,0.025742,-0.
 014361\C,0,-2.728045,0.829138,0.787117\C,0,-2.737132,-0.769311,-0.8145
 41\C,0,-2.376224,1.734851,1.775155\C,0,-4.071725,0.546025,0.494759\C,0
 ,-2.394858,-1.673151,-1.807688\C,0,-4.077422,-0.475726,-0.518415\C,0,-
 3.397351,2.388301,2.441725\H,0,-1.340763,1.919212,2.035624\C,0,-5.0823
 53,1.210001,1.179971\C,0,-3.422545,-2.318221,-2.472169\H,0,-1.361428,-
 1.861504,-2.073149\C,0,-5.094971,-1.131729,-1.201023\C,0,-4.738056,2.1
 36674,2.145178\H,0,-3.146308,3.105043,3.215721\H,0,-6.122363,0.994382,
 0.959463\C,0,-4.760453,-2.059091,-2.169176\H,0,-3.17926,-3.033372,-3.2
 50054\H,0,-6.13278,-0.909215,-0.977001\H,0,-5.512919,2.666212,2.686993
 \H,0,-5.540837,-2.582349,-2.709136\N,0,-0.42489,2.321151,-0.771483\C,0
 ,-0.378885,3.523706,-0.052205\C,0,-1.393226,2.449172,-1.770988\C,0,0.3
 94955,3.863186,1.045504\C,0,-1.33324,4.403327,-0.584984\C,0,-1.741649,
 1.556825,-2.769513\C,0,-1.978662,3.720598,-1.676363\C,0,0.202509,5.116
 816,1.599598\H,0,1.117091,3.175232,1.472092\C,0,-1.50902,5.656629,-0.0
 12542\C,0,-2.743457,1.935811,-3.645402\H,0,-1.247273,0.598079,-2.86854
 2\C,0,-2.976436,4.085386,-2.571744\C,0,-0.736299,6.007143,1.078253\H,0
 ,0.795853,5.409376,2.458209\H,0,-2.248296,6.340664,-0.415341\C,0,-3.36
 3246,3.181969,-3.543917\H,0,-3.044533,1.250448,-4.430075\H,0,-3.437208
 ,5.065151,-2.506077\H,0,-0.860024,6.980936,1.53731\H,0,-4.14413,3.4476
 34,-4.24682\N,0,3.702436,-0.063554,0.013611\C,0,4.511286,-0.872107,-0.
 789575\C,0,4.526745,0.73934,0.806108\C,0,4.147409,-1.801125,-1.750659\
 C,0,5.855243,-0.58227,-0.506472\C,0,4.180047,1.672049,1.769917\C,0,5.8
 64911,0.439051,0.508578\C,0,5.166176,-2.455144,-2.420884\H,0,3.107355,
 -2.01064,-1.976429\C,0,6.860202,-1.250478,-1.194464\C,0,5.210688,2.319
 98,2.427632\H,0,3.143999,1.887912,2.007029\C,0,6.882242,1.100763,1.184
 571\C,0,6.50782,-2.187364,-2.14706\H,0,4.912793,-3.189591,-3.176721\H,
 0,7.902072,-1.032598,-0.985272\C,0,6.547288,2.041964,2.139326\H,0,4.97
 0986,3.057564,3.184837\H,0,7.920174,0.87535,0.964103\H,0,7.278896,-2.7
 18579,-2.692663\H,0,7.328219,2.568679,2.675152\\Version=ES64L-G09RevE.
 01\State=1-A\HF=-2480.8716165\RMSD=7.336e-10\PG=C01 [X(C56H32N6)]\\@


 Standing in the middle of the road is very dangerous;
 you get knocked down by the traffic from both sides.
                                -- Margaret Thatcher
 Job cpu time:      33 days  6 hours 57 minutes 59.5 seconds.
 File lengths (MBytes):  RWF=  29917 Int=      0 D2E=      0 Chk=   6203 Scr=      1
 Normal termination of Gaussian 09 at Fri Jul  1 13:03:56 2022.
