 Entering Gaussian System, Link 0=g09
 Input=/home/png4rjv/fotokatalizis/benchmark/OPCs/CA_50_states/CA_1_PBE-D3_def2TZVP.gjf
 Output=/home/png4rjv/fotokatalizis/benchmark/OPCs/CA_50_states/CA_1_PBE-D3_def2TZVP.log
 Initial command:
 /opt/nce/packages/global/g09/l1.exe "/home/png4rjv/fotokatalizis/benchmark/OPCs/CA_50_states/CA_1_PBE-D3_def2TZVP/Gau-58105.inp" -scrdir="/home/png4rjv/fotokatalizis/benchmark/OPCs/CA_50_states/CA_1_PBE-D3_def2TZVP/"
 Default is to use a total of  12 processors:
                               12 via shared-memory
                                1 via Linda
 Entering Link 1 = /opt/nce/packages/global/g09/l1.exe PID=     58106.
  
 Copyright (c) 1988,1990,1992,1993,1995,1998,2003,2009,2015,
            Gaussian, Inc.  All Rights Reserved.
  
 This is part of the Gaussian(R) 09 program.  It is based on
 the Gaussian(R) 03 system (copyright 2003, Gaussian, Inc.),
 the Gaussian(R) 98 system (copyright 1998, Gaussian, Inc.),
 the Gaussian(R) 94 system (copyright 1995, Gaussian, Inc.),
 the Gaussian 92(TM) system (copyright 1992, Gaussian, Inc.),
 the Gaussian 90(TM) system (copyright 1990, Gaussian, Inc.),
 the Gaussian 88(TM) system (copyright 1988, Gaussian, Inc.),
 the Gaussian 86(TM) system (copyright 1986, Carnegie Mellon
 University), and the Gaussian 82(TM) system (copyright 1983,
 Carnegie Mellon University). Gaussian is a federally registered
 trademark of Gaussian, Inc.
  
 This software contains proprietary and confidential information,
 including trade secrets, belonging to Gaussian, Inc.
  
 This software is provided under written license and may be
 used, copied, transmitted, or stored only in accord with that
 written license.
  
 The following legend is applicable only to US Government
 contracts under FAR:
  
                    RESTRICTED RIGHTS LEGEND
  
 Use, reproduction and disclosure by the US Government is
 subject to restrictions as set forth in subparagraphs (a)
 and (c) of the Commercial Computer Software - Restricted
 Rights clause in FAR 52.227-19.
  
 Gaussian, Inc.
 340 Quinnipiac St., Bldg. 40, Wallingford CT 06492
  
  
 ---------------------------------------------------------------
 Warning -- This program may not be used in any manner that
 competes with the business of Gaussian, Inc. or will provide
 assistance to any competitor of Gaussian, Inc.  The licensee
 of this program is prohibited from giving any competitor of
 Gaussian, Inc. access to this program.  By using this program,
 the user acknowledges that Gaussian, Inc. is engaged in the
 business of creating and licensing software in the field of
 computational chemistry and represents and warrants to the
 licensee that it is not a competitor of Gaussian, Inc. and that
 it will not use this program in any manner prohibited above.
 ---------------------------------------------------------------
  

 Cite this work as:
 Gaussian 09, Revision E.01,
 M. J. Frisch, G. W. Trucks, H. B. Schlegel, G. E. Scuseria, 
 M. A. Robb, J. R. Cheeseman, G. Scalmani, V. Barone, B. Mennucci, 
 G. A. Petersson, H. Nakatsuji, M. Caricato, X. Li, H. P. Hratchian, 
 A. F. Izmaylov, J. Bloino, G. Zheng, J. L. Sonnenberg, M. Hada, 
 M. Ehara, K. Toyota, R. Fukuda, J. Hasegawa, M. Ishida, T. Nakajima, 
 Y. Honda, O. Kitao, H. Nakai, T. Vreven, J. A. Montgomery, Jr., 
 J. E. Peralta, F. Ogliaro, M. Bearpark, J. J. Heyd, E. Brothers, 
 K. N. Kudin, V. N. Staroverov, T. Keith, R. Kobayashi, J. Normand, 
 K. Raghavachari, A. Rendell, J. C. Burant, S. S. Iyengar, J. Tomasi, 
 M. Cossi, N. Rega, J. M. Millam, M. Klene, J. E. Knox, J. B. Cross, 
 V. Bakken, C. Adamo, J. Jaramillo, R. Gomperts, R. E. Stratmann, 
 O. Yazyev, A. J. Austin, R. Cammi, C. Pomelli, J. W. Ochterski, 
 R. L. Martin, K. Morokuma, V. G. Zakrzewski, G. A. Voth, 
 P. Salvador, J. J. Dannenberg, S. Dapprich, A. D. Daniels, 
 O. Farkas, J. B. Foresman, J. V. Ortiz, J. Cioslowski, 
 and D. J. Fox, Gaussian, Inc., Wallingford CT, 2013.
 
 ******************************************
 Gaussian 09:  ES64L-G09RevE.01 30-Nov-2015
                28-Jun-2022 
 ******************************************
 %chk=cp.chk
 Default route:  MaxDisk=500GB
 ----------------------------------------------------------------------
 #p PBEPBE/def2TZVP td=(NStates=50) int=ultrafine scrf=(SMD,solvent=Ace
 tonitrile) EmpiricalDispersion=GD3BJ
 ----------------------------------------------------------------------
 1/38=1/1;
 2/12=2,17=6,18=5,40=1/2;
 3/5=44,7=101,11=9,16=1,25=1,30=1,70=32201,72=2,74=1009,75=-5,124=41/1,2,8,3;
 4//1;
 5/5=2,38=5,53=2/2;
 8/6=1,10=1,108=50/1;
 9/41=50,42=1,70=2/14;
 6/7=2,8=2,9=2,10=2/1;
 99/5=1,9=1/99;
 Leave Link    1 at Tue Jun 28 22:41:52 2022, MaxMem=           0 cpu:         2.1
 (Enter /opt/nce/packages/global/g09/l101.exe)
 -----
 Title
 -----
 Symbolic Z-matrix:
 Charge =  0 Multiplicity = 1
 C                    -0.12867   1.18007   0.3198 
 C                     0.57991   0.00181  -0.00968 
 C                    -0.14594  -1.16332  -0.35338 
 C                    -1.56023  -1.13318  -0.38833 
 C                    -2.26977   0.02263  -0.01029 
 C                    -1.54348   1.17095   0.35602 
 C                    -2.26902  -2.23995  -0.93221 
 C                    -2.23329   2.29337   0.89222 
 N                    -2.85305  -3.13164  -1.4032 
 N                    -2.80125   3.1993    1.35561 
 N                     0.53816   2.36582   0.65812 
 C                     1.48137   2.53503   1.68555 
 C                     0.42705   3.57545  -0.05548 
 C                     1.86295   1.64656   2.69028 
 C                     1.99164   3.85842   1.61645 
 C                    -0.34671   3.87214  -1.17798 
 C                     1.32461   4.51656   0.51187 
 C                     2.81936   2.08538   3.60742 
 H                     1.43293   0.64894   2.76793 
 C                     2.94499   4.27722   2.553 
 C                    -0.22767   5.15355  -1.71948 
 H                    -1.01233   3.13578  -1.63013 
 C                     1.42796   5.79419  -0.05272 
 C                     3.36229   3.38077   3.53678 
 H                     3.1452    1.40633   4.39726 
 H                     3.34785   5.29098   2.51413 
 C                     0.6448    6.10615  -1.16372 
 H                    -0.82457   5.41534  -2.59477 
 H                     2.11763   6.52835   0.36793 
 H                     4.1087    3.69042   4.27008 
 H                     0.71283   7.09811  -1.61321 
 N                     1.9858   -0.01581   0.01221 
 C                     2.77797  -0.84851   0.82111 
 C                     2.83337   0.79165  -0.76501 
 C                     2.38909  -1.76572   1.79753 
 C                     4.145    -0.57272   0.55403 
 C                     2.51142   1.72595  -1.7495 
 C                     4.18013   0.47031  -0.4491 
 C                     3.397    -2.44855   2.48025 
 H                     1.34123  -1.94097   2.03715 
 C                     5.13837  -1.26706   1.25643 
 C                     3.56586   2.37654  -2.39222 
 H                     1.47921   1.93933  -2.02375 
 C                     5.22102   1.13322  -1.11171 
 C                     4.75644  -2.21046   2.20985 
 H                     3.11805  -3.17791   3.2428 
 H                     6.19352  -1.065     1.06266 
 C                     4.90597   2.09165  -2.07447 
 H                     3.33932   3.11846  -3.15998 
 H                     6.26102   0.89623  -0.87948 
 H                     5.51871  -2.76285   2.76173 
 H                     5.70574   2.62016  -2.59579 
 N                     0.50627  -2.35371  -0.70203 
 C                     0.3745   -3.57462  -0.01028 
 C                     1.46989  -2.51285  -1.71276 
 C                    -0.42867  -3.88803   1.0865 
 C                     1.28214  -4.50985  -0.57103 
 C                     1.87021  -1.61411  -2.70082 
 C                     1.97506  -3.83826  -1.65126 
 C                    -0.32625  -5.17804   1.61056 
 H                    -1.1061   -3.15796   1.53071 
 C                     1.36859  -5.79657  -0.02459 
 C                     2.84309  -2.04357  -3.60499 
 H                     1.44009  -0.61641  -2.77803 
 C                     2.94545  -4.24782  -2.57424 
 C                     0.55798  -6.1239    1.06197 
 H                    -0.94669  -5.45268   2.4653 
 H                     2.06576  -6.52607  -0.4409 
 C                     3.38349  -3.34021  -3.53856 
 H                     3.18371  -1.35622  -4.38134 
 H                     3.34499  -5.26306  -2.54041 
 H                     0.61219  -7.12321   1.49682 
 H                     4.14308  -3.64265  -4.26128 
 N                    -3.66953   0.02635   0.00402 
 C                    -4.49919   0.87954  -0.74605 
 C                    -4.47855  -0.8361    0.76582 
 C                    -4.15211   1.86831  -1.66748 
 C                    -5.85174   0.55475  -0.46118 
 C                    -4.10486  -1.81681   1.68533 
 C                    -5.83856  -0.53      0.4986 
 C                    -5.1936    2.55488  -2.29435 
 H                    -3.11214   2.10276  -1.89715 
 C                    -6.87765   1.25718  -1.1065 
 C                    -5.12784  -2.51803   2.3261 
 H                    -3.0581   -2.03213   1.90308 
 C                    -6.84577  -1.24675   1.15759 
 C                    -6.54004   2.25824  -2.01665 
 H                    -4.95242   3.33747  -3.0157 
 H                    -7.92278   1.01851  -0.90085 
 C                    -6.48192  -2.2422    2.06386 
 H                    -4.86604  -3.29505   3.04627 
 H                    -7.89689  -1.02376   0.96531 
 H                    -7.32802   2.81591  -2.52541 
 H                    -7.25521  -2.81104   2.58269 
 
 NAtoms=     94 NQM=       94 NQMF=       0 NMMI=      0 NMMIF=      0
                NMic=       0 NMicF=      0.
                    Isotopes and Nuclear Properties:
 (Nuclear quadrupole moments (NQMom) in fm**2, nuclear magnetic moments (NMagM)
  in nuclear magnetons)

  Atom         1           2           3           4           5           6           7           8           9          10
 IAtWgt=          12          12          12          12          12          12          12          12          14          14
 AtmWgt=  12.0000000  12.0000000  12.0000000  12.0000000  12.0000000  12.0000000  12.0000000  12.0000000  14.0030740  14.0030740
 NucSpn=           0           0           0           0           0           0           0           0           2           2
 AtZEff=   0.0000000   0.0000000   0.0000000   0.0000000   0.0000000   0.0000000   0.0000000   0.0000000   0.0000000   0.0000000
 NQMom=    0.0000000   0.0000000   0.0000000   0.0000000   0.0000000   0.0000000   0.0000000   0.0000000   2.0440000   2.0440000
 NMagM=    0.0000000   0.0000000   0.0000000   0.0000000   0.0000000   0.0000000   0.0000000   0.0000000   0.4037610   0.4037610
 AtZNuc=   6.0000000   6.0000000   6.0000000   6.0000000   6.0000000   6.0000000   6.0000000   6.0000000   7.0000000   7.0000000

  Atom        11          12          13          14          15          16          17          18          19          20
 IAtWgt=          14          12          12          12          12          12          12          12           1          12
 AtmWgt=  14.0030740  12.0000000  12.0000000  12.0000000  12.0000000  12.0000000  12.0000000  12.0000000   1.0078250  12.0000000
 NucSpn=           2           0           0           0           0           0           0           0           1           0
 AtZEff=   0.0000000   0.0000000   0.0000000   0.0000000   0.0000000   0.0000000   0.0000000   0.0000000   0.0000000   0.0000000
 NQMom=    2.0440000   0.0000000   0.0000000   0.0000000   0.0000000   0.0000000   0.0000000   0.0000000   0.0000000   0.0000000
 NMagM=    0.4037610   0.0000000   0.0000000   0.0000000   0.0000000   0.0000000   0.0000000   0.0000000   2.7928460   0.0000000
 AtZNuc=   7.0000000   6.0000000   6.0000000   6.0000000   6.0000000   6.0000000   6.0000000   6.0000000   1.0000000   6.0000000

  Atom        21          22          23          24          25          26          27          28          29          30
 IAtWgt=          12           1          12          12           1           1          12           1           1           1
 AtmWgt=  12.0000000   1.0078250  12.0000000  12.0000000   1.0078250   1.0078250  12.0000000   1.0078250   1.0078250   1.0078250
 NucSpn=           0           1           0           0           1           1           0           1           1           1
 AtZEff=   0.0000000   0.0000000   0.0000000   0.0000000   0.0000000   0.0000000   0.0000000   0.0000000   0.0000000   0.0000000
 NQMom=    0.0000000   0.0000000   0.0000000   0.0000000   0.0000000   0.0000000   0.0000000   0.0000000   0.0000000   0.0000000
 NMagM=    0.0000000   2.7928460   0.0000000   0.0000000   2.7928460   2.7928460   0.0000000   2.7928460   2.7928460   2.7928460
 AtZNuc=   6.0000000   1.0000000   6.0000000   6.0000000   1.0000000   1.0000000   6.0000000   1.0000000   1.0000000   1.0000000

  Atom        31          32          33          34          35          36          37          38          39          40
 IAtWgt=           1          14          12          12          12          12          12          12          12           1
 AtmWgt=   1.0078250  14.0030740  12.0000000  12.0000000  12.0000000  12.0000000  12.0000000  12.0000000  12.0000000   1.0078250
 NucSpn=           1           2           0           0           0           0           0           0           0           1
 AtZEff=   0.0000000   0.0000000   0.0000000   0.0000000   0.0000000   0.0000000   0.0000000   0.0000000   0.0000000   0.0000000
 NQMom=    0.0000000   2.0440000   0.0000000   0.0000000   0.0000000   0.0000000   0.0000000   0.0000000   0.0000000   0.0000000
 NMagM=    2.7928460   0.4037610   0.0000000   0.0000000   0.0000000   0.0000000   0.0000000   0.0000000   0.0000000   2.7928460
 AtZNuc=   1.0000000   7.0000000   6.0000000   6.0000000   6.0000000   6.0000000   6.0000000   6.0000000   6.0000000   1.0000000

  Atom        41          42          43          44          45          46          47          48          49          50
 IAtWgt=          12          12           1          12          12           1           1          12           1           1
 AtmWgt=  12.0000000  12.0000000   1.0078250  12.0000000  12.0000000   1.0078250   1.0078250  12.0000000   1.0078250   1.0078250
 NucSpn=           0           0           1           0           0           1           1           0           1           1
 AtZEff=   0.0000000   0.0000000   0.0000000   0.0000000   0.0000000   0.0000000   0.0000000   0.0000000   0.0000000   0.0000000
 NQMom=    0.0000000   0.0000000   0.0000000   0.0000000   0.0000000   0.0000000   0.0000000   0.0000000   0.0000000   0.0000000
 NMagM=    0.0000000   0.0000000   2.7928460   0.0000000   0.0000000   2.7928460   2.7928460   0.0000000   2.7928460   2.7928460
 AtZNuc=   6.0000000   6.0000000   1.0000000   6.0000000   6.0000000   1.0000000   1.0000000   6.0000000   1.0000000   1.0000000

  Atom        51          52          53          54          55          56          57          58          59          60
 IAtWgt=           1           1          14          12          12          12          12          12          12          12
 AtmWgt=   1.0078250   1.0078250  14.0030740  12.0000000  12.0000000  12.0000000  12.0000000  12.0000000  12.0000000  12.0000000
 NucSpn=           1           1           2           0           0           0           0           0           0           0
 AtZEff=   0.0000000   0.0000000   0.0000000   0.0000000   0.0000000   0.0000000   0.0000000   0.0000000   0.0000000   0.0000000
 NQMom=    0.0000000   0.0000000   2.0440000   0.0000000   0.0000000   0.0000000   0.0000000   0.0000000   0.0000000   0.0000000
 NMagM=    2.7928460   2.7928460   0.4037610   0.0000000   0.0000000   0.0000000   0.0000000   0.0000000   0.0000000   0.0000000
 AtZNuc=   1.0000000   1.0000000   7.0000000   6.0000000   6.0000000   6.0000000   6.0000000   6.0000000   6.0000000   6.0000000

  Atom        61          62          63          64          65          66          67          68          69          70
 IAtWgt=           1          12          12           1          12          12           1           1          12           1
 AtmWgt=   1.0078250  12.0000000  12.0000000   1.0078250  12.0000000  12.0000000   1.0078250   1.0078250  12.0000000   1.0078250
 NucSpn=           1           0           0           1           0           0           1           1           0           1
 AtZEff=   0.0000000   0.0000000   0.0000000   0.0000000   0.0000000   0.0000000   0.0000000   0.0000000   0.0000000   0.0000000
 NQMom=    0.0000000   0.0000000   0.0000000   0.0000000   0.0000000   0.0000000   0.0000000   0.0000000   0.0000000   0.0000000
 NMagM=    2.7928460   0.0000000   0.0000000   2.7928460   0.0000000   0.0000000   2.7928460   2.7928460   0.0000000   2.7928460
 AtZNuc=   1.0000000   6.0000000   6.0000000   1.0000000   6.0000000   6.0000000   1.0000000   1.0000000   6.0000000   1.0000000

  Atom        71          72          73          74          75          76          77          78          79          80
 IAtWgt=           1           1           1          14          12          12          12          12          12          12
 AtmWgt=   1.0078250   1.0078250   1.0078250  14.0030740  12.0000000  12.0000000  12.0000000  12.0000000  12.0000000  12.0000000
 NucSpn=           1           1           1           2           0           0           0           0           0           0
 AtZEff=   0.0000000   0.0000000   0.0000000   0.0000000   0.0000000   0.0000000   0.0000000   0.0000000   0.0000000   0.0000000
 NQMom=    0.0000000   0.0000000   0.0000000   2.0440000   0.0000000   0.0000000   0.0000000   0.0000000   0.0000000   0.0000000
 NMagM=    2.7928460   2.7928460   2.7928460   0.4037610   0.0000000   0.0000000   0.0000000   0.0000000   0.0000000   0.0000000
 AtZNuc=   1.0000000   1.0000000   1.0000000   7.0000000   6.0000000   6.0000000   6.0000000   6.0000000   6.0000000   6.0000000

  Atom        81          82          83          84          85          86          87          88          89          90
 IAtWgt=          12           1          12          12           1          12          12           1           1          12
 AtmWgt=  12.0000000   1.0078250  12.0000000  12.0000000   1.0078250  12.0000000  12.0000000   1.0078250   1.0078250  12.0000000
 NucSpn=           0           1           0           0           1           0           0           1           1           0
 AtZEff=   0.0000000   0.0000000   0.0000000   0.0000000   0.0000000   0.0000000   0.0000000   0.0000000   0.0000000   0.0000000
 NQMom=    0.0000000   0.0000000   0.0000000   0.0000000   0.0000000   0.0000000   0.0000000   0.0000000   0.0000000   0.0000000
 NMagM=    0.0000000   2.7928460   0.0000000   0.0000000   2.7928460   0.0000000   0.0000000   2.7928460   2.7928460   0.0000000
 AtZNuc=   6.0000000   1.0000000   6.0000000   6.0000000   1.0000000   6.0000000   6.0000000   1.0000000   1.0000000   6.0000000

  Atom        91          92          93          94
 IAtWgt=           1           1           1           1
 AtmWgt=   1.0078250   1.0078250   1.0078250   1.0078250
 NucSpn=           1           1           1           1
 AtZEff=   0.0000000   0.0000000   0.0000000   0.0000000
 NQMom=    0.0000000   0.0000000   0.0000000   0.0000000
 NMagM=    2.7928460   2.7928460   2.7928460   2.7928460
 AtZNuc=   1.0000000   1.0000000   1.0000000   1.0000000
 Leave Link  101 at Tue Jun 28 22:41:52 2022, MaxMem=  5242880000 cpu:         1.2
 (Enter /opt/nce/packages/global/g09/l202.exe)
 Stoichiometry    C56H32N6
 Framework group  C1[X(C56H32N6)]
 Deg. of freedom   276
 Full point group                 C1      NOp   1
 Largest Abelian subgroup         C1      NOp   1
 Largest concise Abelian subgroup C1      NOp   1
                         Standard orientation:                         
 ---------------------------------------------------------------------
 Center     Atomic      Atomic             Coordinates (Angstroms)
 Number     Number       Type             X           Y           Z
 ---------------------------------------------------------------------
      1          6           0       -0.128667    1.180066    0.319796
      2          6           0        0.579910    0.001814   -0.009680
      3          6           0       -0.145944   -1.163319   -0.353380
      4          6           0       -1.560225   -1.133178   -0.388333
      5          6           0       -2.269771    0.022627   -0.010290
      6          6           0       -1.543483    1.170949    0.356024
      7          6           0       -2.269017   -2.239954   -0.932205
      8          6           0       -2.233287    2.293372    0.892217
      9          7           0       -2.853048   -3.131636   -1.403201
     10          7           0       -2.801245    3.199304    1.355606
     11          7           0        0.538161    2.365821    0.658121
     12          6           0        1.481365    2.535026    1.685549
     13          6           0        0.427050    3.575449   -0.055479
     14          6           0        1.862948    1.646563    2.690283
     15          6           0        1.991640    3.858423    1.616448
     16          6           0       -0.346711    3.872136   -1.177979
     17          6           0        1.324613    4.516556    0.511869
     18          6           0        2.819358    2.085378    3.607419
     19          1           0        1.432932    0.648943    2.767929
     20          6           0        2.944994    4.277217    2.553004
     21          6           0       -0.227673    5.153545   -1.719478
     22          1           0       -1.012333    3.135775   -1.630130
     23          6           0        1.427958    5.794190   -0.052724
     24          6           0        3.362294    3.380773    3.536778
     25          1           0        3.145201    1.406332    4.397259
     26          1           0        3.347854    5.290983    2.514130
     27          6           0        0.644796    6.106150   -1.163716
     28          1           0       -0.824569    5.415338   -2.594774
     29          1           0        2.117630    6.528346    0.367929
     30          1           0        4.108696    3.690418    4.270081
     31          1           0        0.712833    7.098114   -1.613208
     32          7           0        1.985798   -0.015811    0.012213
     33          6           0        2.777970   -0.848509    0.821112
     34          6           0        2.833370    0.791646   -0.765007
     35          6           0        2.389091   -1.765720    1.797527
     36          6           0        4.144999   -0.572717    0.554026
     37          6           0        2.511422    1.725950   -1.749498
     38          6           0        4.180134    0.470305   -0.449104
     39          6           0        3.396996   -2.448554    2.480250
     40          1           0        1.341234   -1.940968    2.037149
     41          6           0        5.138368   -1.267064    1.256426
     42          6           0        3.565855    2.376541   -2.392218
     43          1           0        1.479208    1.939330   -2.023754
     44          6           0        5.221018    1.133223   -1.111714
     45          6           0        4.756444   -2.210460    2.209849
     46          1           0        3.118048   -3.177907    3.242803
     47          1           0        6.193517   -1.065001    1.062659
     48          6           0        4.905967    2.091648   -2.074468
     49          1           0        3.339323    3.118460   -3.159980
     50          1           0        6.261021    0.896227   -0.879482
     51          1           0        5.518710   -2.762854    2.761729
     52          1           0        5.705742    2.620163   -2.595787
     53          7           0        0.506271   -2.353711   -0.702029
     54          6           0        0.374500   -3.574619   -0.010281
     55          6           0        1.469893   -2.512850   -1.712759
     56          6           0       -0.428669   -3.888033    1.086496
     57          6           0        1.282138   -4.509848   -0.571034
     58          6           0        1.870208   -1.614111   -2.700822
     59          6           0        1.975055   -3.838261   -1.651262
     60          6           0       -0.326248   -5.178041    1.610562
     61          1           0       -1.106101   -3.157955    1.530712
     62          6           0        1.368589   -5.796565   -0.024586
     63          6           0        2.843092   -2.043571   -3.604989
     64          1           0        1.440088   -0.616411   -2.778029
     65          6           0        2.945453   -4.247816   -2.574243
     66          6           0        0.557980   -6.123896    1.061968
     67          1           0       -0.946689   -5.452684    2.465302
     68          1           0        2.065758   -6.526074   -0.440899
     69          6           0        3.383491   -3.340206   -3.538564
     70          1           0        3.183705   -1.356224   -4.381343
     71          1           0        3.344992   -5.263058   -2.540408
     72          1           0        0.612186   -7.123211    1.496819
     73          1           0        4.143078   -3.642654   -4.261284
     74          7           0       -3.669529    0.026352    0.004020
     75          6           0       -4.499192    0.879542   -0.746047
     76          6           0       -4.478546   -0.836096    0.765817
     77          6           0       -4.152106    1.868306   -1.667483
     78          6           0       -5.851735    0.554751   -0.461182
     79          6           0       -4.104858   -1.816811    1.685331
     80          6           0       -5.838560   -0.529999    0.498597
     81          6           0       -5.193597    2.554881   -2.294354
     82          1           0       -3.112145    2.102764   -1.897151
     83          6           0       -6.877645    1.257181   -1.106502
     84          6           0       -5.127842   -2.518025    2.326103
     85          1           0       -3.058101   -2.032132    1.903080
     86          6           0       -6.845774   -1.246747    1.157592
     87          6           0       -6.540042    2.258242   -2.016653
     88          1           0       -4.952417    3.337474   -3.015701
     89          1           0       -7.922776    1.018509   -0.900848
     90          6           0       -6.481922   -2.242199    2.063865
     91          1           0       -4.866042   -3.295054    3.046268
     92          1           0       -7.896889   -1.023756    0.965309
     93          1           0       -7.328019    2.815911   -2.525408
     94          1           0       -7.255208   -2.811042    2.582686
 ---------------------------------------------------------------------
 Rotational constants (GHZ):      0.0561345      0.0447944      0.0319974
 Leave Link  202 at Tue Jun 28 22:41:52 2022, MaxMem=  5242880000 cpu:         0.1
 (Enter /opt/nce/packages/global/g09/l301.exe)
 Standard basis: def2TZVP (5D, 7F)
 Ernie: Thresh=  0.10000D-02 Tol=  0.10000D-05 Strict=F.
 There are  2424 symmetry adapted cartesian basis functions of A   symmetry.
 There are  2114 symmetry adapted basis functions of A   symmetry.
  2114 basis functions,  3418 primitive gaussians,  2424 cartesian basis functions
   205 alpha electrons      205 beta electrons
       nuclear repulsion energy      8800.5773266650 Hartrees.
 IExCor= 1009 DFT=T Ex=PBE Corr=PBE ExCW=0 ScaHFX=  0.000000
 ScaDFX=  1.000000  1.000000  1.000000  1.000000 ScalE2=  1.000000  1.000000
 IRadAn=      5 IRanWt=     -1 IRanGd=            0 ICorTp=0 IEmpDi=141
 NAtoms=   94 NActive=   94 NUniq=   94 SFac= 1.00D+00 NAtFMM=   60 NAOKFM=T Big=T
 Integral buffers will be    131072 words long.
 Regular integral format.
 Two-electron integral symmetry is turned on.
 R6Disp:  Grimme-D3(BJ) Dispersion energy=       -0.1825428137 Hartrees.
 Nuclear repulsion after empirical dispersion term =     8800.3947838513 Hartrees.
 ------------------------------------------------------------------------------
 Polarizable Continuum Model (PCM)
 =================================
 Model                : PCM (using non-symmetric T matrix).
 Atomic radii         : SMD-Coulomb.
 Polarization charges : Total charges.
 Charge compensation  : None.
 Solution method      : On-the-fly selection.
 Cavity type          : VdW (van der Waals Surface) (Alpha=1.000).
 Cavity algorithm     : GePol (No added spheres)
                        Default sphere list used, NSphG=   94.
                        Lebedev-Laikov grids with approx.  5.0 points / Ang**2.
                        Smoothing algorithm: York/Karplus (Gamma=1.0000).
                        Polarization charges: spherical gaussians, with
                                              point-specific exponents (IZeta= 3).
                        Self-potential: point-specific (ISelfS= 7).
                        Self-field    : sphere-specific E.n sum rule (ISelfD= 2).
 Solvent              : Acetonitrile, Eps=  35.688000 Eps(inf)=   1.806874
 ------------------------------------------------------------------------------
 GePol: Number of generator spheres                  =      94
 GePol: Total number of spheres                      =      94
 GePol: Number of exposed spheres                    =      94 (100.00%)
 GePol: Number of points                             =    7046
 GePol: Average weight of points                     =       0.11
 GePol: Minimum weight of points                     =   0.29D-11
 GePol: Maximum weight of points                     =    0.17992
 GePol: Number of points with low weight             =     414
 GePol: Fraction of low-weight points (<1% of avg)   =       5.88%
 GePol: Cavity surface area                          =    745.981 Ang**2
 GePol: Cavity volume                                =    785.140 Ang**3
 ------------------------------------------------------------------------------
 Atomic radii for non-electrostatic terms: SMD-CDS.
 ------------------------------------------------------------------------------
 PCM non-electrostatic energy =        -0.0156688510 Hartrees.
 Nuclear repulsion after PCM non-electrostatic terms =     8800.3791150003 Hartrees.
 Leave Link  301 at Tue Jun 28 22:41:52 2022, MaxMem=  5242880000 cpu:         2.7
 (Enter /opt/nce/packages/global/g09/l302.exe)
 NPDir=0 NMtPBC=     1 NCelOv=     1 NCel=       1 NClECP=     1 NCelD=      1
         NCelK=      1 NCelE2=     1 NClLst=     1 CellRange=     0.0.
 One-electron integrals computed using PRISM.
   1 Symmetry operations used in ECPInt.
 ECPInt:  NShTT=  328455 NPrTT= 1027488 LenC2=  241391 LenP2D=  484541.
 LDataN:  DoStor=T MaxTD1= 6 Len=  172
 NBasis=  2114 RedAO= T EigKep=  2.74D-06  NBF=  2114
 NBsUse=  2113 1.00D-06 EigRej=  7.18D-07 NBFU=  2113
 Precomputing XC quadrature grid using
 IXCGrd= 4 IRadAn=           5 IRanWt=          -1 IRanGd=           0 AccXCQ= 0.00D+00.
 Generated NRdTot=       0 NPtTot=           0 NUsed=           0 NTot=          32
 NSgBfM=  2305  2305  2306  2306  2306 MxSgAt=    94 MxSgA2=    94.
 Leave Link  302 at Tue Jun 28 22:42:05 2022, MaxMem=  5242880000 cpu:       149.5
 (Enter /opt/nce/packages/global/g09/l308.exe)
 Leave Link  308 at Tue Jun 28 22:42:07 2022, MaxMem=  5242880000 cpu:        18.7
 (Enter /opt/nce/packages/global/g09/l303.exe)
 DipDrv:  MaxL=1.
 Leave Link  303 at Tue Jun 28 22:42:08 2022, MaxMem=  5242880000 cpu:        10.2
 (Enter /opt/nce/packages/global/g09/l401.exe)
 ExpMin= 9.52D-02 ExpMax= 1.97D+04 ExpMxC= 6.73D+02 IAcc=3 IRadAn=         5 AccDes= 0.00D+00
 Harris functional with IExCor= 1009 and IRadAn=       5 diagonalized for initial guess.
 HarFok:  IExCor= 1009 AccDes= 0.00D+00 IRadAn=         5 IDoV= 1 UseB2=F ITyADJ=14
 ICtDFT=  3500011 ScaDFX=  1.000000  1.000000  1.000000  1.000000
 FoFCou: FMM=F IPFlag=           0 FMFlag=      100000 FMFlg1=        2001
         NFxFlg=           0 DoJE=T BraDBF=F KetDBF=T FulRan=T
         wScrn=  0.000000 ICntrl=     500 IOpCl=  0 I1Cent=   200000004 NGrid=           0
         NMat0=    1 NMatS0=      1 NMatT0=    0 NMatD0=    1 NMtDS0=    0 NMtDT0=    0
 Petite list used in FoFCou.
 Harris En= -2480.58936643750    
 JPrj=0 DoOrth=F DoCkMO=F.
 Leave Link  401 at Tue Jun 28 22:42:46 2022, MaxMem=  5242880000 cpu:       461.1
 (Enter /opt/nce/packages/global/g09/l502.exe)
 Closed shell SCF:
 Using DIIS extrapolation, IDIIS=  1040.
 Integral symmetry usage will be decided dynamically.
 IVT=    17692622 IEndB=    17692622 NGot=  5242880000 MDV=  5231082219
 LenX=  5231082219 LenY=  5225204019
 Requested convergence on RMS density matrix=1.00D-08 within 128 cycles.
 Requested convergence on MAX density matrix=1.00D-06.
 Requested convergence on             energy=1.00D-06.
 No special actions if energy rises.
 Fock matrices will be formed incrementally for  20 cycles.

 Cycle   1  Pass 1  IDiag  1:
 FoFJK:  IHMeth= 1 ICntrl=     500 DoSepK=F KAlg= 0 I1Cent=   0 FoldK=F
 IRaf= 670000000 NMat=   1 IRICut=       1 DoRegI=T DoRafI=F ISym2E= 0.
 FoFCou: FMM=T IPFlag=           0 FMFlag=      100000 FMFlg1=        2001
         NFxFlg=           0 DoJE=T BraDBF=F KetDBF=F FulRan=T
         wScrn=  0.000000 ICntrl=     500 IOpCl=  0 I1Cent=           0 NGrid=           0
         NMat0=    1 NMatS0=      1 NMatT0=    0 NMatD0=    1 NMtDS0=    0 NMtDT0=    0
 Symmetry not used in FoFCou.
 FMM levels:  10  Number of levels for PrismC:   9
 Inv3:  Mode=1 IEnd=   148938348.
 Iteration    1 A*A^-1 deviation from unit magnitude is 7.22D-15 for   7037.
 Iteration    1 A*A^-1 deviation from orthogonality  is 4.66D-15 for   7016   2135.
 Iteration    1 A^-1*A deviation from unit magnitude is 7.22D-15 for   7037.
 Iteration    1 A^-1*A deviation from orthogonality  is 9.74D-09 for   2832   2809.
 Iteration    2 A*A^-1 deviation from unit magnitude is 2.44D-15 for   5048.
 Iteration    2 A*A^-1 deviation from orthogonality  is 3.35D-15 for   2042    307.
 Iteration    2 A^-1*A deviation from unit magnitude is 1.33D-15 for    357.
 Iteration    2 A^-1*A deviation from orthogonality  is 3.38D-16 for   3591   2191.
 E= -2478.76837750869    
 DIIS: error= 1.58D-02 at cycle   1 NSaved=   1.
 NSaved= 1 IEnMin= 1 EnMin= -2478.76837750869     IErMin= 1 ErrMin= 1.58D-02
 ErrMax= 1.58D-02  0.00D+00 EMaxC= 1.00D-01 BMatC= 1.04D+00 BMatP= 1.04D+00
 IDIUse=3 WtCom= 8.42D-01 WtEn= 1.58D-01
 Coeff-Com:  0.100D+01
 Coeff-En:   0.100D+01
 Coeff:      0.100D+01
 Gap=     0.203 Goal=   None    Shift=    0.000
 GapD=    0.203 DampG=1.000 DampE=0.500 DampFc=0.5000 IDamp=-1.
 Damping current iteration by 5.00D-01
 RMSDP=2.84D-03 MaxDP=5.54D-01              OVMax= 6.16D-01

 Cycle   2  Pass 1  IDiag  1:
 RMSU=  1.42D-03    CP:  9.87D-01
 E= -2478.58710916500     Delta-E=        0.181268343686 Rises=F Damp=T
 DIIS: error= 1.02D-02 at cycle   2 NSaved=   2.
 NSaved= 2 IEnMin= 1 EnMin= -2478.76837750869     IErMin= 2 ErrMin= 1.02D-02
 ErrMax= 1.02D-02  0.00D+00 EMaxC= 1.00D-01 BMatC= 3.80D-01 BMatP= 1.04D+00
 IDIUse=3 WtCom= 8.98D-01 WtEn= 1.02D-01
 Coeff-Com:  0.327D+00 0.673D+00
 Coeff-En:   0.561D+00 0.439D+00
 Coeff:      0.351D+00 0.649D+00
 Gap=     0.091 Goal=   None    Shift=    0.000
 RMSDP=1.26D-03 MaxDP=1.86D-01 DE= 1.81D-01 OVMax= 6.84D-01

 Cycle   3  Pass 1  IDiag  1:
 RMSU=  1.08D-03    CP:  9.27D-01  5.81D-01
 E= -2479.22309525990     Delta-E=       -0.635986094894 Rises=F Damp=F
 DIIS: error= 1.52D-02 at cycle   3 NSaved=   3.
 NSaved= 3 IEnMin= 3 EnMin= -2479.22309525990     IErMin= 2 ErrMin= 1.02D-02
 ErrMax= 1.52D-02  0.00D+00 EMaxC= 1.00D-01 BMatC= 4.99D-01 BMatP= 3.80D-01
 IDIUse=2 WtCom= 0.00D+00 WtEn= 1.00D+00
 EnCoef did     1 forward-backward iterations
 Coeff-En:   0.270D-01 0.281D+00 0.692D+00
 Coeff:      0.270D-01 0.281D+00 0.692D+00
 Gap=     0.191 Goal=   None    Shift=    0.000
 RMSDP=1.35D-03 MaxDP=1.64D-01 DE=-6.36D-01 OVMax= 3.53D-01

 Cycle   4  Pass 1  IDiag  1:
 RMSU=  8.94D-04    CP:  9.42D-01  9.09D-01  1.67D-01
 E= -2478.70187329520     Delta-E=        0.521221964698 Rises=F Damp=F
 DIIS: error= 2.12D-02 at cycle   4 NSaved=   4.
 NSaved= 4 IEnMin= 3 EnMin= -2479.22309525990     IErMin= 2 ErrMin= 1.02D-02
 ErrMax= 2.12D-02  0.00D+00 EMaxC= 1.00D-01 BMatC= 1.01D+00 BMatP= 3.80D-01
 IDIUse=2 WtCom= 0.00D+00 WtEn= 1.00D+00
 Coeff-En:   0.000D+00 0.000D+00 0.609D+00 0.391D+00
 Coeff:      0.000D+00 0.000D+00 0.609D+00 0.391D+00
 Gap=     0.038 Goal=   None    Shift=    0.000
 RMSDP=1.02D-03 MaxDP=1.98D-01 DE= 5.21D-01 OVMax= 2.54D-01

 Cycle   5  Pass 1  IDiag  1:
 RMSU=  5.17D-04    CP:  9.32D-01  4.71D-01  3.81D-01  3.56D-01
 E= -2479.73573349218     Delta-E=       -1.033860196983 Rises=F Damp=F
 DIIS: error= 5.22D-03 at cycle   5 NSaved=   5.
 NSaved= 5 IEnMin= 5 EnMin= -2479.73573349218     IErMin= 5 ErrMin= 5.22D-03
 ErrMax= 5.22D-03  0.00D+00 EMaxC= 1.00D-01 BMatC= 8.52D-02 BMatP= 3.80D-01
 IDIUse=3 WtCom= 9.48D-01 WtEn= 5.22D-02
 Coeff-Com:  0.395D-01 0.680D-01 0.362D+00 0.225D+00 0.305D+00
 Coeff-En:   0.000D+00 0.000D+00 0.380D-01 0.000D+00 0.962D+00
 Coeff:      0.374D-01 0.644D-01 0.345D+00 0.214D+00 0.339D+00
 Gap=     0.077 Goal=   None    Shift=    0.000
 RMSDP=3.64D-04 MaxDP=4.84D-02 DE=-1.03D+00 OVMax= 9.55D-02

 Cycle   6  Pass 1  IDiag  1:
 RMSU=  1.46D-04    CP:  9.31D-01  5.63D-01  5.35D-01  3.94D-01  5.04D-01
 E= -2479.81051297568     Delta-E=       -0.074779483495 Rises=F Damp=F
 DIIS: error= 2.85D-03 at cycle   6 NSaved=   6.
 NSaved= 6 IEnMin= 6 EnMin= -2479.81051297568     IErMin= 6 ErrMin= 2.85D-03
 ErrMax= 2.85D-03  0.00D+00 EMaxC= 1.00D-01 BMatC= 1.03D-02 BMatP= 8.52D-02
 IDIUse=3 WtCom= 9.72D-01 WtEn= 2.85D-02
 Coeff-Com: -0.588D-02 0.102D-01 0.779D-01 0.434D-01 0.247D+00 0.628D+00
 Coeff-En:   0.000D+00 0.000D+00 0.000D+00 0.000D+00 0.119D+00 0.881D+00
 Coeff:     -0.571D-02 0.989D-02 0.756D-01 0.421D-01 0.243D+00 0.635D+00
 Gap=     0.075 Goal=   None    Shift=    0.000
 RMSDP=8.80D-05 MaxDP=1.17D-02 DE=-7.48D-02 OVMax= 2.61D-02

 Cycle   7  Pass 1  IDiag  1:
 RMSU=  7.16D-05    CP:  9.32D-01  5.54D-01  5.23D-01  3.81D-01  5.65D-01
                    CP:  7.70D-01
 E= -2479.81585329566     Delta-E=       -0.005340319982 Rises=F Damp=F
 DIIS: error= 1.12D-03 at cycle   7 NSaved=   7.
 NSaved= 7 IEnMin= 7 EnMin= -2479.81585329566     IErMin= 7 ErrMin= 1.12D-03
 ErrMax= 1.12D-03  0.00D+00 EMaxC= 1.00D-01 BMatC= 3.92D-03 BMatP= 1.03D-02
 IDIUse=3 WtCom= 9.89D-01 WtEn= 1.12D-02
 Coeff-Com: -0.726D-02 0.727D-02 0.128D-01 0.889D-03 0.131D+00 0.487D+00
 Coeff-Com:  0.369D+00
 Coeff-En:   0.000D+00 0.000D+00 0.000D+00 0.000D+00 0.000D+00 0.336D+00
 Coeff-En:   0.664D+00
 Coeff:     -0.718D-02 0.718D-02 0.126D-01 0.879D-03 0.129D+00 0.485D+00
 Coeff:      0.373D+00
 Gap=     0.071 Goal=   None    Shift=    0.000
 RMSDP=4.85D-05 MaxDP=4.61D-03 DE=-5.34D-03 OVMax= 1.78D-02

 Cycle   8  Pass 1  IDiag  1:
 RMSU=  2.07D-05    CP:  9.32D-01  5.52D-01  5.19D-01  3.78D-01  5.87D-01
                    CP:  8.41D-01  4.30D-01
 E= -2479.81991840679     Delta-E=       -0.004065111132 Rises=F Damp=F
 DIIS: error= 2.74D-04 at cycle   8 NSaved=   8.
 NSaved= 8 IEnMin= 8 EnMin= -2479.81991840679     IErMin= 8 ErrMin= 2.74D-04
 ErrMax= 2.74D-04  0.00D+00 EMaxC= 1.00D-01 BMatC= 2.71D-04 BMatP= 3.92D-03
 IDIUse=3 WtCom= 9.97D-01 WtEn= 2.74D-03
 Coeff-Com: -0.451D-02 0.483D-02 0.296D-02-0.260D-02 0.713D-01 0.284D+00
 Coeff-Com:  0.259D+00 0.384D+00
 Coeff-En:   0.000D+00 0.000D+00 0.000D+00 0.000D+00 0.000D+00 0.000D+00
 Coeff-En:   0.246D-01 0.975D+00
 Coeff:     -0.450D-02 0.482D-02 0.295D-02-0.260D-02 0.711D-01 0.284D+00
 Coeff:      0.259D+00 0.386D+00
 Gap=     0.071 Goal=   None    Shift=    0.000
 RMSDP=1.31D-05 MaxDP=1.54D-03 DE=-4.07D-03 OVMax= 5.15D-03

 Cycle   9  Pass 1  IDiag  1:
 RMSU=  8.57D-06    CP:  9.32D-01  5.50D-01  5.18D-01  3.77D-01  5.95D-01
                    CP:  8.23D-01  4.63D-01  6.49D-01
 E= -2479.82018104571     Delta-E=       -0.000262638918 Rises=F Damp=F
 DIIS: error= 1.44D-04 at cycle   9 NSaved=   9.
 NSaved= 9 IEnMin= 9 EnMin= -2479.82018104571     IErMin= 9 ErrMin= 1.44D-04
 ErrMax= 1.44D-04  0.00D+00 EMaxC= 1.00D-01 BMatC= 2.51D-05 BMatP= 2.71D-04
 IDIUse=3 WtCom= 9.99D-01 WtEn= 1.44D-03
 Coeff-Com: -0.219D-02 0.316D-02 0.653D-03-0.191D-02 0.323D-01 0.127D+00
 Coeff-Com:  0.126D+00 0.256D+00 0.459D+00
 Coeff-En:   0.000D+00 0.000D+00 0.000D+00 0.000D+00 0.000D+00 0.000D+00
 Coeff-En:   0.000D+00 0.637D-01 0.936D+00
 Coeff:     -0.219D-02 0.316D-02 0.652D-03-0.191D-02 0.322D-01 0.127D+00
 Coeff:      0.126D+00 0.256D+00 0.460D+00
 Gap=     0.071 Goal=   None    Shift=    0.000
 RMSDP=3.67D-06 MaxDP=4.27D-04 DE=-2.63D-04 OVMax= 1.89D-03

 Cycle  10  Pass 1  IDiag  1:
 RMSU=  2.91D-06    CP:  9.32D-01  5.49D-01  5.17D-01  3.77D-01  5.95D-01
                    CP:  8.24D-01  4.56D-01  7.03D-01  7.93D-01
 E= -2479.82020413651     Delta-E=       -0.000023090804 Rises=F Damp=F
 DIIS: error= 3.27D-05 at cycle  10 NSaved=  10.
 NSaved=10 IEnMin=10 EnMin= -2479.82020413651     IErMin=10 ErrMin= 3.27D-05
 ErrMax= 3.27D-05  0.00D+00 EMaxC= 1.00D-01 BMatC= 3.39D-06 BMatP= 2.51D-05
 IDIUse=1 WtCom= 1.00D+00 WtEn= 0.00D+00
 Coeff-Com: -0.698D-03 0.847D-03-0.314D-03-0.673D-03 0.906D-02 0.299D-01
 Coeff-Com:  0.331D-01 0.925D-01 0.301D+00 0.535D+00
 Coeff:     -0.698D-03 0.847D-03-0.314D-03-0.673D-03 0.906D-02 0.299D-01
 Coeff:      0.331D-01 0.925D-01 0.301D+00 0.535D+00
 Gap=     0.071 Goal=   None    Shift=    0.000
 RMSDP=1.36D-06 MaxDP=1.28D-04 DE=-2.31D-05 OVMax= 4.34D-04

 Cycle  11  Pass 1  IDiag  1:
 RMSU=  8.42D-07    CP:  9.32D-01  5.50D-01  5.17D-01  3.77D-01  5.95D-01
                    CP:  8.24D-01  4.61D-01  7.07D-01  8.27D-01  7.55D-01
 E= -2479.82020734778     Delta-E=       -0.000003211271 Rises=F Damp=F
 DIIS: error= 9.19D-06 at cycle  11 NSaved=  11.
 NSaved=11 IEnMin=11 EnMin= -2479.82020734778     IErMin=11 ErrMin= 9.19D-06
 ErrMax= 9.19D-06  0.00D+00 EMaxC= 1.00D-01 BMatC= 2.48D-07 BMatP= 3.39D-06
 IDIUse=1 WtCom= 1.00D+00 WtEn= 0.00D+00
 Coeff-Com: -0.226D-03 0.224D-03-0.206D-03-0.175D-03 0.272D-02 0.633D-02
 Coeff-Com:  0.803D-02 0.312D-01 0.137D+00 0.301D+00 0.514D+00
 Coeff:     -0.226D-03 0.224D-03-0.206D-03-0.175D-03 0.272D-02 0.633D-02
 Coeff:      0.803D-02 0.312D-01 0.137D+00 0.301D+00 0.514D+00
 Gap=     0.071 Goal=   None    Shift=    0.000
 RMSDP=4.38D-07 MaxDP=8.79D-05 DE=-3.21D-06 OVMax= 1.27D-04

 Cycle  12  Pass 1  IDiag  1:
 RMSU=  2.81D-07    CP:  9.32D-01  5.50D-01  5.17D-01  3.77D-01  5.96D-01
                    CP:  8.24D-01  4.61D-01  7.11D-01  8.37D-01  7.88D-01
                    CP:  7.96D-01
 E= -2479.82020754782     Delta-E=       -0.000000200032 Rises=F Damp=F
 DIIS: error= 3.11D-06 at cycle  12 NSaved=  12.
 NSaved=12 IEnMin=12 EnMin= -2479.82020754782     IErMin=12 ErrMin= 3.11D-06
 ErrMax= 3.11D-06  0.00D+00 EMaxC= 1.00D-01 BMatC= 5.30D-08 BMatP= 2.48D-07
 IDIUse=1 WtCom= 1.00D+00 WtEn= 0.00D+00
 Coeff-Com: -0.332D-04 0.722D-05-0.920D-04 0.481D-05 0.262D-03-0.906D-03
 Coeff-Com: -0.429D-03 0.494D-02 0.397D-01 0.106D+00 0.346D+00 0.505D+00
 Coeff:     -0.332D-04 0.722D-05-0.920D-04 0.481D-05 0.262D-03-0.906D-03
 Coeff:     -0.429D-03 0.494D-02 0.397D-01 0.106D+00 0.346D+00 0.505D+00
 Gap=     0.071 Goal=   None    Shift=    0.000
 RMSDP=2.10D-07 MaxDP=4.50D-05 DE=-2.00D-07 OVMax= 4.75D-05

 Cycle  13  Pass 1  IDiag  1:
 RMSU=  1.38D-07    CP:  9.32D-01  5.50D-01  5.17D-01  3.77D-01  5.96D-01
                    CP:  8.23D-01  4.61D-01  7.12D-01  8.42D-01  7.88D-01
                    CP:  8.30D-01  6.70D-01
 E= -2479.82020759076     Delta-E=       -0.000000042943 Rises=F Damp=F
 DIIS: error= 2.78D-06 at cycle  13 NSaved=  13.
 NSaved=13 IEnMin=13 EnMin= -2479.82020759076     IErMin=13 ErrMin= 2.78D-06
 ErrMax= 2.78D-06  0.00D+00 EMaxC= 1.00D-01 BMatC= 1.01D-08 BMatP= 5.30D-08
 IDIUse=1 WtCom= 1.00D+00 WtEn= 0.00D+00
 Coeff-Com: -0.967D-05-0.644D-05-0.546D-04 0.146D-04 0.782D-05-0.998D-03
 Coeff-Com: -0.758D-03 0.168D-02 0.196D-01 0.553D-01 0.218D+00 0.372D+00
 Coeff-Com:  0.336D+00
 Coeff:     -0.967D-05-0.644D-05-0.546D-04 0.146D-04 0.782D-05-0.998D-03
 Coeff:     -0.758D-03 0.168D-02 0.196D-01 0.553D-01 0.218D+00 0.372D+00
 Coeff:      0.336D+00
 Gap=     0.071 Goal=   None    Shift=    0.000
 RMSDP=8.10D-08 MaxDP=1.27D-05 DE=-4.29D-08 OVMax= 2.35D-05

 Cycle  14  Pass 1  IDiag  1:
 RMSU=  5.33D-08    CP:  9.32D-01  5.50D-01  5.17D-01  3.77D-01  5.96D-01
                    CP:  8.23D-01  4.61D-01  7.12D-01  8.42D-01  7.87D-01
                    CP:  8.29D-01  7.84D-01  6.25D-01
 E= -2479.82020759859     Delta-E=       -0.000000007825 Rises=F Damp=F
 DIIS: error= 9.56D-07 at cycle  14 NSaved=  14.
 NSaved=14 IEnMin=14 EnMin= -2479.82020759859     IErMin=14 ErrMin= 9.56D-07
 ErrMax= 9.56D-07  0.00D+00 EMaxC= 1.00D-01 BMatC= 1.22D-09 BMatP= 1.01D-08
 IDIUse=1 WtCom= 1.00D+00 WtEn= 0.00D+00
 Coeff-Com: -0.180D-05-0.285D-05-0.213D-04 0.912D-05-0.345D-04-0.421D-03
 Coeff-Com: -0.333D-03 0.474D-03 0.626D-02 0.180D-01 0.888D-01 0.170D+00
 Coeff-Com:  0.253D+00 0.464D+00
 Coeff:     -0.180D-05-0.285D-05-0.213D-04 0.912D-05-0.345D-04-0.421D-03
 Coeff:     -0.333D-03 0.474D-03 0.626D-02 0.180D-01 0.888D-01 0.170D+00
 Coeff:      0.253D+00 0.464D+00
 Gap=     0.071 Goal=   None    Shift=    0.000
 RMSDP=3.15D-08 MaxDP=5.86D-06 DE=-7.83D-09 OVMax= 7.00D-06

 Cycle  15  Pass 1  IDiag  1:
 RMSU=  1.95D-08    CP:  9.32D-01  5.50D-01  5.17D-01  3.77D-01  5.96D-01
                    CP:  8.23D-01  4.61D-01  7.12D-01  8.42D-01  7.87D-01
                    CP:  8.38D-01  7.71D-01  6.87D-01  6.91D-01
 E= -2479.82020759943     Delta-E=       -0.000000000844 Rises=F Damp=F
 DIIS: error= 1.80D-07 at cycle  15 NSaved=  15.
 NSaved=15 IEnMin=15 EnMin= -2479.82020759943     IErMin=15 ErrMin= 1.80D-07
 ErrMax= 1.80D-07  0.00D+00 EMaxC= 1.00D-01 BMatC= 1.61D-10 BMatP= 1.22D-09
 IDIUse=1 WtCom= 1.00D+00 WtEn= 0.00D+00
 Coeff-Com: -0.611D-06-0.101D-05-0.920D-05 0.505D-05-0.227D-04-0.166D-03
 Coeff-Com: -0.126D-03 0.209D-03 0.233D-02 0.662D-02 0.386D-01 0.787D-01
 Coeff-Com:  0.142D+00 0.329D+00 0.402D+00
 Coeff:     -0.611D-06-0.101D-05-0.920D-05 0.505D-05-0.227D-04-0.166D-03
 Coeff:     -0.126D-03 0.209D-03 0.233D-02 0.662D-02 0.386D-01 0.787D-01
 Coeff:      0.142D+00 0.329D+00 0.402D+00
 Gap=     0.071 Goal=   None    Shift=    0.000
 RMSDP=1.13D-08 MaxDP=1.82D-06 DE=-8.44D-10 OVMax= 3.31D-06

 Cycle  16  Pass 1  IDiag  1:
 RMSU=  6.43D-09    CP:  9.32D-01  5.50D-01  5.17D-01  3.77D-01  5.96D-01
                    CP:  8.23D-01  4.61D-01  7.12D-01  8.42D-01  7.87D-01
                    CP:  8.40D-01  7.73D-01  6.82D-01  7.49D-01  8.05D-01
 E= -2479.82020759954     Delta-E=       -0.000000000111 Rises=F Damp=F
 DIIS: error= 4.03D-08 at cycle  16 NSaved=  16.
 NSaved=16 IEnMin=16 EnMin= -2479.82020759954     IErMin=16 ErrMin= 4.03D-08
 ErrMax= 4.03D-08  0.00D+00 EMaxC= 1.00D-01 BMatC= 1.19D-11 BMatP= 1.61D-10
 IDIUse=1 WtCom= 1.00D+00 WtEn= 0.00D+00
 Coeff-Com: -0.123D-06-0.366D-06-0.275D-05 0.178D-05-0.102D-04-0.364D-04
 Coeff-Com: -0.230D-04 0.599D-04 0.408D-03 0.116D-02 0.955D-02 0.215D-01
 Coeff-Com:  0.470D-01 0.126D+00 0.246D+00 0.548D+00
 Coeff:     -0.123D-06-0.366D-06-0.275D-05 0.178D-05-0.102D-04-0.364D-04
 Coeff:     -0.230D-04 0.599D-04 0.408D-03 0.116D-02 0.955D-02 0.215D-01
 Coeff:      0.470D-01 0.126D+00 0.246D+00 0.548D+00
 Gap=     0.071 Goal=   None    Shift=    0.000
 RMSDP=3.84D-09 MaxDP=5.36D-07 DE=-1.11D-10 OVMax= 9.67D-07

 Error on total polarization charges =  0.09025
 SCF Done:  E(RPBE-PBE) =  -2479.82020760     A.U. after   16 cycles
            NFock= 16  Conv=0.38D-08     -V/T= 2.0048
 KE= 2.467898681387D+03 PE=-2.336002722475D+04 EE= 9.611929220764D+03
 SMD-CDS (non-electrostatic) energy       (kcal/mol) =      -9.83
 (included in total energy above)
 Leave Link  502 at Tue Jun 28 23:49:51 2022, MaxMem=  5242880000 cpu:     48143.1
 (Enter /opt/nce/packages/global/g09/l801.exe)
 ExpMin= 9.52D-02 ExpMax= 1.97D+04 ExpMxC= 6.73D+02 IAcc=3 IRadAn=         5 AccDes= 0.00D+00
 HarFok:  IExCor=  205 AccDes= 0.00D+00 IRadAn=         5 IDoV=-2 UseB2=F ITyADJ=14
 ICtDFT= 12500011 ScaDFX=  1.000000  1.000000  1.000000  1.000000
 Largest valence mixing into a core orbital is  5.18D-05
 Largest core mixing into a valence orbital is  1.98D-05
 Range of M.O.s used for correlation:    63  2113
 NBasis=  2114 NAE=   205 NBE=   205 NFC=    62 NFV=     0
 NROrb=   2051 NOA=   143 NOB=   143 NVA=  1908 NVB=  1908

 **** Warning!!: The largest alpha MO coefficient is  0.49787294D+02


 **** Warning!!: The smallest alpha delta epsilon is  0.70585948D-01

 Leave Link  801 at Tue Jun 28 23:49:51 2022, MaxMem=  5242880000 cpu:         8.3
 (Enter /opt/nce/packages/global/g09/l914.exe)
 RHF ground state
 MDV=  5242880000 DFT=T DoStab=F Mixed=F DoRPA=T DoScal=T NonHer=F
 Would need an additional       2554803000000 words for in-memory AO integral storage.
 NEqPCM:  Using non-equilibrium solvation (IEInf=1, Eps=  35.6880, EpsInf=   1.8069)
 Inv3:  Mode=1 IEnd=   148938348.
 Iteration    1 A*A^-1 deviation from unit magnitude is 8.33D-15 for   7033.
 Iteration    1 A*A^-1 deviation from orthogonality  is 4.05D-15 for   4330   1348.
 Iteration    1 A^-1*A deviation from unit magnitude is 7.33D-15 for   7028.
 Iteration    1 A^-1*A deviation from orthogonality  is 3.38D-15 for   4745   4683.
 Making orbital integer symmetry assigments:
 Orbital symmetries:
       Occupied  (A) (A) (A) (A) (A) (A) (A) (A) (A) (A) (A) (A)
                 (A) (A) (A) (A) (A) (A) (A) (A) (A) (A) (A) (A)
                 (A) (A) (A) (A) (A) (A) (A) (A) (A) (A) (A) (A)
                 (A) (A) (A) (A) (A) (A) (A) (A) (A) (A) (A) (A)
                 (A) (A) (A) (A) (A) (A) (A) (A) (A) (A) (A) (A)
                 (A) (A) (A) (A) (A) (A) (A) (A) (A) (A) (A) (A)
                 (A) (A) (A) (A) (A) (A) (A) (A) (A) (A) (A) (A)
                 (A) (A) (A) (A) (A) (A) (A) (A) (A) (A) (A) (A)
                 (A) (A) (A) (A) (A) (A) (A) (A) (A) (A) (A) (A)
                 (A) (A) (A) (A) (A) (A) (A) (A) (A) (A) (A) (A)
                 (A) (A) (A) (A) (A) (A) (A) (A) (A) (A) (A) (A)
                 (A) (A) (A) (A) (A) (A) (A) (A) (A) (A) (A) (A)
                 (A) (A) (A) (A) (A) (A) (A) (A) (A) (A) (A) (A)
                 (A) (A) (A) (A) (A) (A) (A) (A) (A) (A) (A) (A)
                 (A) (A) (A) (A) (A) (A) (A) (A) (A) (A) (A) (A)
                 (A) (A) (A) (A) (A) (A) (A) (A) (A) (A) (A) (A)
                 (A) (A) (A) (A) (A) (A) (A) (A) (A) (A) (A) (A)
                 (A)
       Virtual   (A) (A) (A) (A) (A) (A) (A) (A) (A) (A) (A) (A)
                 (A) (A) (A) (A) (A) (A) (A) (A) (A) (A) (A) (A)
                 (A) (A) (A) (A) (A) (A) (A) (A) (A) (A) (A) (A)
                 (A) (A) (A) (A) (A) (A) (A) (A) (A) (A) (A) (A)
                 (A) (A) (A) (A) (A) (A) (A) (A) (A) (A) (A) (A)
                 (A) (A) (A) (A) (A) (A) (A) (A) (A) (A) (A) (A)
                 (A) (A) (A) (A) (A) (A) (A) (A) (A) (A) (A) (A)
                 (A) (A) (A) (A) (A) (A) (A) (A) (A) (A) (A) (A)
                 (A) (A) (A) (A) (A) (A) (A) (A) (A) (A) (A) (A)
                 (A) (A) (A) (A) (A) (A) (A) (A) (A) (A) (A) (A)
                 (A) (A) (A) (A) (A) (A) (A) (A) (A) (A) (A) (A)
                 (A) (A) (A) (A) (A) (A) (A) (A) (A) (A) (A) (A)
                 (A) (A) (A) (A) (A) (A) (A) (A) (A) (A) (A) (A)
                 (A) (A) (A) (A) (A) (A) (A) (A) (A) (A) (A) (A)
                 (A) (A) (A) (A) (A) (A) (A) (A) (A) (A) (A) (A)
                 (A) (A) (A) (A) (A) (A) (A) (A) (A) (A) (A) (A)
                 (A) (A) (A) (A) (A) (A) (A) (A) (A) (A) (A) (A)
                 (A) (A) (A) (A) (A) (A) (A) (A) (A) (A) (A) (A)
                 (A) (A) (A) (A) (A) (A) (A) (A) (A) (A) (A) (A)
                 (A) (A) (A) (A) (A) (A) (A) (A) (A) (A) (A) (A)
                 (A) (A) (A) (A) (A) (A) (A) (A) (A) (A) (A) (A)
                 (A) (A) (A) (A) (A) (A) (A) (A) (A) (A) (A) (A)
                 (A) (A) (A) (A) (A) (A) (A) (A) (A) (A) (A) (A)
                 (A) (A) (A) (A) (A) (A) (A) (A) (A) (A) (A) (A)
                 (A) (A) (A) (A) (A) (A) (A) (A) (A) (A) (A) (A)
                 (A) (A) (A) (A) (A) (A) (A) (A) (A) (A) (A) (A)
                 (A) (A) (A) (A) (A) (A) (A) (A) (A) (A) (A) (A)
                 (A) (A) (A) (A) (A) (A) (A) (A) (A) (A) (A) (A)
                 (A) (A) (A) (A) (A) (A) (A) (A) (A) (A) (A) (A)
                 (A) (A) (A) (A) (A) (A) (A) (A) (A) (A) (A) (A)
                 (A) (A) (A) (A) (A) (A) (A) (A) (A) (A) (A) (A)
                 (A) (A) (A) (A) (A) (A) (A) (A) (A) (A) (A) (A)
                 (A) (A) (A) (A) (A) (A) (A) (A) (A) (A) (A) (A)
                 (A) (A) (A) (A) (A) (A) (A) (A) (A) (A) (A) (A)
                 (A) (A) (A) (A) (A) (A) (A) (A) (A) (A) (A) (A)
                 (A) (A) (A) (A) (A) (A) (A) (A) (A) (A) (A) (A)
                 (A) (A) (A) (A) (A) (A) (A) (A) (A) (A) (A) (A)
                 (A) (A) (A) (A) (A) (A) (A) (A) (A) (A) (A) (A)
                 (A) (A) (A) (A) (A) (A) (A) (A) (A) (A) (A) (A)
                 (A) (A) (A) (A) (A) (A) (A) (A) (A) (A) (A) (A)
                 (A) (A) (A) (A) (A) (A) (A) (A) (A) (A) (A) (A)
                 (A) (A) (A) (A) (A) (A) (A) (A) (A) (A) (A) (A)
                 (A) (A) (A) (A) (A) (A) (A) (A) (A) (A) (A) (A)
                 (A) (A) (A) (A) (A) (A) (A) (A) (A) (A) (A) (A)
                 (A) (A) (A) (A) (A) (A) (A) (A) (A) (A) (A) (A)
                 (A) (A) (A) (A) (A) (A) (A) (A) (A) (A) (A) (A)
                 (A) (A) (A) (A) (A) (A) (A) (A) (A) (A) (A) (A)
                 (A) (A) (A) (A) (A) (A) (A) (A) (A) (A) (A) (A)
                 (A) (A) (A) (A) (A) (A) (A) (A) (A) (A) (A) (A)
                 (A) (A) (A) (A) (A) (A) (A) (A) (A) (A) (A) (A)
                 (A) (A) (A) (A) (A) (A) (A) (A) (A) (A) (A) (A)
                 (A) (A) (A) (A) (A) (A) (A) (A) (A) (A) (A) (A)
                 (A) (A) (A) (A) (A) (A) (A) (A) (A) (A) (A) (A)
                 (A) (A) (A) (A) (A) (A) (A) (A) (A) (A) (A) (A)
                 (A) (A) (A) (A) (A) (A) (A) (A) (A) (A) (A) (A)
                 (A) (A) (A) (A) (A) (A) (A) (A) (A) (A) (A) (A)
                 (A) (A) (A) (A) (A) (A) (A) (A) (A) (A) (A) (A)
                 (A) (A) (A) (A) (A) (A) (A) (A) (A) (A) (A) (A)
                 (A) (A) (A) (A) (A) (A) (A) (A) (A) (A) (A) (A)
                 (A) (A) (A) (A) (A) (A) (A) (A) (A) (A) (A) (A)
                 (A) (A) (A) (A) (A) (A) (A) (A) (A) (A) (A) (A)
                 (A) (A) (A) (A) (A) (A) (A) (A) (A) (A) (A) (A)
                 (A) (A) (A) (A) (A) (A) (A) (A) (A) (A) (A) (A)
                 (A) (A) (A) (A) (A) (A) (A) (A) (A) (A) (A) (A)
                 (A) (A) (A) (A) (A) (A) (A) (A) (A) (A) (A) (A)
                 (A) (A) (A) (A) (A) (A) (A) (A) (A) (A) (A) (A)
                 (A) (A) (A) (A) (A) (A) (A) (A) (A) (A) (A) (A)
                 (A) (A) (A) (A) (A) (A) (A) (A) (A) (A) (A) (A)
                 (A) (A) (A) (A) (A) (A) (A) (A) (A) (A) (A) (A)
                 (A) (A) (A) (A) (A) (A) (A) (A) (A) (A) (A) (A)
                 (A) (A) (A) (A) (A) (A) (A) (A) (A) (A) (A) (A)
                 (A) (A) (A) (A) (A) (A) (A) (A) (A) (A) (A) (A)
                 (A) (A) (A) (A) (A) (A) (A) (A) (A) (A) (A) (A)
                 (A) (A) (A) (A) (A) (A) (A) (A) (A) (A) (A) (A)
                 (A) (A) (A) (A) (A) (A) (A) (A) (A) (A) (A) (A)
                 (A) (A) (A) (A) (A) (A) (A) (A) (A) (A) (A) (A)
                 (A) (A) (A) (A) (A) (A) (A) (A) (A) (A) (A) (A)
                 (A) (A) (A) (A) (A) (A) (A) (A) (A) (A) (A) (A)
                 (A) (A) (A) (A) (A) (A) (A) (A) (A) (A) (A) (A)
                 (A) (A) (A) (A) (A) (A) (A) (A) (A) (A) (A) (A)
                 (A) (A) (A) (A) (A) (A) (A) (A) (A) (A) (A) (A)
                 (A) (A) (A) (A) (A) (A) (A) (A) (A) (A) (A) (A)
                 (A) (A) (A) (A) (A) (A) (A) (A) (A) (A) (A) (A)
                 (A) (A) (A) (A) (A) (A) (A) (A) (A) (A) (A) (A)
                 (A) (A) (A) (A) (A) (A) (A) (A) (A) (A) (A) (A)
                 (A) (A) (A) (A) (A) (A) (A) (A) (A) (A) (A) (A)
                 (A) (A) (A) (A) (A) (A) (A) (A) (A) (A) (A) (A)
                 (A) (A) (A) (A) (A) (A) (A) (A) (A) (A) (A) (A)
                 (A) (A) (A) (A) (A) (A) (A) (A) (A) (A) (A) (A)
                 (A) (A) (A) (A) (A) (A) (A) (A) (A) (A) (A) (A)
                 (A) (A) (A) (A) (A) (A) (A) (A) (A) (A) (A) (A)
                 (A) (A) (A) (A) (A) (A) (A) (A) (A) (A) (A) (A)
                 (A) (A) (A) (A) (A) (A) (A) (A) (A) (A) (A) (A)
                 (A) (A) (A) (A) (A) (A) (A) (A) (A) (A) (A) (A)
                 (A) (A) (A) (A) (A) (A) (A) (A) (A) (A) (A) (A)
                 (A) (A) (A) (A) (A) (A) (A) (A) (A) (A) (A) (A)
                 (A) (A) (A) (A) (A) (A) (A) (A) (A) (A) (A) (A)
                 (A) (A) (A) (A) (A) (A) (A) (A) (A) (A) (A) (A)
                 (A) (A) (A) (A) (A) (A) (A) (A) (A) (A) (A) (A)
                 (A) (A) (A) (A) (A) (A) (A) (A) (A) (A) (A) (A)
                 (A) (A) (A) (A) (A) (A) (A) (A) (A) (A) (A) (A)
                 (A) (A) (A) (A) (A) (A) (A) (A) (A) (A) (A) (A)
                 (A) (A) (A) (A) (A) (A) (A) (A) (A) (A) (A) (A)
                 (A) (A) (A) (A) (A) (A) (A) (A) (A) (A) (A) (A)
                 (A) (A) (A) (A) (A) (A) (A) (A) (A) (A) (A) (A)
                 (A) (A) (A) (A) (A) (A) (A) (A) (A) (A) (A) (A)
                 (A) (A) (A) (A) (A) (A) (A) (A) (A) (A) (A) (A)
                 (A) (A) (A) (A) (A) (A) (A) (A) (A) (A) (A) (A)
                 (A) (A) (A) (A) (A) (A) (A) (A) (A) (A) (A) (A)
                 (A) (A) (A) (A) (A) (A) (A) (A) (A) (A) (A) (A)
                 (A) (A) (A) (A) (A) (A) (A) (A) (A) (A) (A) (A)
                 (A) (A) (A) (A) (A) (A) (A) (A) (A) (A) (A) (A)
                 (A) (A) (A) (A) (A) (A) (A) (A) (A) (A) (A) (A)
                 (A) (A) (A) (A) (A) (A) (A) (A) (A) (A) (A) (A)
                 (A) (A) (A) (A) (A) (A) (A) (A) (A) (A) (A) (A)
                 (A) (A) (A) (A) (A) (A) (A) (A) (A) (A) (A) (A)
                 (A) (A) (A) (A) (A) (A) (A) (A) (A) (A) (A) (A)
                 (A) (A) (A) (A) (A) (A) (A) (A) (A) (A) (A) (A)
                 (A) (A) (A) (A) (A) (A) (A) (A) (A) (A) (A) (A)
                 (A) (A) (A) (A) (A) (A) (A) (A) (A) (A) (A) (A)
                 (A) (A) (A) (A) (A) (A) (A) (A) (A) (A) (A) (A)
                 (A) (A) (A) (A) (A) (A) (A) (A) (A) (A) (A) (A)
                 (A) (A) (A) (A) (A) (A) (A) (A) (A) (A) (A) (A)
                 (A) (A) (A) (A) (A) (A) (A) (A) (A) (A) (A) (A)
                 (A) (A) (A) (A) (A) (A) (A) (A) (A) (A) (A) (A)
                 (A) (A) (A) (A) (A) (A) (A) (A) (A) (A) (A) (A)
                 (A) (A) (A) (A) (A) (A) (A) (A) (A) (A) (A) (A)
                 (A) (A) (A) (A) (A) (A) (A) (A) (A) (A) (A) (A)
                 (A) (A) (A) (A) (A) (A) (A) (A) (A) (A) (A) (A)
                 (A) (A) (A) (A) (A) (A) (A) (A) (A) (A) (A) (A)
                 (A) (A) (A) (A) (A) (A) (A) (A) (A) (A) (A) (A)
                 (A) (A) (A) (A) (A) (A) (A) (A) (A) (A) (A) (A)
                 (A) (A) (A) (A) (A) (A) (A) (A) (A) (A) (A) (A)
                 (A) (A) (A) (A) (A) (A) (A) (A) (A) (A) (A) (A)
                 (A) (A) (A) (A) (A) (A) (A) (A) (A) (A) (A) (A)
                 (A) (A) (A) (A) (A) (A) (A) (A) (A) (A) (A) (A)
                 (A) (A) (A) (A) (A) (A) (A) (A) (A) (A) (A) (A)
                 (A) (A) (A) (A) (A) (A) (A) (A) (A) (A) (A) (A)
                 (A) (A) (A) (A) (A) (A) (A) (A) (A) (A) (A) (A)
                 (A) (A) (A) (A) (A) (A) (A) (A) (A) (A) (A) (A)
                 (A) (A) (A) (A) (A) (A) (A) (A) (A) (A) (A) (A)
                 (A) (A) (A) (A) (A) (A) (A) (A) (A) (A) (A) (A)
                 (A) (A) (A) (A) (A) (A) (A) (A) (A) (A) (A) (A)
                 (A) (A) (A) (A) (A) (A) (A) (A) (A) (A) (A) (A)
                 (A) (A) (A) (A) (A) (A) (A) (A) (A) (A) (A) (A)
                 (A) (A) (A) (A) (A) (A) (A) (A) (A) (A) (A) (A)
                 (A) (A) (A) (A) (A) (A) (A) (A) (A) (A) (A) (A)
                 (A) (A) (A) (A) (A) (A) (A) (A) (A) (A) (A) (A)
                 (A) (A) (A) (A) (A) (A) (A) (A) (A) (A) (A) (A)
                 (A) (A) (A) (A) (A) (A) (A) (A) (A) (A) (A) (A)
                 (A) (A) (A) (A) (A) (A) (A) (A) (A) (A) (A) (A)
                 (A) (A) (A) (A) (A) (A) (A) (A) (A) (A) (A) (A)
                 (A) (A) (A) (A) (A) (A) (A) (A) (A) (A) (A) (A)
                 (A) (A) (A) (A) (A) (A) (A) (A) (A) (A) (A) (A)
                 (A) (A) (A) (A) (A) (A) (A) (A) (A) (A) (A) (A)
                 (A) (A) (A) (A) (A) (A) (A) (A) (A) (A) (A) (A)
                 (A) (A) (A) (A) (A) (A) (A) (A) (A) (A) (A) (A)
                 (A) (A) (A) (A) (A) (A) (A) (A) (A) (A) (A) (A)
                 (A) (A) (A) (A) (A) (A) (A) (A) (A) (A) (A) (A)
   200 initial guesses have been made.
 Convergence on wavefunction:    0.001000000000000
 Davidson Disk Diagonalization:  ConvIn= 1.00D-03 SkipCon=T Conv= 1.00D-03.
 Max sub-space:   800 roots to seek:   200 dimension of matrix:       545688
 Iteration     1 Dimension   200 NMult     0 NNew    200
 CISAX will form    60 AO SS matrices at one time.
 NMat=    60 NSing=    60 JSym2X= 0.
 FoFJK:  IHMeth= 1 ICntrl=     500 DoSepK=F KAlg= 0 I1Cent=   0 FoldK=F
 IRaf=         0 NMat=  60 IRICut=       1 DoRegI=T DoRafI=F ISym2E= 0.
 NMat=    60 NSing=    60 JSym2X= 0.
 NMat=    60 NSing=    60 JSym2X= 0.
 NMat=    20 NSing=    20 JSym2X= 0.
 New state      3 was old state      4
 New state      4 was old state      3
 New state      5 was old state      7
 New state      6 was old state      5
 New state      7 was old state      8
 New state      8 was old state      6
 New state     12 was old state     13
 New state     13 was old state     15
 New state     15 was old state     16
 New state     16 was old state     12
 New state     20 was old state     21
 New state     21 was old state     20
 New state     23 was old state     24
 New state     24 was old state     23
 New state     26 was old state     27
 New state     27 was old state     28
 New state     28 was old state     31
 New state     29 was old state     33
 New state     30 was old state     34
 New state     31 was old state     36
 New state     32 was old state     30
 New state     33 was old state     37
 New state     34 was old state     38
 New state     35 was old state     39
 New state     36 was old state     40
 New state     37 was old state     41
 New state     38 was old state     42
 New state     39 was old state     45
 New state     40 was old state     47
 New state     41 was old state     52
 New state     42 was old state     46
 New state     43 was old state     49
 New state     44 was old state     43
 New state     45 was old state     51
 New state     46 was old state     53
 New state     47 was old state     55
 New state     48 was old state     56
 New state     49 was old state     54
 New state     50 was old state     59
 Excitation Energies [eV] at current iteration:
 Root      1 :     2.022375255509772
 Root      2 :     2.212113293224384
 Root      3 :     2.215346636092365
 Root      4 :     2.264750148719630
 Root      5 :     2.364748472318494
 Root      6 :     2.403440531368926
 Root      7 :     2.411084680255274
 Root      8 :     2.426820157421604
 Root      9 :     2.469724740409866
 Root     10 :     2.570717221023621
 Root     11 :     2.633327591462421
 Root     12 :     2.702183635923311
 Root     13 :     2.733110622581695
 Root     14 :     2.778166237761445
 Root     15 :     2.841161393430919
 Root     16 :     2.864879965545370
 Root     17 :     3.124071964900930
 Root     18 :     3.228070852209718
 Root     19 :     3.247165856247640
 Root     20 :     3.249261859056717
 Root     21 :     3.251538859119094
 Root     22 :     3.274279613031345
 Root     23 :     3.316688826584217
 Root     24 :     3.369416210863306
 Root     25 :     3.416320083932643
 Root     26 :     3.439749750972029
 Root     27 :     3.455786707206533
 Root     28 :     3.462442756255614
 Root     29 :     3.487979378270507
 Root     30 :     3.505416075686997
 Root     31 :     3.507357279727332
 Root     32 :     3.517974910639278
 Root     33 :     3.526296662053535
 Root     34 :     3.565736245002225
 Root     35 :     3.580212805352722
 Root     36 :     3.587058584919922
 Root     37 :     3.592953693426513
 Root     38 :     3.651762792588555
 Root     39 :     3.664454651717297
 Root     40 :     3.666953550419506
 Root     41 :     3.677817719694136
 Root     42 :     3.681028985127584
 Root     43 :     3.684576919130492
 Root     44 :     3.696100065811922
 Root     45 :     3.715703148033531
 Root     46 :     3.726666987187821
 Root     47 :     3.732151594303507
 Root     48 :     3.746231338439682
 Root     49 :     3.832098094493222
 Root     50 :     3.869100297590953
 Root     51 :     3.879572567077113
 Root     52 :     3.911501285195604
 Root     53 :     3.937011831894520
 Root     54 :     3.959438798310467
 Root     55 :     3.985991195909047
 Root     56 :     3.998071267929924
 Root     57 :     4.031430126635240
 Root     58 :     4.040973202240734
 Root     59 :     4.079322151084909
 Root     60 :     4.133701149454880
 Root     61 :     4.149998587780388
 Root     62 :     4.162245699450432
 Root     63 :     4.176111031702841
 Root     64 :     4.184361710693707
 Root     65 :     4.196967709569684
 Root     66 :     4.200608889808427
 Root     67 :     4.208329217241095
 Root     68 :     4.247310424318531
 Root     69 :     4.273369361530503
 Root     70 :     4.279827783662666
 Root     71 :     4.283738400280895
 Root     72 :     4.306640531812311
 Root     73 :     4.317809241998854
 Root     74 :     4.319712965789956
 Root     75 :     4.325896448985738
 Root     76 :     4.336694845627077
 Root     77 :     4.337277185264094
 Root     78 :     4.343671056563771
 Root     79 :     4.348411737624390
 Root     80 :     4.356687023597694
 Root     81 :     4.364624858094282
 Root     82 :     4.366392004321860
 Root     83 :     4.375023607866914
 Root     84 :     4.379242900575067
 Root     85 :     4.383863392043220
 Root     86 :     4.396744184435201
 Root     87 :     4.405754169870986
 Root     88 :     4.422706877022198
 Root     89 :     4.436874500932888
 Root     90 :     4.440199018205007
 Root     91 :     4.448323447944173
 Root     92 :     4.452497959705863
 Root     93 :     4.459256052346314
 Root     94 :     4.474082142179511
 Root     95 :     4.477548141067815
 Root     96 :     4.490802019601501
 Root     97 :     4.497002695089489
 Root     98 :     4.499403750716671
 Root     99 :     4.500726944703771
 Root    100 :     4.513187411515475
 Root    101 :     4.515516486011691
 Root    102 :     4.519379077200885
 Root    103 :     4.529334867125015
 Root    104 :     4.531414802740849
 Root    105 :     4.539608069932243
 Root    106 :     4.555063862060648
 Root    107 :     4.557095809926615
 Root    108 :     4.561237015479266
 Root    109 :     4.564477784061898
 Root    110 :     4.568854574414336
 Root    111 :     4.576450434244036
 Root    112 :     4.580405524036486
 Root    113 :     4.590147115570304
 Root    114 :     4.591398493884090
 Root    115 :     4.600249969553909
 Root    116 :     4.613508155011975
 Root    117 :     4.617767330739804
 Root    118 :     4.644973731811487
 Root    119 :     4.648472366689038
 Root    120 :     4.650250184769910
 Root    121 :     4.674799622112378
 Root    122 :     4.681878956213883
 Root    123 :     4.683794035484963
 Root    124 :     4.687066084332517
 Root    125 :     4.705521351204373
 Root    126 :     4.729266164177472
 Root    127 :     4.751233383031949
 Root    128 :     4.796028567136966
 Root    129 :     4.804033003461926
 Root    130 :     4.820825627634242
 Root    131 :     4.829509097204949
 Root    132 :     4.840852433745644
 Root    133 :     4.842562372886227
 Root    134 :     4.846648425809983
 Root    135 :     4.853592427163902
 Root    136 :     4.866581205646952
 Root    137 :     4.889026965740624
 Root    138 :     4.891863745898707
 Root    139 :     4.899209141465279
 Root    140 :     4.905553981354840
 Root    141 :     4.922454990875193
 Root    142 :     4.924633365966824
 Root    143 :     4.925271589810677
 Root    144 :     4.928112349907858
 Root    145 :     4.941725891635304
 Root    146 :     4.947051096069360
 Root    147 :     4.968210881220713
 Root    148 :     4.980477327715672
 Root    149 :     4.985916492195622
 Root    150 :     4.990893013512154
 Root    151 :     4.996023859271661
 Root    152 :     4.999463836121765
 Root    153 :     5.002483289920011
 Root    154 :     5.020553060742603
 Root    155 :     5.025281711521962
 Root    156 :     5.031245134322153
 Root    157 :     5.041233856642207
 Root    158 :     5.047852045807366
 Root    159 :     5.053211261098407
 Root    160 :     5.065704103180271
 Root    161 :     5.068421774611182
 Root    162 :     5.069197866657710
 Root    163 :     5.082098964355602
 Root    164 :     5.086383264564863
 Root    165 :     5.105621253928345
 Root    166 :     5.113011859294155
 Root    167 :     5.125019969774114
 Root    168 :     5.130178772194323
 Root    169 :     5.136838683997143
 Root    170 :     5.139816263200499
 Root    171 :     5.148174106624773
 Root    172 :     5.155397911559052
 Root    173 :     5.178852990987349
 Root    174 :     5.212206752765791
 Root    175 :     5.245824185082965
 Root    176 :     5.285477888122208
 Root    177 :     5.296360445105272
 Root    178 :     5.307791332311401
 Root    179 :     5.314681706431205
 Root    180 :     5.355246393633524
 Root    181 :     5.439626262632510
 Root    182 :     5.482771169700311
 Root    183 :     5.504412210953335
 Root    184 :     5.527451323596930
 Root    185 :     5.545677459535521
 Root    186 :     5.616904472587978
 Root    187 :     5.683301483184984
 Root    188 :     5.697514616276099
 Root    189 :     5.739156449889442
 Root    190 :     5.829912631530475
 Root    191 :     5.883742275881755
 Root    192 :     6.073981144718661
 Root    193 :     6.311401824809236
 Root    194 :     6.401641062457538
 Root    195 :     6.554427220658408
 Root    196 :     6.591961887761262
 Root    197 :     6.783254235127174
 Root    198 :     6.929771280194516
 Root    199 :     7.052004869030031
 Root    200 :     7.409576334620640
 Iteration     2 Dimension   400 NMult   200 NNew    200
 CISAX will form    60 AO SS matrices at one time.
 NMat=    60 NSing=    60 JSym2X= 0.
 NMat=    60 NSing=    60 JSym2X= 0.
 NMat=    60 NSing=    60 JSym2X= 0.
 NMat=    20 NSing=    20 JSym2X= 0.
 Root      1 not converged, maximum delta is    0.021407239216687
 Root      2 not converged, maximum delta is    0.110615525550171
 Root      3 not converged, maximum delta is    0.101469191309963
 Root      4 not converged, maximum delta is    0.105540632794009
 Root      5 not converged, maximum delta is    0.367972060720560
 Root      6 not converged, maximum delta is    0.300132546476301
 New state      7 was old state      8
 Root      7 not converged, maximum delta is    0.135045502261677
 New state      8 was old state      7
 Root      8 not converged, maximum delta is    0.027336074526389
 Root      9 not converged, maximum delta is    0.072358565364174
 Root     10 not converged, maximum delta is    0.080288698736948
 Root     11 not converged, maximum delta is    0.095586740348244
 New state     12 was old state     13
 Root     12 not converged, maximum delta is    0.295636856186998
 New state     13 was old state     12
 Root     13 not converged, maximum delta is    0.079491341041735
 Root     14 not converged, maximum delta is    0.011477313543617
 New state     15 was old state     16
 Root     15 not converged, maximum delta is    0.220176721271016
 New state     16 was old state     15
 Root     16 not converged, maximum delta is    0.077582873689648
 Root     17 not converged, maximum delta is    0.017809240089196
 Root     18 not converged, maximum delta is    0.009520643934497
 Root     19 not converged, maximum delta is    0.213726316353575
 New state     20 was old state     21
 Root     20 not converged, maximum delta is    0.033119194133765
 New state     21 was old state     20
 Root     21 not converged, maximum delta is    0.201867822044279
 Root     22 not converged, maximum delta is    0.034442505557826
 Root     23 not converged, maximum delta is    0.021337615841225
 Root     24 not converged, maximum delta is    0.078873260486305
 Root     25 not converged, maximum delta is    0.014514100806531
 Root     26 not converged, maximum delta is    0.018804076946947
 Root     27 not converged, maximum delta is    0.045197306288814
 Root     28 not converged, maximum delta is    0.042078826758847
 Root     29 not converged, maximum delta is    0.031503548941905
 Root     30 not converged, maximum delta is    0.015599157480182
 Root     31 not converged, maximum delta is    0.022865347226446
 Root     32 not converged, maximum delta is    0.054853375448464
 Root     33 not converged, maximum delta is    0.044080771818167
 Root     34 not converged, maximum delta is    0.107178996191503
 Root     35 not converged, maximum delta is    0.130567361183610
 New state     36 was old state     37
 Root     36 not converged, maximum delta is    0.171513666263509
 New state     37 was old state     36
 Root     37 not converged, maximum delta is    0.083200076907592
 New state     38 was old state     39
 Root     38 not converged, maximum delta is    0.464779048865208
 New state     39 was old state     38
 Root     39 not converged, maximum delta is    0.064466421578973
 New state     40 was old state     41
 Root     40 not converged, maximum delta is    0.413536881102561
 New state     41 was old state     40
 Root     41 not converged, maximum delta is    0.276744933187373
 Root     42 not converged, maximum delta is    0.077050002454968
 Root     43 not converged, maximum delta is    0.107610076356892
 Root     44 not converged, maximum delta is    0.088244821865311
 Root     45 not converged, maximum delta is    0.109331238177894
 Root     46 not converged, maximum delta is    0.180011748070157
 Root     47 not converged, maximum delta is    0.188822873542865
 Root     48 not converged, maximum delta is    0.264812180838438
 New state     49 was old state     51
 Root     49 not converged, maximum delta is    0.308984413919350
 New state     50 was old state     55
 Root     50 not converged, maximum delta is    0.150681270966495
 Excitation Energies [eV] at current iteration:
 Root      1 :     1.990983899344546   Change is   -0.031391356165226
 Root      2 :     2.194455320134141   Change is   -0.017657973090242
 Root      3 :     2.198740037632569   Change is   -0.016606598459796
 Root      4 :     2.225601629191336   Change is   -0.039148519528294
 Root      5 :     2.342335574394983   Change is   -0.022412897923510
 Root      6 :     2.375288479622093   Change is   -0.028152051746832
 Root      7 :     2.386998637782855   Change is   -0.039821519638749
 Root      8 :     2.400951905627020   Change is   -0.010132774628254
 Root      9 :     2.459416847731725   Change is   -0.010307892678141
 Root     10 :     2.550276342177408   Change is   -0.020440878846214
 Root     11 :     2.591069529189093   Change is   -0.042258062273328
 Root     12 :     2.672450427698580   Change is   -0.060660194883115
 Root     13 :     2.684015526113688   Change is   -0.018168109809623
 Root     14 :     2.765964535241472   Change is   -0.012201702519973
 Root     15 :     2.794904480079828   Change is   -0.069975485465541
 Root     16 :     2.836112548802355   Change is   -0.005048844628564
 Root     17 :     3.120520724486449   Change is   -0.003551240414480
 Root     18 :     3.216990735320110   Change is   -0.011080116889608
 Root     19 :     3.237054562582436   Change is   -0.010111293665204
 Root     20 :     3.243323831711395   Change is   -0.008215027407699
 Root     21 :     3.244647107135707   Change is   -0.004614751921010
 Root     22 :     3.266257870966371   Change is   -0.008021742064974
 Root     23 :     3.307473892265485   Change is   -0.009214934318731
 Root     24 :     3.347183533460786   Change is   -0.022232677402519
 Root     25 :     3.415621473375526   Change is   -0.000698610557117
 Root     26 :     3.438872913935263   Change is   -0.000876837036766
 Root     27 :     3.453919849765343   Change is   -0.001866857441190
 Root     28 :     3.460434401364371   Change is   -0.002008354891243
 Root     29 :     3.486513726320505   Change is   -0.001465651950002
 Root     30 :     3.499657239844924   Change is   -0.005758835842073
 Root     31 :     3.504660963942604   Change is   -0.002696315784727
 Root     32 :     3.512155488236888   Change is   -0.005819422402390
 Root     33 :     3.523626426120426   Change is   -0.002670235933110
 Root     34 :     3.563075885659060   Change is   -0.002660359343165
 Root     35 :     3.569554463073827   Change is   -0.010658342278895
 Root     36 :     3.580300730220056   Change is   -0.012652963206457
 Root     37 :     3.583199368912492   Change is   -0.003859216007430
 Root     38 :     3.630925118483375   Change is   -0.033529533233922
 Root     39 :     3.638191971437125   Change is   -0.013570821151430
 Root     40 :     3.661506419696673   Change is   -0.016311299997463
 Root     41 :     3.666084222333171   Change is   -0.000869328086336
 Root     42 :     3.676202015471457   Change is   -0.004826969656128
 Root     43 :     3.682000840986966   Change is   -0.002576078143525
 Root     44 :     3.690065637829880   Change is   -0.006034427982042
 Root     45 :     3.714678075323612   Change is   -0.001025072709919
 Root     46 :     3.716082621400151   Change is   -0.010584365787669
 Root     47 :     3.719474336190555   Change is   -0.012677258112952
 Root     48 :     3.740330733351198   Change is   -0.005900605088484
 Root     49 :     3.754145878336143   Change is   -0.125426688740970
 Root     50 :     3.757326543969512   Change is   -0.228664651939534
 Root     51 :     3.767215831707171   Change is   -0.101884465883782
 Root     52 :     3.808700832869625   Change is   -0.128310999024895
 Root     53 :     3.813090062515954   Change is   -0.019008031977269
 Root     54 :     3.889137413475109   Change is   -0.022363871720495
 Root     55 :     3.922285356270983   Change is   -0.109144770364258
 Root     56 :     3.926002379092386   Change is   -0.114970823148348
 Root     57 :     3.944233847951007   Change is   -0.015204950359459
 Root     58 :     3.977038839341172   Change is   -0.021032428588751
 Root     59 :     4.064112623193051   Change is   -0.015209527891859
 Root     60 :     4.117694840656860   Change is   -0.016006308798021
 Root     61 :     4.124501516025509   Change is   -0.025497071754879
 Root     62 :     4.141128735467850   Change is   -0.021116963982582
 Root     63 :     4.148317207027338   Change is   -0.027793824675503
 Root     64 :     4.155710908674394   Change is   -0.044897981134033
 Root     65 :     4.171547852436477   Change is   -0.036781364804618
 Root     66 :     4.172550622434692   Change is   -0.100818739095811
 Root     67 :     4.184201525248232   Change is   -0.000160185445476
 Root     68 :     4.188613259657872   Change is   -0.095125140623024
 Root     69 :     4.206656291411543   Change is    0.009688581841859
 Root     70 :     4.214258047871617   Change is   -0.033052376446914
[...]
 Alpha virt. eigenvalues --    3.08085   3.08308   3.08432   3.08769   3.08927
 Alpha virt. eigenvalues --    3.09049   3.09320   3.09472   3.09619   3.09691
 Alpha virt. eigenvalues --    3.09811   3.10118   3.10225   3.10631   3.10730
 Alpha virt. eigenvalues --    3.10835   3.10919   3.11005   3.11723   3.11875
 Alpha virt. eigenvalues --    3.12304   3.12341   3.12375   3.12696   3.12818
 Alpha virt. eigenvalues --    3.13263   3.13545   3.13620   3.13695   3.13797
 Alpha virt. eigenvalues --    3.13970   3.14090   3.14339   3.14773   3.14906
 Alpha virt. eigenvalues --    3.15002   3.15317   3.15418   3.15742   3.15836
 Alpha virt. eigenvalues --    3.15977   3.16080   3.16553   3.16674   3.16924
 Alpha virt. eigenvalues --    3.17348   3.17393   3.17680   3.18080   3.18206
 Alpha virt. eigenvalues --    3.18340   3.18616   3.18800   3.19373   3.19818
 Alpha virt. eigenvalues --    3.19963   3.20263   3.20453   3.20502   3.20818
 Alpha virt. eigenvalues --    3.21376   3.21641   3.21734   3.21924   3.22153
 Alpha virt. eigenvalues --    3.22498   3.22782   3.22885   3.23150   3.23372
 Alpha virt. eigenvalues --    3.23618   3.23917   3.24026   3.24311   3.24620
 Alpha virt. eigenvalues --    3.24879   3.25159   3.25316   3.25917   3.26064
 Alpha virt. eigenvalues --    3.26131   3.26574   3.26591   3.26704   3.26897
 Alpha virt. eigenvalues --    3.27051   3.27387   3.27488   3.27687   3.27809
 Alpha virt. eigenvalues --    3.28073   3.28266   3.28305   3.28916   3.29004
 Alpha virt. eigenvalues --    3.29222   3.29344   3.29785   3.30096   3.30377
 Alpha virt. eigenvalues --    3.30522   3.30810   3.30893   3.31013   3.31347
 Alpha virt. eigenvalues --    3.31573   3.31754   3.31896   3.32149   3.32409
 Alpha virt. eigenvalues --    3.32654   3.32993   3.33567   3.33623   3.33660
 Alpha virt. eigenvalues --    3.33991   3.34179   3.34197   3.34582   3.34737
 Alpha virt. eigenvalues --    3.34917   3.35388   3.35514   3.35579   3.35943
 Alpha virt. eigenvalues --    3.36103   3.36114   3.36619   3.36789   3.36961
 Alpha virt. eigenvalues --    3.37070   3.37289   3.37726   3.37995   3.38361
 Alpha virt. eigenvalues --    3.38824   3.38854   3.39134   3.39296   3.39565
 Alpha virt. eigenvalues --    3.39634   3.39973   3.40112   3.40367   3.40660
 Alpha virt. eigenvalues --    3.40819   3.41079   3.41286   3.41371   3.41535
 Alpha virt. eigenvalues --    3.41671   3.41910   3.42143   3.42256   3.42325
 Alpha virt. eigenvalues --    3.42805   3.42935   3.42967   3.43530   3.43689
 Alpha virt. eigenvalues --    3.43788   3.43899   3.44055   3.44260   3.44671
 Alpha virt. eigenvalues --    3.44969   3.45000   3.45154   3.45657   3.46017
 Alpha virt. eigenvalues --    3.46110   3.46458   3.46698   3.46921   3.47158
 Alpha virt. eigenvalues --    3.47383   3.47739   3.47957   3.47980   3.48187
 Alpha virt. eigenvalues --    3.48316   3.48692   3.48920   3.48978   3.49129
 Alpha virt. eigenvalues --    3.49668   3.50106   3.50284   3.50371   3.50660
 Alpha virt. eigenvalues --    3.50729   3.50958   3.51057   3.51424   3.51536
 Alpha virt. eigenvalues --    3.51795   3.51819   3.52108   3.52226   3.52790
 Alpha virt. eigenvalues --    3.53110   3.53138   3.53638   3.53979   3.54111
 Alpha virt. eigenvalues --    3.54257   3.54710   3.54942   3.55099   3.55234
 Alpha virt. eigenvalues --    3.55363   3.55525   3.55669   3.55920   3.56296
 Alpha virt. eigenvalues --    3.56438   3.56980   3.57448   3.57542   3.57929
 Alpha virt. eigenvalues --    3.58248   3.58513   3.59243   3.59965   3.60318
 Alpha virt. eigenvalues --    3.60787   3.61315   3.61552   3.61909   3.62307
 Alpha virt. eigenvalues --    3.62422   3.63495   3.63579   3.64891   3.65689
 Alpha virt. eigenvalues --    3.65952   3.67156   3.67668   3.69091   3.69251
 Alpha virt. eigenvalues --    3.70320   3.70502   3.70843   3.71256   3.71486
 Alpha virt. eigenvalues --    3.71870   3.72260   3.72369   3.72766   3.72819
 Alpha virt. eigenvalues --    3.73976   3.74024   3.74372   3.74804   3.75163
 Alpha virt. eigenvalues --    3.75267   3.76530   3.76818   3.77059   3.77809
 Alpha virt. eigenvalues --    3.78448   3.79185   3.79643   3.79845   3.80352
 Alpha virt. eigenvalues --    3.80855   3.81029   3.81933   3.82551   3.83145
 Alpha virt. eigenvalues --    3.83417   3.84227   3.84616   3.84814   3.85272
 Alpha virt. eigenvalues --    3.85413   3.85504   3.85770   3.85869   3.85998
 Alpha virt. eigenvalues --    3.86435   3.86637   3.86787   3.87226   3.87556
 Alpha virt. eigenvalues --    3.87814   3.87996   3.88253   3.88658   3.88918
 Alpha virt. eigenvalues --    3.89281   3.89511   3.89621   3.89981   3.90125
 Alpha virt. eigenvalues --    3.90462   3.90506   3.90515   3.92089   3.92141
 Alpha virt. eigenvalues --    3.92932   3.93661   3.93780   3.94671   3.95064
 Alpha virt. eigenvalues --    3.95259   3.96369   3.96601   3.97225   3.97458
 Alpha virt. eigenvalues --    3.98151   3.99134   3.99332   3.99684   3.99908
 Alpha virt. eigenvalues --    4.00363   4.00744   4.01155   4.01563   4.01793
 Alpha virt. eigenvalues --    4.02177   4.02595   4.02703   4.02990   4.03354
 Alpha virt. eigenvalues --    4.03648   4.03746   4.04067   4.04304   4.04912
 Alpha virt. eigenvalues --    4.05336   4.05766   4.06006   4.06067   4.06610
 Alpha virt. eigenvalues --    4.06738   4.06765   4.06905   4.07666   4.07779
 Alpha virt. eigenvalues --    4.08047   4.08370   4.08849   4.08927   4.09598
 Alpha virt. eigenvalues --    4.09812   4.09947   4.10184   4.10262   4.10503
 Alpha virt. eigenvalues --    4.10710   4.10942   4.11048   4.11278   4.11507
 Alpha virt. eigenvalues --    4.11673   4.11975   4.12096   4.12293   4.12448
 Alpha virt. eigenvalues --    4.12757   4.12929   4.13044   4.13662   4.13877
 Alpha virt. eigenvalues --    4.14330   4.14678   4.14747   4.15706   4.15984
 Alpha virt. eigenvalues --    4.17193   4.17312   4.17389   4.17703   4.17735
 Alpha virt. eigenvalues --    4.17948   4.18544   4.18737   4.18797   4.19388
 Alpha virt. eigenvalues --    4.19895   4.20239   4.20535   4.20733   4.21131
 Alpha virt. eigenvalues --    4.21594   4.21652   4.21782   4.22070   4.22325
 Alpha virt. eigenvalues --    4.22396   4.22754   4.23313   4.23494   4.23950
 Alpha virt. eigenvalues --    4.23995   4.24603   4.25281   4.25390   4.25475
 Alpha virt. eigenvalues --    4.26147   4.26666   4.27007   4.27722   4.27873
 Alpha virt. eigenvalues --    4.30061   4.31047   4.31326   4.32466   4.32979
 Alpha virt. eigenvalues --    4.33245   4.33556   4.34025   4.34532   4.34684
 Alpha virt. eigenvalues --    4.35241   4.36099   4.36709   4.37194   4.37564
 Alpha virt. eigenvalues --    4.37931   4.38055   4.40042   4.40806   4.42329
 Alpha virt. eigenvalues --    4.42525   4.43089   4.44378   4.44540   4.45268
 Alpha virt. eigenvalues --    4.45379   4.45803   4.46517   4.46728   4.46955
 Alpha virt. eigenvalues --    4.47402   4.47599   4.48793   4.49130   4.49994
 Alpha virt. eigenvalues --    4.50591   4.50705   4.50766   4.50808   4.51450
 Alpha virt. eigenvalues --    4.52838   4.53306   4.54284   4.56053   4.56921
 Alpha virt. eigenvalues --    4.56988   4.57232   4.57932   4.59513   4.60240
 Alpha virt. eigenvalues --    4.60926   4.61972   4.62104   4.62490   4.62639
 Alpha virt. eigenvalues --    4.62935   4.63575   4.63730   4.63888   4.64147
 Alpha virt. eigenvalues --    4.64221   4.65063   4.65409   4.66012   4.66112
 Alpha virt. eigenvalues --    4.66738   4.67248   4.68190   4.68588   4.69161
 Alpha virt. eigenvalues --    4.69165   4.69894   4.71245   4.71412   4.71662
 Alpha virt. eigenvalues --    4.72247   4.72323   4.73643   4.74633   4.74817
 Alpha virt. eigenvalues --    4.75616   4.75733   4.75949   4.77249   4.77537
 Alpha virt. eigenvalues --    4.77901   4.78963   4.79189   4.79475   4.80265
 Alpha virt. eigenvalues --    4.81672   4.83498   4.83681   4.84776   4.86098
 Alpha virt. eigenvalues --    4.86812   4.87192   4.87680   4.87755   4.88290
 Alpha virt. eigenvalues --    4.88648   4.89265   4.89446   4.90335   4.90584
 Alpha virt. eigenvalues --    4.91119   4.91631   4.92670   4.93280   4.93978
 Alpha virt. eigenvalues --    4.95280   4.95580   4.96080   4.96375   4.96625
 Alpha virt. eigenvalues --    4.96907   4.97528   4.97801   4.99307   5.00870
 Alpha virt. eigenvalues --    5.01725   5.01883   5.02392   5.05484   5.06441
 Alpha virt. eigenvalues --    5.06531   5.06940   5.08080   5.08434   5.08744
 Alpha virt. eigenvalues --    5.09320   5.09668   5.10140   5.10211   5.11564
 Alpha virt. eigenvalues --    5.12214   5.12609   5.12701   5.13221   5.15159
 Alpha virt. eigenvalues --    5.16066   5.17494   5.18029   5.18899   5.20636
 Alpha virt. eigenvalues --    5.21312   5.22234   5.22530   5.23669   5.23778
 Alpha virt. eigenvalues --    5.23939   5.24933   5.24973   5.26029   5.26610
 Alpha virt. eigenvalues --    5.27489   5.27774   5.28032   5.28242   5.28854
 Alpha virt. eigenvalues --    5.30784   5.32458   5.33097   5.34108   5.34686
 Alpha virt. eigenvalues --    5.35245   5.36489   5.38852   5.40924   5.43677
 Alpha virt. eigenvalues --    5.45759   5.47172   5.47633   5.48576   5.48903
 Alpha virt. eigenvalues --    5.49766   5.50444   5.51178   5.51266   5.52178
 Alpha virt. eigenvalues --    5.52915   5.53736   5.54073   5.54999   5.56945
 Alpha virt. eigenvalues --    5.57309   5.59509   5.60656   5.61238   5.62188
 Alpha virt. eigenvalues --    5.63693   5.65018   5.65508   5.66760   5.67404
 Alpha virt. eigenvalues --    5.68481   5.68761   5.69160   5.71179   5.72249
 Alpha virt. eigenvalues --    5.73420   5.75776   5.76495   5.77090   5.78428
 Alpha virt. eigenvalues --    5.82169   5.83066   5.83670   5.85964   5.87217
 Alpha virt. eigenvalues --    5.88839   6.02644   6.04672   6.04861   6.05097
 Alpha virt. eigenvalues --    6.07988   6.16398   6.18441   6.20088   6.20823
 Alpha virt. eigenvalues --    6.23923   6.34147   6.34473   6.35462   6.45763
 Alpha virt. eigenvalues --    6.53765  21.96026  21.99694  22.01387  22.06187
 Alpha virt. eigenvalues --   22.19419  22.20843  22.20974  22.22209  22.30762
 Alpha virt. eigenvalues --   22.31336  22.31781  22.32275  22.34283  22.35201
 Alpha virt. eigenvalues --   22.37068  22.37717  22.38438  22.39656  22.41141
 Alpha virt. eigenvalues --   22.42459  22.44745  22.46147  22.46419  22.46771
 Alpha virt. eigenvalues --   22.47525  22.50876  22.52039  22.52929  22.55727
 Alpha virt. eigenvalues --   22.62669  22.65521  22.65767  22.69370  22.70895
 Alpha virt. eigenvalues --   22.71705  22.72898  22.76183  22.87549  22.91574
 Alpha virt. eigenvalues --   22.92216  22.93671  22.94411  22.95604  22.96474
 Alpha virt. eigenvalues --   22.97283  23.21872  23.22191  23.23469  23.25494
 Alpha virt. eigenvalues --   23.28832  23.46385  23.48034  23.48779  23.49725
 Alpha virt. eigenvalues --   23.50234  23.62977  31.95780  31.96849  32.96886
 Alpha virt. eigenvalues --   33.06101  33.10003  33.24067
          Condensed to atoms (all electrons):
 Mulliken charges:
               1
     1  C   -0.015806
     2  C   -0.066807
     3  C   -0.008721
     4  C    0.061692
     5  C    0.016467
     6  C    0.075265
     7  C   -0.277158
     8  C   -0.280831
     9  N    0.033667
    10  N    0.033100
    11  N    0.304217
    12  C    0.121817
    13  C   -0.017340
    14  C   -0.236858
    15  C    0.040923
    16  C   -0.208376
    17  C    0.013304
    18  C   -0.160451
    19  H    0.141810
    20  C   -0.234765
    21  C   -0.151590
    22  H    0.173534
    23  C   -0.257685
    24  C   -0.139115
    25  H    0.143179
    26  H    0.143400
    27  C   -0.133082
    28  H    0.144171
    29  H    0.142867
    30  H    0.141754
    31  H    0.142048
    32  N    0.437950
    33  C    0.015137
    34  C    0.026778
    35  C   -0.246878
    36  C    0.048121
    37  C   -0.253067
    38  C    0.046263
    39  C   -0.139983
    40  H    0.137523
    41  C   -0.255724
    42  C   -0.137921
    43  H    0.140560
    44  C   -0.253935
    45  C   -0.140076
    46  H    0.142054
    47  H    0.140902
    48  C   -0.142164
    49  H    0.142110
    50  H    0.140872
    51  H    0.140334
    52  H    0.140301
    53  N    0.302900
    54  C   -0.005253
    55  C    0.117893
    56  C   -0.209468
    57  C    0.010434
    58  C   -0.233514
    59  C    0.043043
    60  C   -0.153506
    61  H    0.175127
    62  C   -0.255965
    63  C   -0.162123
    64  H    0.142573
    65  C   -0.236547
    66  C   -0.134635
    67  H    0.143397
    68  H    0.142844
    69  C   -0.137124
    70  H    0.142809
    71  H    0.143434
    72  H    0.141810
    73  H    0.141766
    74  N    0.223375
    75  C    0.084202
    76  C    0.080569
    77  C   -0.239132
    78  C    0.005212
    79  C   -0.231761
    80  C    0.008173
    81  C   -0.147360
    82  H    0.162875
    83  C   -0.234935
    84  C   -0.154295
    85  H    0.162606
    86  C   -0.236525
    87  C   -0.142097
    88  H    0.144887
    89  H    0.144414
    90  C   -0.139307
    91  H    0.145214
    92  H    0.144541
    93  H    0.142737
    94  H    0.142926
 Sum of Mulliken charges =  -0.00000
 Mulliken charges with hydrogens summed into heavy atoms:
               1
     1  C   -0.015806
     2  C   -0.066807
     3  C   -0.008721
     4  C    0.061692
     5  C    0.016467
     6  C    0.075265
     7  C   -0.277158
     8  C   -0.280831
     9  N    0.033667
    10  N    0.033100
    11  N    0.304217
    12  C    0.121817
    13  C   -0.017340
    14  C   -0.095048
    15  C    0.040923
    16  C   -0.034842
    17  C    0.013304
    18  C   -0.017271
    20  C   -0.091365
    21  C   -0.007419
    23  C   -0.114818
    24  C    0.002639
    27  C    0.008966
    32  N    0.437950
    33  C    0.015137
    34  C    0.026778
    35  C   -0.109356
    36  C    0.048121
    37  C   -0.112507
    38  C    0.046263
    39  C    0.002070
    41  C   -0.114822
    42  C    0.004189
    44  C   -0.113063
    45  C    0.000258
    48  C   -0.001863
    53  N    0.302900
    54  C   -0.005253
    55  C    0.117893
    56  C   -0.034341
    57  C    0.010434
    58  C   -0.090941
    59  C    0.043043
    60  C   -0.010109
    62  C   -0.113120
    63  C   -0.019314
    65  C   -0.093113
    66  C    0.007175
    69  C    0.004642
    74  N    0.223375
    75  C    0.084202
    76  C    0.080569
    77  C   -0.076258
    78  C    0.005212
    79  C   -0.069155
    80  C    0.008173
    81  C   -0.002473
    83  C   -0.090521
    84  C   -0.009081
    86  C   -0.091984
    87  C    0.000640
    90  C    0.003619
 Electronic spatial extent (au):  <R**2>=          35129.7102
 Charge=             -0.0000 electrons
 Dipole moment (field-independent basis, Debye):
    X=              4.9769    Y=             -0.0914    Z=              0.0015  Tot=              4.9777
 Quadrupole moment (field-independent basis, Debye-Ang):
   XX=           -340.5986   YY=           -351.5849   ZZ=           -340.6755
   XY=              0.1803   XZ=             -0.4672   YZ=            -38.5258
 Traceless Quadrupole moment (field-independent basis, Debye-Ang):
   XX=              3.6878   YY=             -7.2986   ZZ=              3.6108
   XY=              0.1803   XZ=             -0.4672   YZ=            -38.5258
 Octapole moment (field-independent basis, Debye-Ang**2):
  XXX=             -7.4603  YYY=             -5.4265  ZZZ=              0.7642  XYY=            174.1959
  XXY=              0.0329  XXZ=              1.9645  XZZ=             60.1709  YZZ=              1.2422
  YYZ=             -0.8152  XYZ=            121.9346
 Hexadecapole moment (field-independent basis, Debye-Ang**3):
 XXXX=         -22025.5402 YYYY=         -17315.8487 ZZZZ=          -6452.9035 XXXY=            -13.0783
 XXXZ=             -7.3608 YYYX=             21.8995 YYYZ=           -612.9935 ZZZX=              0.3646
 ZZZY=           -271.4036 XXYY=          -7149.4609 XXZZ=          -4969.0713 YYZZ=          -3947.8095
 XXYZ=           -405.4870 YYXZ=             -3.9324 ZZXY=             -2.3510
 N-N= 8.800379115000D+03 E-N=-2.336002722036D+04  KE= 2.467898681387D+03
 Leave Link  601 at Wed Jun 29 20:06:29 2022, MaxMem=  5242880000 cpu:        20.8
 (Enter /opt/nce/packages/global/g09/l9999.exe)
 1\1\GINC-CN029\SP\RPBEPBE TD-FC\def2TZVP\C56H32N6\PNG4RJV\29-Jun-2022\
 0\\#p PBEPBE/def2TZVP td=(NStates=50) int=ultrafine scrf=(SMD,solvent=
 Acetonitrile) EmpiricalDispersion=GD3BJ\\Title\\0,1\C,0,-0.128667,1.18
 0066,0.319796\C,0,0.57991,0.001814,-0.00968\C,0,-0.145944,-1.163319,-0
 .35338\C,0,-1.560225,-1.133178,-0.388333\C,0,-2.269771,0.022627,-0.010
 29\C,0,-1.543483,1.170949,0.356024\C,0,-2.269017,-2.239954,-0.932205\C
 ,0,-2.233287,2.293372,0.892217\N,0,-2.853048,-3.131636,-1.403201\N,0,-
 2.801245,3.199304,1.355606\N,0,0.538161,2.365821,0.658121\C,0,1.481365
 ,2.535026,1.685549\C,0,0.42705,3.575449,-0.055479\C,0,1.862948,1.64656
 3,2.690283\C,0,1.99164,3.858423,1.616448\C,0,-0.346711,3.872136,-1.177
 979\C,0,1.324613,4.516556,0.511869\C,0,2.819358,2.085378,3.607419\H,0,
 1.432932,0.648943,2.767929\C,0,2.944994,4.277217,2.553004\C,0,-0.22767
 3,5.153545,-1.719478\H,0,-1.012333,3.135775,-1.63013\C,0,1.427958,5.79
 419,-0.052724\C,0,3.362294,3.380773,3.536778\H,0,3.145201,1.406332,4.3
 97259\H,0,3.347854,5.290983,2.51413\C,0,0.644796,6.10615,-1.163716\H,0
 ,-0.824569,5.415338,-2.594774\H,0,2.11763,6.528346,0.367929\H,0,4.1086
 96,3.690418,4.270081\H,0,0.712833,7.098114,-1.613208\N,0,1.985798,-0.0
 15811,0.012213\C,0,2.77797,-0.848509,0.821112\C,0,2.83337,0.791646,-0.
 765007\C,0,2.389091,-1.76572,1.797527\C,0,4.144999,-0.572717,0.554026\
 C,0,2.511422,1.72595,-1.749498\C,0,4.180134,0.470305,-0.449104\C,0,3.3
 96996,-2.448554,2.48025\H,0,1.341234,-1.940968,2.037149\C,0,5.138368,-
 1.267064,1.256426\C,0,3.565855,2.376541,-2.392218\H,0,1.479208,1.93933
 ,-2.023754\C,0,5.221018,1.133223,-1.111714\C,0,4.756444,-2.21046,2.209
 849\H,0,3.118048,-3.177907,3.242803\H,0,6.193517,-1.065001,1.062659\C,
 0,4.905967,2.091648,-2.074468\H,0,3.339323,3.11846,-3.15998\H,0,6.2610
 21,0.896227,-0.879482\H,0,5.51871,-2.762854,2.761729\H,0,5.705742,2.62
 0163,-2.595787\N,0,0.506271,-2.353711,-0.702029\C,0,0.3745,-3.574619,-
 0.010281\C,0,1.469893,-2.51285,-1.712759\C,0,-0.428669,-3.888033,1.086
 496\C,0,1.282138,-4.509848,-0.571034\C,0,1.870208,-1.614111,-2.700822\
 C,0,1.975055,-3.838261,-1.651262\C,0,-0.326248,-5.178041,1.610562\H,0,
 -1.106101,-3.157955,1.530712\C,0,1.368589,-5.796565,-0.024586\C,0,2.84
 3092,-2.043571,-3.604989\H,0,1.440088,-0.616411,-2.778029\C,0,2.945453
 ,-4.247816,-2.574243\C,0,0.55798,-6.123896,1.061968\H,0,-0.946689,-5.4
 52684,2.465302\H,0,2.065758,-6.526074,-0.440899\C,0,3.383491,-3.340206
 ,-3.538564\H,0,3.183705,-1.356224,-4.381343\H,0,3.344992,-5.263058,-2.
 540408\H,0,0.612186,-7.123211,1.496819\H,0,4.143078,-3.642654,-4.26128
 4\N,0,-3.669529,0.026352,0.00402\C,0,-4.499192,0.879542,-0.746047\C,0,
 -4.478546,-0.836096,0.765817\C,0,-4.152106,1.868306,-1.667483\C,0,-5.8
 51735,0.554751,-0.461182\C,0,-4.104858,-1.816811,1.685331\C,0,-5.83856
 ,-0.529999,0.498597\C,0,-5.193597,2.554881,-2.294354\H,0,-3.112145,2.1
 02764,-1.897151\C,0,-6.877645,1.257181,-1.106502\C,0,-5.127842,-2.5180
 25,2.326103\H,0,-3.058101,-2.032132,1.90308\C,0,-6.845774,-1.246747,1.
 157592\C,0,-6.540042,2.258242,-2.016653\H,0,-4.952417,3.337474,-3.0157
 01\H,0,-7.922776,1.018509,-0.900848\C,0,-6.481922,-2.242199,2.063865\H
 ,0,-4.866042,-3.295054,3.046268\H,0,-7.896889,-1.023756,0.965309\H,0,-
 7.328019,2.815911,-2.525408\H,0,-7.255208,-2.811042,2.582686\\Version=
 ES64L-G09RevE.01\State=1-A\HF=-2479.8202076\RMSD=3.841e-09\PG=C01 [X(C
 56H32N6)]\\@


 CHRISTMAS IS ON TOP OF A STEEP HILL.
 THE CLOSER YOU GET, THE STEEPER THE HILL IS.
          -- LINUS, OF PEANUTS
 Job cpu time:      10 days 16 hours 10 minutes 19.4 seconds.
 File lengths (MBytes):  RWF=  26874 Int=      0 D2E=      0 Chk=   6203 Scr=      1
 Normal termination of Gaussian 09 at Wed Jun 29 20:06:39 2022.
