 Entering Gaussian System, Link 0=g09
 Input=/home/png4rjv/fotokatalizis/benchmark/OPCs/CA_50_states/CA_1_TDHF_def2TZVP.gjf
 Output=/home/png4rjv/fotokatalizis/benchmark/OPCs/CA_50_states/CA_1_TDHF_def2TZVP.log
 Initial command:
 /opt/nce/packages/global/g09/l1.exe "/home/png4rjv/fotokatalizis/benchmark/OPCs/CA_50_states/CA_1_TDHF_def2TZVP/Gau-43918.inp" -scrdir="/home/png4rjv/fotokatalizis/benchmark/OPCs/CA_50_states/CA_1_TDHF_def2TZVP/"
 Default is to use a total of  12 processors:
                               12 via shared-memory
                                1 via Linda
 Entering Link 1 = /opt/nce/packages/global/g09/l1.exe PID=     43919.
  
 Copyright (c) 1988,1990,1992,1993,1995,1998,2003,2009,2015,
            Gaussian, Inc.  All Rights Reserved.
  
 This is part of the Gaussian(R) 09 program.  It is based on
 the Gaussian(R) 03 system (copyright 2003, Gaussian, Inc.),
 the Gaussian(R) 98 system (copyright 1998, Gaussian, Inc.),
 the Gaussian(R) 94 system (copyright 1995, Gaussian, Inc.),
 the Gaussian 92(TM) system (copyright 1992, Gaussian, Inc.),
 the Gaussian 90(TM) system (copyright 1990, Gaussian, Inc.),
 the Gaussian 88(TM) system (copyright 1988, Gaussian, Inc.),
 the Gaussian 86(TM) system (copyright 1986, Carnegie Mellon
 University), and the Gaussian 82(TM) system (copyright 1983,
 Carnegie Mellon University). Gaussian is a federally registered
 trademark of Gaussian, Inc.
  
 This software contains proprietary and confidential information,
 including trade secrets, belonging to Gaussian, Inc.
  
 This software is provided under written license and may be
 used, copied, transmitted, or stored only in accord with that
 written license.
  
 The following legend is applicable only to US Government
 contracts under FAR:
  
                    RESTRICTED RIGHTS LEGEND
  
 Use, reproduction and disclosure by the US Government is
 subject to restrictions as set forth in subparagraphs (a)
 and (c) of the Commercial Computer Software - Restricted
 Rights clause in FAR 52.227-19.
  
 Gaussian, Inc.
 340 Quinnipiac St., Bldg. 40, Wallingford CT 06492
  
  
 ---------------------------------------------------------------
 Warning -- This program may not be used in any manner that
 competes with the business of Gaussian, Inc. or will provide
 assistance to any competitor of Gaussian, Inc.  The licensee
 of this program is prohibited from giving any competitor of
 Gaussian, Inc. access to this program.  By using this program,
 the user acknowledges that Gaussian, Inc. is engaged in the
 business of creating and licensing software in the field of
 computational chemistry and represents and warrants to the
 licensee that it is not a competitor of Gaussian, Inc. and that
 it will not use this program in any manner prohibited above.
 ---------------------------------------------------------------
  

 Cite this work as:
 Gaussian 09, Revision E.01,
 M. J. Frisch, G. W. Trucks, H. B. Schlegel, G. E. Scuseria, 
 M. A. Robb, J. R. Cheeseman, G. Scalmani, V. Barone, B. Mennucci, 
 G. A. Petersson, H. Nakatsuji, M. Caricato, X. Li, H. P. Hratchian, 
 A. F. Izmaylov, J. Bloino, G. Zheng, J. L. Sonnenberg, M. Hada, 
 M. Ehara, K. Toyota, R. Fukuda, J. Hasegawa, M. Ishida, T. Nakajima, 
 Y. Honda, O. Kitao, H. Nakai, T. Vreven, J. A. Montgomery, Jr., 
 J. E. Peralta, F. Ogliaro, M. Bearpark, J. J. Heyd, E. Brothers, 
 K. N. Kudin, V. N. Staroverov, T. Keith, R. Kobayashi, J. Normand, 
 K. Raghavachari, A. Rendell, J. C. Burant, S. S. Iyengar, J. Tomasi, 
 M. Cossi, N. Rega, J. M. Millam, M. Klene, J. E. Knox, J. B. Cross, 
 V. Bakken, C. Adamo, J. Jaramillo, R. Gomperts, R. E. Stratmann, 
 O. Yazyev, A. J. Austin, R. Cammi, C. Pomelli, J. W. Ochterski, 
 R. L. Martin, K. Morokuma, V. G. Zakrzewski, G. A. Voth, 
 P. Salvador, J. J. Dannenberg, S. Dapprich, A. D. Daniels, 
 O. Farkas, J. B. Foresman, J. V. Ortiz, J. Cioslowski, 
 and D. J. Fox, Gaussian, Inc., Wallingford CT, 2013.
 
 ******************************************
 Gaussian 09:  ES64L-G09RevE.01 30-Nov-2015
                29-Jun-2022 
 ******************************************
 %chk=cp.chk
 Default route:  MaxDisk=500GB
 ----------------------------------------------------------------------
 #p hf/def2TZVP td=(NStates=50) int=ultrafine scrf=(SMD,solvent=Acetoni
 trile)
 ----------------------------------------------------------------------
 1/38=1/1;
 2/12=2,17=6,18=5,40=1/2;
 3/5=44,7=101,11=9,16=1,25=1,30=1,70=32201,72=2,75=-5/1,2,8,3;
 4//1;
 5/5=2,38=5,53=2/2;
 8/6=1,10=1,108=50/1;
 9/41=50,42=1,70=2/14;
 6/7=2,8=2,9=2,10=2/1;
 99/5=1,9=1/99;
 Leave Link    1 at Wed Jun 29 01:27:22 2022, MaxMem=           0 cpu:         0.9
 (Enter /opt/nce/packages/global/g09/l101.exe)
 -----
 Title
 -----
 Symbolic Z-matrix:
 Charge =  0 Multiplicity = 1
 C                    -0.02411   1.20012   0.02451 
 C                     0.69447   0.00291   0.00097 
 C                    -0.00629  -1.20487  -0.02449 
 C                    -1.39762  -1.19852  -0.02981 
 C                    -2.11775  -0.0182   -0.00126 
 C                    -1.41505   1.17253   0.02758 
 C                    -2.11337  -2.44963  -0.06765 
 C                    -2.1495    2.41264   0.06392 
 N                    -2.67778  -3.42394  -0.09901 
 N                    -2.72831   3.37851   0.09417 
 N                     0.62003   2.45415   0.04299 
 C                     0.91535   3.19987   1.18264 
 C                     0.86041   3.25408  -1.07301 
 C                     0.73405   2.87563   2.5168 
 C                     1.42463   4.4383    0.79613 
 C                     0.61498   2.99261  -2.41085 
 C                     1.38973   4.47284  -0.6534 
 C                     1.10562   3.81094   3.45887 
 H                     0.31646   1.93502   2.8149 
 C                     1.80038   5.36415   1.75958 
 C                     0.94245   3.97145  -3.32449 
 H                     0.18086   2.06734  -2.73246 
 C                     1.72082   5.44324  -1.58921 
 C                     1.64302   5.0432    3.08971 
 H                     0.97529   3.5832    4.50049 
 H                     2.19723   6.31953   1.47091 
 C                     1.49918   5.18527  -2.92381 
 H                     0.76174   3.79297  -4.36818 
 H                     2.13312   6.38402  -1.27536 
 H                     1.92466   5.7481    3.84914 
 H                     1.74537   5.92534  -3.66181 
 N                     2.10554   0.01303   0.00608 
 C                     2.91755  -0.03416   1.13578 
 C                     2.92915   0.07064  -1.11484 
 C                     2.56467  -0.09808   2.47372 
 C                     4.25433  -0.00699   0.74136 
 C                     2.59027   0.12833  -2.45674 
 C                     4.26172   0.06071  -0.70562 
 C                     3.57854  -0.13546   3.40579 
 H                     1.54023  -0.11687   2.78254 
 C                     5.2634   -0.04523   1.69438 
 C                     3.61376   0.17779  -3.37754 
 H                     1.56886   0.13368  -2.77534 
 C                     5.28067   0.1104   -1.6475 
 C                     4.92014  -0.1099    3.02598 
 H                     3.3268   -0.18529   4.44894 
 H                     6.29493  -0.02493   1.39565 
 C                     4.95131   0.16936  -2.98284 
 H                     3.37314   0.2232   -4.42355 
 H                     6.30903   0.10285  -1.33741 
 H                     5.68586  -0.1405    3.7782 
 H                     5.72491   0.20857  -3.72653 
 N                     0.65759  -2.44801  -0.04369 
 C                     0.89885  -3.25092   1.06946 
 C                     0.98139  -3.17936  -1.18494 
 C                     0.63573  -3.00071   2.40602 
 C                     1.45357  -4.45775   0.64809 
 C                     0.81211  -2.84765  -2.51896 
 C                     1.5072   -4.41156  -0.80068 
 C                     0.9681   -3.98029   3.31711 
 H                     0.18652  -2.083     2.72865 
 C                     1.78927  -5.42879   1.58158 
 C                     1.21326  -3.76864  -3.46294 
 H                     0.38011  -1.9128   -2.81464 
 C                     1.9127   -5.3227   -1.7661 
 C                     1.54786  -5.18293   2.91509 
 H                     0.77365  -3.81122   4.35992 
 H                     2.22066  -6.36074   1.26706 
 C                     1.76801  -4.99387  -3.09575 
 H                     1.09305  -3.53511  -4.50449 
 H                     2.32272  -6.27315  -1.47951 
 H                     1.7971   -5.92376   3.6513 
 H                     2.07317  -5.68737  -3.85661 
 N                    -3.52172  -0.02728  -0.00369 
 C                    -4.32992   0.00226  -1.13558 
 C                    -4.3373   -0.06209   1.12264 
 C                    -3.96315   0.04204  -2.47041 
 C                    -5.66527  -0.01394  -0.73705 
 C                    -3.97986  -0.09706   2.46015 
 C                    -5.67001  -0.05526   0.71468 
 C                    -4.97558   0.06589  -3.40641 
 H                    -2.93336   0.05365  -2.77156 
 C                    -6.66855   0.01068  -1.69576 
 C                    -4.99879  -0.12577   3.38894 
 H                    -2.95197  -0.10194   2.76816 
 C                    -6.67985  -0.08457   1.66624 
 C                    -6.31736   0.05067  -3.02767 
 H                    -4.7225    0.09688  -4.44978 
 H                    -7.70211  -0.00089  -1.40398 
 C                    -6.3379   -0.1198    3.00068 
 H                    -4.75305  -0.15316   4.43419 
 H                    -7.71134  -0.0796    1.367 
 H                    -7.08066   0.07019  -3.78258 
 H                    -7.10643  -0.14252   3.75013 
 
 NAtoms=     94 NQM=       94 NQMF=       0 NMMI=      0 NMMIF=      0
                NMic=       0 NMicF=      0.
                    Isotopes and Nuclear Properties:
 (Nuclear quadrupole moments (NQMom) in fm**2, nuclear magnetic moments (NMagM)
  in nuclear magnetons)

  Atom         1           2           3           4           5           6           7           8           9          10
 IAtWgt=          12          12          12          12          12          12          12          12          14          14
 AtmWgt=  12.0000000  12.0000000  12.0000000  12.0000000  12.0000000  12.0000000  12.0000000  12.0000000  14.0030740  14.0030740
 NucSpn=           0           0           0           0           0           0           0           0           2           2
 AtZEff=   0.0000000   0.0000000   0.0000000   0.0000000   0.0000000   0.0000000   0.0000000   0.0000000   0.0000000   0.0000000
 NQMom=    0.0000000   0.0000000   0.0000000   0.0000000   0.0000000   0.0000000   0.0000000   0.0000000   2.0440000   2.0440000
 NMagM=    0.0000000   0.0000000   0.0000000   0.0000000   0.0000000   0.0000000   0.0000000   0.0000000   0.4037610   0.4037610
 AtZNuc=   6.0000000   6.0000000   6.0000000   6.0000000   6.0000000   6.0000000   6.0000000   6.0000000   7.0000000   7.0000000

  Atom        11          12          13          14          15          16          17          18          19          20
 IAtWgt=          14          12          12          12          12          12          12          12           1          12
 AtmWgt=  14.0030740  12.0000000  12.0000000  12.0000000  12.0000000  12.0000000  12.0000000  12.0000000   1.0078250  12.0000000
 NucSpn=           2           0           0           0           0           0           0           0           1           0
 AtZEff=   0.0000000   0.0000000   0.0000000   0.0000000   0.0000000   0.0000000   0.0000000   0.0000000   0.0000000   0.0000000
 NQMom=    2.0440000   0.0000000   0.0000000   0.0000000   0.0000000   0.0000000   0.0000000   0.0000000   0.0000000   0.0000000
 NMagM=    0.4037610   0.0000000   0.0000000   0.0000000   0.0000000   0.0000000   0.0000000   0.0000000   2.7928460   0.0000000
 AtZNuc=   7.0000000   6.0000000   6.0000000   6.0000000   6.0000000   6.0000000   6.0000000   6.0000000   1.0000000   6.0000000

  Atom        21          22          23          24          25          26          27          28          29          30
 IAtWgt=          12           1          12          12           1           1          12           1           1           1
 AtmWgt=  12.0000000   1.0078250  12.0000000  12.0000000   1.0078250   1.0078250  12.0000000   1.0078250   1.0078250   1.0078250
 NucSpn=           0           1           0           0           1           1           0           1           1           1
 AtZEff=   0.0000000   0.0000000   0.0000000   0.0000000   0.0000000   0.0000000   0.0000000   0.0000000   0.0000000   0.0000000
 NQMom=    0.0000000   0.0000000   0.0000000   0.0000000   0.0000000   0.0000000   0.0000000   0.0000000   0.0000000   0.0000000
 NMagM=    0.0000000   2.7928460   0.0000000   0.0000000   2.7928460   2.7928460   0.0000000   2.7928460   2.7928460   2.7928460
 AtZNuc=   6.0000000   1.0000000   6.0000000   6.0000000   1.0000000   1.0000000   6.0000000   1.0000000   1.0000000   1.0000000

  Atom        31          32          33          34          35          36          37          38          39          40
 IAtWgt=           1          14          12          12          12          12          12          12          12           1
 AtmWgt=   1.0078250  14.0030740  12.0000000  12.0000000  12.0000000  12.0000000  12.0000000  12.0000000  12.0000000   1.0078250
 NucSpn=           1           2           0           0           0           0           0           0           0           1
 AtZEff=   0.0000000   0.0000000   0.0000000   0.0000000   0.0000000   0.0000000   0.0000000   0.0000000   0.0000000   0.0000000
 NQMom=    0.0000000   2.0440000   0.0000000   0.0000000   0.0000000   0.0000000   0.0000000   0.0000000   0.0000000   0.0000000
 NMagM=    2.7928460   0.4037610   0.0000000   0.0000000   0.0000000   0.0000000   0.0000000   0.0000000   0.0000000   2.7928460
 AtZNuc=   1.0000000   7.0000000   6.0000000   6.0000000   6.0000000   6.0000000   6.0000000   6.0000000   6.0000000   1.0000000

  Atom        41          42          43          44          45          46          47          48          49          50
 IAtWgt=          12          12           1          12          12           1           1          12           1           1
 AtmWgt=  12.0000000  12.0000000   1.0078250  12.0000000  12.0000000   1.0078250   1.0078250  12.0000000   1.0078250   1.0078250
 NucSpn=           0           0           1           0           0           1           1           0           1           1
 AtZEff=   0.0000000   0.0000000   0.0000000   0.0000000   0.0000000   0.0000000   0.0000000   0.0000000   0.0000000   0.0000000
 NQMom=    0.0000000   0.0000000   0.0000000   0.0000000   0.0000000   0.0000000   0.0000000   0.0000000   0.0000000   0.0000000
 NMagM=    0.0000000   0.0000000   2.7928460   0.0000000   0.0000000   2.7928460   2.7928460   0.0000000   2.7928460   2.7928460
 AtZNuc=   6.0000000   6.0000000   1.0000000   6.0000000   6.0000000   1.0000000   1.0000000   6.0000000   1.0000000   1.0000000

  Atom        51          52          53          54          55          56          57          58          59          60
 IAtWgt=           1           1          14          12          12          12          12          12          12          12
 AtmWgt=   1.0078250   1.0078250  14.0030740  12.0000000  12.0000000  12.0000000  12.0000000  12.0000000  12.0000000  12.0000000
 NucSpn=           1           1           2           0           0           0           0           0           0           0
 AtZEff=   0.0000000   0.0000000   0.0000000   0.0000000   0.0000000   0.0000000   0.0000000   0.0000000   0.0000000   0.0000000
 NQMom=    0.0000000   0.0000000   2.0440000   0.0000000   0.0000000   0.0000000   0.0000000   0.0000000   0.0000000   0.0000000
 NMagM=    2.7928460   2.7928460   0.4037610   0.0000000   0.0000000   0.0000000   0.0000000   0.0000000   0.0000000   0.0000000
 AtZNuc=   1.0000000   1.0000000   7.0000000   6.0000000   6.0000000   6.0000000   6.0000000   6.0000000   6.0000000   6.0000000

  Atom        61          62          63          64          65          66          67          68          69          70
 IAtWgt=           1          12          12           1          12          12           1           1          12           1
 AtmWgt=   1.0078250  12.0000000  12.0000000   1.0078250  12.0000000  12.0000000   1.0078250   1.0078250  12.0000000   1.0078250
 NucSpn=           1           0           0           1           0           0           1           1           0           1
 AtZEff=   0.0000000   0.0000000   0.0000000   0.0000000   0.0000000   0.0000000   0.0000000   0.0000000   0.0000000   0.0000000
 NQMom=    0.0000000   0.0000000   0.0000000   0.0000000   0.0000000   0.0000000   0.0000000   0.0000000   0.0000000   0.0000000
 NMagM=    2.7928460   0.0000000   0.0000000   2.7928460   0.0000000   0.0000000   2.7928460   2.7928460   0.0000000   2.7928460
 AtZNuc=   1.0000000   6.0000000   6.0000000   1.0000000   6.0000000   6.0000000   1.0000000   1.0000000   6.0000000   1.0000000

  Atom        71          72          73          74          75          76          77          78          79          80
 IAtWgt=           1           1           1          14          12          12          12          12          12          12
 AtmWgt=   1.0078250   1.0078250   1.0078250  14.0030740  12.0000000  12.0000000  12.0000000  12.0000000  12.0000000  12.0000000
 NucSpn=           1           1           1           2           0           0           0           0           0           0
 AtZEff=   0.0000000   0.0000000   0.0000000   0.0000000   0.0000000   0.0000000   0.0000000   0.0000000   0.0000000   0.0000000
 NQMom=    0.0000000   0.0000000   0.0000000   2.0440000   0.0000000   0.0000000   0.0000000   0.0000000   0.0000000   0.0000000
 NMagM=    2.7928460   2.7928460   2.7928460   0.4037610   0.0000000   0.0000000   0.0000000   0.0000000   0.0000000   0.0000000
 AtZNuc=   1.0000000   1.0000000   1.0000000   7.0000000   6.0000000   6.0000000   6.0000000   6.0000000   6.0000000   6.0000000

  Atom        81          82          83          84          85          86          87          88          89          90
 IAtWgt=          12           1          12          12           1          12          12           1           1          12
 AtmWgt=  12.0000000   1.0078250  12.0000000  12.0000000   1.0078250  12.0000000  12.0000000   1.0078250   1.0078250  12.0000000
 NucSpn=           0           1           0           0           1           0           0           1           1           0
 AtZEff=   0.0000000   0.0000000   0.0000000   0.0000000   0.0000000   0.0000000   0.0000000   0.0000000   0.0000000   0.0000000
 NQMom=    0.0000000   0.0000000   0.0000000   0.0000000   0.0000000   0.0000000   0.0000000   0.0000000   0.0000000   0.0000000
 NMagM=    0.0000000   2.7928460   0.0000000   0.0000000   2.7928460   0.0000000   0.0000000   2.7928460   2.7928460   0.0000000
 AtZNuc=   6.0000000   1.0000000   6.0000000   6.0000000   1.0000000   6.0000000   6.0000000   1.0000000   1.0000000   6.0000000

  Atom        91          92          93          94
 IAtWgt=           1           1           1           1
 AtmWgt=   1.0078250   1.0078250   1.0078250   1.0078250
 NucSpn=           1           1           1           1
 AtZEff=   0.0000000   0.0000000   0.0000000   0.0000000
 NQMom=    0.0000000   0.0000000   0.0000000   0.0000000
 NMagM=    2.7928460   2.7928460   2.7928460   2.7928460
 AtZNuc=   1.0000000   1.0000000   1.0000000   1.0000000
 Leave Link  101 at Wed Jun 29 01:27:22 2022, MaxMem=  5242880000 cpu:         1.2
 (Enter /opt/nce/packages/global/g09/l202.exe)
 Stoichiometry    C56H32N6
 Framework group  C1[X(C56H32N6)]
 Deg. of freedom   276
 Full point group                 C1      NOp   1
 Largest Abelian subgroup         C1      NOp   1
 Largest concise Abelian subgroup C1      NOp   1
                         Standard orientation:                         
 ---------------------------------------------------------------------
 Center     Atomic      Atomic             Coordinates (Angstroms)
 Number     Number       Type             X           Y           Z
 ---------------------------------------------------------------------
      1          6           0       -0.024105    1.200118    0.024507
      2          6           0        0.694466    0.002905    0.000974
      3          6           0       -0.006291   -1.204866   -0.024488
      4          6           0       -1.397623   -1.198516   -0.029807
      5          6           0       -2.117747   -0.018203   -0.001261
      6          6           0       -1.415047    1.172534    0.027582
      7          6           0       -2.113368   -2.449631   -0.067648
      8          6           0       -2.149496    2.412643    0.063921
      9          7           0       -2.677778   -3.423944   -0.099011
     10          7           0       -2.728309    3.378509    0.094174
     11          7           0        0.620026    2.454145    0.042994
     12          6           0        0.915354    3.199870    1.182635
     13          6           0        0.860411    3.254082   -1.073013
     14          6           0        0.734045    2.875633    2.516799
     15          6           0        1.424627    4.438300    0.796134
     16          6           0        0.614981    2.992610   -2.410852
     17          6           0        1.389727    4.472844   -0.653403
     18          6           0        1.105622    3.810936    3.458872
     19          1           0        0.316458    1.935020    2.814897
     20          6           0        1.800376    5.364154    1.759583
     21          6           0        0.942454    3.971453   -3.324485
     22          1           0        0.180856    2.067344   -2.732462
     23          6           0        1.720824    5.443242   -1.589208
     24          6           0        1.643015    5.043199    3.089706
     25          1           0        0.975289    3.583197    4.500488
     26          1           0        2.197227    6.319527    1.470914
     27          6           0        1.499183    5.185271   -2.923805
     28          1           0        0.761737    3.792973   -4.368183
     29          1           0        2.133116    6.384021   -1.275363
     30          1           0        1.924663    5.748095    3.849142
     31          1           0        1.745370    5.925343   -3.661807
     32          7           0        2.105539    0.013031    0.006083
     33          6           0        2.917548   -0.034156    1.135783
     34          6           0        2.929148    0.070640   -1.114836
     35          6           0        2.564666   -0.098075    2.473716
     36          6           0        4.254329   -0.006992    0.741362
     37          6           0        2.590265    0.128325   -2.456740
     38          6           0        4.261719    0.060705   -0.705620
     39          6           0        3.578544   -0.135462    3.405787
     40          1           0        1.540234   -0.116865    2.782539
     41          6           0        5.263395   -0.045225    1.694381
     42          6           0        3.613755    0.177791   -3.377541
     43          1           0        1.568858    0.133680   -2.775339
     44          6           0        5.280674    0.110399   -1.647503
     45          6           0        4.920140   -0.109901    3.025984
     46          1           0        3.326796   -0.185288    4.448941
     47          1           0        6.294934   -0.024928    1.395650
     48          6           0        4.951310    0.169361   -2.982844
     49          1           0        3.373138    0.223200   -4.423546
     50          1           0        6.309031    0.102852   -1.337405
     51          1           0        5.685863   -0.140500    3.778202
     52          1           0        5.724909    0.208572   -3.726529
     53          7           0        0.657585   -2.448010   -0.043693
     54          6           0        0.898853   -3.250922    1.069464
     55          6           0        0.981392   -3.179362   -1.184942
     56          6           0        0.635728   -3.000713    2.406022
     57          6           0        1.453568   -4.457749    0.648094
     58          6           0        0.812108   -2.847648   -2.518964
     59          6           0        1.507201   -4.411557   -0.800678
     60          6           0        0.968103   -3.980288    3.317111
     61          1           0        0.186518   -2.083002    2.728653
     62          6           0        1.789267   -5.428790    1.581582
     63          6           0        1.213264   -3.768635   -3.462940
     64          1           0        0.380109   -1.912797   -2.814636
     65          6           0        1.912696   -5.322700   -1.766099
     66          6           0        1.547861   -5.182931    2.915090
     67          1           0        0.773652   -3.811224    4.359918
     68          1           0        2.220662   -6.360736    1.267058
     69          6           0        1.768007   -4.993872   -3.095747
     70          1           0        1.093053   -3.535105   -4.504488
     71          1           0        2.322723   -6.273148   -1.479514
     72          1           0        1.797095   -5.923755    3.651297
     73          1           0        2.073166   -5.687367   -3.856610
     74          7           0       -3.521715   -0.027283   -0.003693
     75          6           0       -4.329923    0.002260   -1.135584
     76          6           0       -4.337298   -0.062092    1.122637
     77          6           0       -3.963149    0.042042   -2.470408
     78          6           0       -5.665265   -0.013944   -0.737053
     79          6           0       -3.979863   -0.097064    2.460149
     80          6           0       -5.670007   -0.055262    0.714681
     81          6           0       -4.975578    0.065890   -3.406414
     82          1           0       -2.933355    0.053647   -2.771559
     83          6           0       -6.668547    0.010675   -1.695763
     84          6           0       -4.998785   -0.125767    3.388942
     85          1           0       -2.951965   -0.101943    2.768164
     86          6           0       -6.679852   -0.084571    1.666241
     87          6           0       -6.317363    0.050668   -3.027675
     88          1           0       -4.722503    0.096884   -4.449784
     89          1           0       -7.702109   -0.000894   -1.403981
     90          6           0       -6.337898   -0.119799    3.000685
     91          1           0       -4.753051   -0.153156    4.434191
     92          1           0       -7.711341   -0.079603    1.367004
     93          1           0       -7.080657    0.070189   -3.782577
     94          1           0       -7.106426   -0.142516    3.750133
 ---------------------------------------------------------------------
 Rotational constants (GHZ):      0.0523644      0.0435578      0.0347255
 Leave Link  202 at Wed Jun 29 01:27:22 2022, MaxMem=  5242880000 cpu:         0.1
 (Enter /opt/nce/packages/global/g09/l301.exe)
 Standard basis: def2TZVP (5D, 7F)
 Ernie: Thresh=  0.10000D-02 Tol=  0.10000D-05 Strict=F.
 There are  2424 symmetry adapted cartesian basis functions of A   symmetry.
 There are  2114 symmetry adapted basis functions of A   symmetry.
  2114 basis functions,  3418 primitive gaussians,  2424 cartesian basis functions
   205 alpha electrons      205 beta electrons
       nuclear repulsion energy      8753.4229651320 Hartrees.
 IExCor=    0 DFT=F Ex=HF Corr=None ExCW=0 ScaHFX=  1.000000
 ScaDFX=  1.000000  1.000000  1.000000  1.000000 ScalE2=  1.000000  1.000000
 IRadAn=      5 IRanWt=     -1 IRanGd=            0 ICorTp=0 IEmpDi=  4
 NAtoms=   94 NActive=   94 NUniq=   94 SFac= 1.00D+00 NAtFMM=   60 NAOKFM=T Big=T
 Integral buffers will be    131072 words long.
 Raffenetti 1 integral format.
 Two-electron integral symmetry is turned on.
 ------------------------------------------------------------------------------
 Polarizable Continuum Model (PCM)
 =================================
 Model                : PCM (using non-symmetric T matrix).
 Atomic radii         : SMD-Coulomb.
 Polarization charges : Total charges.
 Charge compensation  : None.
 Solution method      : On-the-fly selection.
 Cavity type          : VdW (van der Waals Surface) (Alpha=1.000).
 Cavity algorithm     : GePol (No added spheres)
                        Default sphere list used, NSphG=   94.
                        Lebedev-Laikov grids with approx.  5.0 points / Ang**2.
                        Smoothing algorithm: York/Karplus (Gamma=1.0000).
                        Polarization charges: spherical gaussians, with
                                              point-specific exponents (IZeta= 3).
                        Self-potential: point-specific (ISelfS= 7).
                        Self-field    : sphere-specific E.n sum rule (ISelfD= 2).
 Solvent              : Acetonitrile, Eps=  35.688000 Eps(inf)=   1.806874
 ------------------------------------------------------------------------------
 GePol: Number of generator spheres                  =      94
 GePol: Total number of spheres                      =      94
 GePol: Number of exposed spheres                    =      94 (100.00%)
 GePol: Number of points                             =    7550
 GePol: Average weight of points                     =       0.10
 GePol: Minimum weight of points                     =   0.20D-09
 GePol: Maximum weight of points                     =    0.17992
 GePol: Number of points with low weight             =     447
 GePol: Fraction of low-weight points (<1% of avg)   =       5.92%
 GePol: Cavity surface area                          =    774.972 Ang**2
 GePol: Cavity volume                                =    781.682 Ang**3
 ------------------------------------------------------------------------------
 Atomic radii for non-electrostatic terms: SMD-CDS.
 ------------------------------------------------------------------------------
 PCM non-electrostatic energy =        -0.0173169935 Hartrees.
 Nuclear repulsion after PCM non-electrostatic terms =     8753.4056481385 Hartrees.
 Leave Link  301 at Wed Jun 29 01:27:22 2022, MaxMem=  5242880000 cpu:         2.3
 (Enter /opt/nce/packages/global/g09/l302.exe)
 NPDir=0 NMtPBC=     1 NCelOv=     1 NCel=       1 NClECP=     1 NCelD=      1
         NCelK=      1 NCelE2=     1 NClLst=     1 CellRange=     0.0.
 One-electron integrals computed using PRISM.
   1 Symmetry operations used in ECPInt.
 ECPInt:  NShTT=  328455 NPrTT= 1027488 LenC2=  241241 LenP2D=  482029.
 LDataN:  DoStor=T MaxTD1= 6 Len=  172
 NBasis=  2114 RedAO= T EigKep=  2.55D-06  NBF=  2114
 NBsUse=  2113 1.00D-06 EigRej=  2.69D-07 NBFU=  2113
 Leave Link  302 at Wed Jun 29 01:27:34 2022, MaxMem=  5242880000 cpu:       136.4
 (Enter /opt/nce/packages/global/g09/l308.exe)
 Leave Link  308 at Wed Jun 29 01:27:35 2022, MaxMem=  5242880000 cpu:        18.4
 (Enter /opt/nce/packages/global/g09/l303.exe)
 DipDrv:  MaxL=1.
 Leave Link  303 at Wed Jun 29 01:27:36 2022, MaxMem=  5242880000 cpu:        10.6
 (Enter /opt/nce/packages/global/g09/l401.exe)
 ExpMin= 9.52D-02 ExpMax= 1.97D+04 ExpMxC= 6.73D+02 IAcc=3 IRadAn=         5 AccDes= 0.00D+00
 Harris functional with IExCor=  205 and IRadAn=       5 diagonalized for initial guess.
 HarFok:  IExCor=  205 AccDes= 0.00D+00 IRadAn=         5 IDoV= 1 UseB2=F ITyADJ=14
 ICtDFT=  3500011 ScaDFX=  1.000000  1.000000  1.000000  1.000000
 FoFCou: FMM=F IPFlag=           0 FMFlag=      100000 FMFlg1=        2001
         NFxFlg=           0 DoJE=T BraDBF=F KetDBF=T FulRan=T
         wScrn=  0.000000 ICntrl=     500 IOpCl=  0 I1Cent=   200000004 NGrid=           0
         NMat0=    1 NMatS0=      1 NMatT0=    0 NMatD0=    1 NMtDS0=    0 NMtDT0=    0
 Petite list used in FoFCou.
 Harris En= -2470.06931317294    
 JPrj=0 DoOrth=F DoCkMO=F.
 Leave Link  401 at Wed Jun 29 01:28:00 2022, MaxMem=  5242880000 cpu:       284.0
 (Enter /opt/nce/packages/global/g09/l502.exe)
 Closed shell SCF:
 Using DIIS extrapolation, IDIIS=  1040.
 Integral symmetry usage will be decided dynamically.
 IVT=    17692622 IEndB=    17692622 NGot=  5242880000 MDV=  5231082219
 LenX=  5231082219 LenY=  5225204019
 Requested convergence on RMS density matrix=1.00D-08 within 128 cycles.
 Requested convergence on MAX density matrix=1.00D-06.
 Requested convergence on             energy=1.00D-06.
 No special actions if energy rises.
 Fock matrices will be formed incrementally for  20 cycles.

 Cycle   1  Pass 1  IDiag  1:
 FoFJK:  IHMeth= 1 ICntrl=       0 DoSepK=F KAlg= 0 I1Cent=   0 FoldK=F
 IRaf= 660000000 NMat=   1 IRICut=       1 DoRegI=T DoRafI=F ISym2E= 0.
 FoFCou: FMM=T IPFlag=           0 FMFlag=      100000 FMFlg1=        2001
         NFxFlg=           0 DoJE=F BraDBF=F KetDBF=F FulRan=T
         wScrn=  0.000000 ICntrl=       0 IOpCl=  0 I1Cent=           0 NGrid=           0
         NMat0=    1 NMatS0=      1 NMatT0=    0 NMatD0=    1 NMtDS0=    0 NMtDT0=    0
 Symmetry not used in FoFCou.
 FMM levels:  10  Number of levels for PrismC:   9
 Inv3:  Mode=1 IEnd=   171007500.
 Iteration    1 A*A^-1 deviation from unit magnitude is 8.66D-15 for   7550.
 Iteration    1 A*A^-1 deviation from orthogonality  is 9.22D-15 for   7525   5190.
 Iteration    1 A^-1*A deviation from unit magnitude is 8.88D-15 for   7550.
 Iteration    1 A^-1*A deviation from orthogonality  is 3.88D-08 for   3455   3435.
 Iteration    2 A*A^-1 deviation from unit magnitude is 2.89D-15 for    180.
 Iteration    2 A*A^-1 deviation from orthogonality  is 3.63D-15 for   2907    935.
 Iteration    2 A^-1*A deviation from unit magnitude is 1.11D-15 for   5350.
 Iteration    2 A^-1*A deviation from orthogonality  is 4.73D-16 for   2854   1840.
 E= -2464.38720086747    
 DIIS: error= 3.47D-02 at cycle   1 NSaved=   1.
 NSaved= 1 IEnMin= 1 EnMin= -2464.38720086747     IErMin= 1 ErrMin= 3.47D-02
 ErrMax= 3.47D-02  0.00D+00 EMaxC= 1.00D-01 BMatC= 4.99D+00 BMatP= 4.99D+00
 IDIUse=3 WtCom= 6.53D-01 WtEn= 3.47D-01
 Coeff-Com:  0.100D+01
 Coeff-En:   0.100D+01
 Coeff:      0.100D+01
 Gap=     0.440 Goal=   None    Shift=    0.000
 GapD=    0.440 DampG=2.000 DampE=0.500 DampFc=1.0000 IDamp=-1.
 RMSDP=1.65D-03 MaxDP=1.40D-01              OVMax= 1.86D-01

 Cycle   2  Pass 1  IDiag  1:
 RMSU=  1.54D-03    CP:  8.48D-01
 E= -2466.54846300185     Delta-E=       -2.161262134376 Rises=F Damp=F
 DIIS: error= 1.20D-02 at cycle   2 NSaved=   2.
 NSaved= 2 IEnMin= 2 EnMin= -2466.54846300185     IErMin= 2 ErrMin= 1.20D-02
 ErrMax= 1.20D-02  0.00D+00 EMaxC= 1.00D-01 BMatC= 4.01D-01 BMatP= 4.99D+00
 IDIUse=3 WtCom= 8.80D-01 WtEn= 1.20D-01
 Coeff-Com:  0.121D+00 0.879D+00
 Coeff-En:   0.000D+00 0.100D+01
 Coeff:      0.106D+00 0.894D+00
 Gap=     0.376 Goal=   None    Shift=    0.000
 RMSDP=7.06D-04 MaxDP=4.94D-02 DE=-2.16D+00 OVMax= 8.35D-02

 Cycle   3  Pass 1  IDiag  1:
 RMSU=  6.80D-04    CP:  8.43D-01  8.76D-01
 E= -2466.83443349226     Delta-E=       -0.285970490413 Rises=F Damp=F
 DIIS: error= 5.49D-03 at cycle   3 NSaved=   3.
 NSaved= 3 IEnMin= 3 EnMin= -2466.83443349226     IErMin= 3 ErrMin= 5.49D-03
 ErrMax= 5.49D-03  0.00D+00 EMaxC= 1.00D-01 BMatC= 8.24D-02 BMatP= 4.01D-01
 IDIUse=3 WtCom= 9.45D-01 WtEn= 5.49D-02
 Coeff-Com: -0.164D-01 0.289D+00 0.728D+00
 Coeff-En:   0.000D+00 0.000D+00 0.100D+01
 Coeff:     -0.155D-01 0.273D+00 0.743D+00
 Gap=     0.375 Goal=   None    Shift=    0.000
 RMSDP=1.98D-04 MaxDP=1.78D-02 DE=-2.86D-01 OVMax= 4.59D-02

 Cycle   4  Pass 1  IDiag  1:
 RMSU=  1.42D-04    CP:  8.37D-01  9.38D-01  8.57D-01
 E= -2466.90912657694     Delta-E=       -0.074693084674 Rises=F Damp=F
 DIIS: error= 1.32D-03 at cycle   4 NSaved=   4.
 NSaved= 4 IEnMin= 4 EnMin= -2466.90912657694     IErMin= 4 ErrMin= 1.32D-03
 ErrMax= 1.32D-03  0.00D+00 EMaxC= 1.00D-01 BMatC= 4.08D-03 BMatP= 8.24D-02
 IDIUse=3 WtCom= 9.87D-01 WtEn= 1.32D-02
 Coeff-Com: -0.887D-02 0.464D-01 0.231D+00 0.732D+00
 Coeff-En:   0.000D+00 0.000D+00 0.000D+00 0.100D+01
 Coeff:     -0.876D-02 0.458D-01 0.228D+00 0.735D+00
 Gap=     0.324 Goal=   None    Shift=    0.000
 RMSDP=5.33D-05 MaxDP=5.72D-03 DE=-7.47D-02 OVMax= 8.32D-03

 Cycle   5  Pass 1  IDiag  1:
 RMSU=  4.68D-05    CP:  8.36D-01  9.28D-01  8.85D-01  9.75D-01
 E= -2466.91286383120     Delta-E=       -0.003737254267 Rises=F Damp=F
 DIIS: error= 3.45D-04 at cycle   5 NSaved=   5.
 NSaved= 5 IEnMin= 5 EnMin= -2466.91286383120     IErMin= 5 ErrMin= 3.45D-04
 ErrMax= 3.45D-04  0.00D+00 EMaxC= 1.00D-01 BMatC= 1.68D-04 BMatP= 4.08D-03
 IDIUse=3 WtCom= 9.97D-01 WtEn= 3.45D-03
 Coeff-Com:  0.617D-03-0.189D-01-0.392D-01 0.182D-01 0.104D+01
 Coeff-En:   0.000D+00 0.000D+00 0.000D+00 0.000D+00 0.100D+01
 Coeff:      0.615D-03-0.188D-01-0.391D-01 0.182D-01 0.104D+01
 Gap=     0.328 Goal=   None    Shift=    0.000
 RMSDP=2.39D-05 MaxDP=1.79D-03 DE=-3.74D-03 OVMax= 3.80D-03

 Cycle   6  Pass 1  IDiag  1:
 RMSU=  1.47D-05    CP:  8.35D-01  9.27D-01  9.02D-01  1.06D+00  1.20D+00
 E= -2466.91323409788     Delta-E=       -0.000370266676 Rises=F Damp=F
 DIIS: error= 1.42D-04 at cycle   6 NSaved=   6.
 NSaved= 6 IEnMin= 6 EnMin= -2466.91323409788     IErMin= 6 ErrMin= 1.42D-04
 ErrMax= 1.42D-04  0.00D+00 EMaxC= 1.00D-01 BMatC= 2.79D-05 BMatP= 1.68D-04
 IDIUse=3 WtCom= 9.99D-01 WtEn= 1.42D-03
 Coeff-Com:  0.884D-03-0.784D-02-0.262D-01-0.726D-01 0.177D+00 0.928D+00
 Coeff-En:   0.000D+00 0.000D+00 0.000D+00 0.000D+00 0.000D+00 0.100D+01
 Coeff:      0.883D-03-0.782D-02-0.262D-01-0.725D-01 0.177D+00 0.928D+00
 Gap=     0.328 Goal=   None    Shift=    0.000
 RMSDP=8.77D-06 MaxDP=7.29D-04 DE=-3.70D-04 OVMax= 1.98D-03

 Cycle   7  Pass 1  IDiag  1:
 RMSU=  5.28D-06    CP:  8.35D-01  9.27D-01  9.05D-01  1.08D+00  1.30D+00
                    CP:  1.20D+00
 E= -2466.91329926972     Delta-E=       -0.000065171838 Rises=F Damp=F
 DIIS: error= 7.69D-05 at cycle   7 NSaved=   7.
 NSaved= 7 IEnMin= 7 EnMin= -2466.91329926972     IErMin= 7 ErrMin= 7.69D-05
 ErrMax= 7.69D-05  0.00D+00 EMaxC= 1.00D-01 BMatC= 5.29D-06 BMatP= 2.79D-05
 IDIUse=1 WtCom= 1.00D+00 WtEn= 0.00D+00
 Coeff-Com:  0.920D-04 0.749D-03 0.613D-03-0.193D-01-0.106D+00 0.162D+00
 Coeff-Com:  0.962D+00
 Coeff:      0.920D-04 0.749D-03 0.613D-03-0.193D-01-0.106D+00 0.162D+00
 Coeff:      0.962D+00
 Gap=     0.328 Goal=   None    Shift=    0.000
 RMSDP=3.97D-06 MaxDP=4.03D-04 DE=-6.52D-05 OVMax= 1.12D-03

 Cycle   8  Pass 1  IDiag  1:
 RMSU=  2.21D-06    CP:  8.35D-01  9.27D-01  9.05D-01  1.09D+00  1.33D+00
                    CP:  1.36D+00  1.29D+00
 E= -2466.91331289563     Delta-E=       -0.000013625915 Rises=F Damp=F
 DIIS: error= 3.75D-05 at cycle   8 NSaved=   8.
 NSaved= 8 IEnMin= 8 EnMin= -2466.91331289563     IErMin= 8 ErrMin= 3.75D-05
 ErrMax= 3.75D-05  0.00D+00 EMaxC= 1.00D-01 BMatC= 7.92D-07 BMatP= 5.29D-06
 IDIUse=1 WtCom= 1.00D+00 WtEn= 0.00D+00
 Coeff-Com: -0.159D-03 0.171D-02 0.574D-02 0.118D-01-0.423D-01-0.161D+00
 Coeff-Com:  0.831D-01 0.110D+01
 Coeff:     -0.159D-03 0.171D-02 0.574D-02 0.118D-01-0.423D-01-0.161D+00
 Coeff:      0.831D-01 0.110D+01
 Gap=     0.328 Goal=   None    Shift=    0.000
 RMSDP=1.96D-06 MaxDP=1.51D-04 DE=-1.36D-05 OVMax= 6.28D-04

 Cycle   9  Pass 1  IDiag  1:
 RMSU=  1.02D-06    CP:  8.35D-01  9.27D-01  9.05D-01  1.09D+00  1.34D+00
                    CP:  1.43D+00  1.50D+00  1.32D+00
 E= -2466.91331598467     Delta-E=       -0.000003089042 Rises=F Damp=F
 DIIS: error= 1.75D-05 at cycle   9 NSaved=   9.
 NSaved= 9 IEnMin= 9 EnMin= -2466.91331598467     IErMin= 9 ErrMin= 1.75D-05
 ErrMax= 1.75D-05  0.00D+00 EMaxC= 1.00D-01 BMatC= 1.49D-07 BMatP= 7.92D-07
 IDIUse=1 WtCom= 1.00D+00 WtEn= 0.00D+00
 Coeff-Com: -0.451D-04 0.266D-03 0.100D-02 0.497D-02 0.814D-02-0.524D-01
 Coeff-Com: -0.125D+00 0.214D+00 0.949D+00
 Coeff:     -0.451D-04 0.266D-03 0.100D-02 0.497D-02 0.814D-02-0.524D-01
 Coeff:     -0.125D+00 0.214D+00 0.949D+00
 Gap=     0.328 Goal=   None    Shift=    0.000
 RMSDP=7.46D-07 MaxDP=7.18D-05 DE=-3.09D-06 OVMax= 3.20D-04

 Cycle  10  Pass 1  IDiag  1:
 RMSU=  4.11D-07    CP:  8.35D-01  9.27D-01  9.04D-01  1.09D+00  1.33D+00
                    CP:  1.44D+00  1.55D+00  1.50D+00  1.25D+00
 E= -2466.91331654821     Delta-E=       -0.000000563536 Rises=F Damp=F
 DIIS: error= 1.07D-05 at cycle  10 NSaved=  10.
 NSaved=10 IEnMin=10 EnMin= -2466.91331654821     IErMin=10 ErrMin= 1.07D-05
 ErrMax= 1.07D-05  0.00D+00 EMaxC= 1.00D-01 BMatC= 3.21D-08 BMatP= 1.49D-07
 IDIUse=1 WtCom= 1.00D+00 WtEn= 0.00D+00
 Coeff-Com:  0.319D-04-0.328D-03-0.123D-02-0.256D-02 0.689D-02 0.325D-01
 Coeff-Com:  0.318D-02-0.216D+00-0.176D+00 0.135D+01
 Coeff:      0.319D-04-0.328D-03-0.123D-02-0.256D-02 0.689D-02 0.325D-01
 Coeff:      0.318D-02-0.216D+00-0.176D+00 0.135D+01
 Gap=     0.328 Goal=   None    Shift=    0.000
 RMSDP=4.56D-07 MaxDP=6.16D-05 DE=-5.64D-07 OVMax= 2.49D-04

 Cycle  11  Pass 1  IDiag  1:
 RMSU=  1.87D-07    CP:  8.35D-01  9.27D-01  9.04D-01  1.09D+00  1.33D+00
                    CP:  1.44D+00  1.56D+00  1.56D+00  1.48D+00  1.74D+00
 E= -2466.91331676105     Delta-E=       -0.000000212844 Rises=F Damp=F
 DIIS: error= 5.45D-06 at cycle  11 NSaved=  11.
 NSaved=11 IEnMin=11 EnMin= -2466.91331676105     IErMin=11 ErrMin= 5.45D-06
 ErrMax= 5.45D-06  0.00D+00 EMaxC= 1.00D-01 BMatC= 8.60D-09 BMatP= 3.21D-08
 IDIUse=1 WtCom= 1.00D+00 WtEn= 0.00D+00
 Coeff-Com:  0.118D-04-0.702D-04-0.273D-03-0.114D-02-0.245D-02 0.109D-01
 Coeff-Com:  0.390D-01-0.507D-01-0.283D+00 0.284D-01 0.126D+01
 Coeff:      0.118D-04-0.702D-04-0.273D-03-0.114D-02-0.245D-02 0.109D-01
 Coeff:      0.390D-01-0.507D-01-0.283D+00 0.284D-01 0.126D+01
 Gap=     0.328 Goal=   None    Shift=    0.000
 RMSDP=2.67D-07 MaxDP=3.66D-05 DE=-2.13D-07 OVMax= 1.54D-04

 Cycle  12  Pass 1  IDiag  1:
 RMSU=  8.42D-08    CP:  8.35D-01  9.27D-01  9.04D-01  1.09D+00  1.33D+00
                    CP:  1.44D+00  1.56D+00  1.57D+00  1.58D+00  2.20D+00
                    CP:  1.67D+00
 E= -2466.91331681384     Delta-E=       -0.000000052789 Rises=F Damp=F
 DIIS: error= 1.00D-06 at cycle  12 NSaved=  12.
 NSaved=12 IEnMin=12 EnMin= -2466.91331681384     IErMin=12 ErrMin= 1.00D-06
 ErrMax= 1.00D-06  0.00D+00 EMaxC= 1.00D-01 BMatC= 1.27D-09 BMatP= 8.60D-09
 IDIUse=1 WtCom= 1.00D+00 WtEn= 0.00D+00
 Coeff-Com: -0.383D-05 0.545D-04 0.201D-03 0.346D-03-0.206D-02-0.531D-02
 Coeff-Com:  0.951D-02 0.365D-01-0.325D-01-0.277D+00 0.253D+00 0.102D+01
 Coeff:     -0.383D-05 0.545D-04 0.201D-03 0.346D-03-0.206D-02-0.531D-02
 Coeff:      0.951D-02 0.365D-01-0.325D-01-0.277D+00 0.253D+00 0.102D+01
 Gap=     0.328 Goal=   None    Shift=    0.000
 RMSDP=1.02D-07 MaxDP=1.24D-05 DE=-5.28D-08 OVMax= 5.30D-05

 Cycle  13  Pass 1  IDiag  1:
 RMSU=  3.52D-08    CP:  8.35D-01  9.27D-01  9.04D-01  1.09D+00  1.33D+00
                    CP:  1.44D+00  1.56D+00  1.57D+00  1.59D+00  2.35D+00
                    CP:  2.01D+00  1.32D+00
 E= -2466.91331681959     Delta-E=       -0.000000005746 Rises=F Damp=F
 DIIS: error= 4.26D-07 at cycle  13 NSaved=  13.
 NSaved=13 IEnMin=13 EnMin= -2466.91331681959     IErMin=13 ErrMin= 4.26D-07
 ErrMax= 4.26D-07  0.00D+00 EMaxC= 1.00D-01 BMatC= 1.08D-10 BMatP= 1.27D-09
 IDIUse=1 WtCom= 1.00D+00 WtEn= 0.00D+00
 Coeff-Com: -0.141D-05 0.120D-04 0.438D-04 0.150D-03 0.477D-04-0.165D-02
 Coeff-Com: -0.231D-02 0.837D-02 0.205D-01-0.183D-01-0.986D-01 0.787D-01
 Coeff-Com:  0.101D+01
 Coeff:     -0.141D-05 0.120D-04 0.438D-04 0.150D-03 0.477D-04-0.165D-02
 Coeff:     -0.231D-02 0.837D-02 0.205D-01-0.183D-01-0.986D-01 0.787D-01
 Coeff:      0.101D+01
 Gap=     0.328 Goal=   None    Shift=    0.000
 RMSDP=3.49D-08 MaxDP=2.63D-06 DE=-5.75D-09 OVMax= 8.85D-06

 Cycle  14  Pass 1  IDiag  1:
 RMSU=  2.85D-08    CP:  8.35D-01  9.27D-01  9.04D-01  1.09D+00  1.33D+00
                    CP:  1.44D+00  1.56D+00  1.57D+00  1.59D+00  2.35D+00
                    CP:  2.06D+00  1.48D+00  1.26D+00
 E= -2466.91331682006     Delta-E=       -0.000000000471 Rises=F Damp=F
 DIIS: error= 2.12D-07 at cycle  14 NSaved=  14.
 NSaved=14 IEnMin=14 EnMin= -2466.91331682006     IErMin=14 ErrMin= 2.12D-07
 ErrMax= 2.12D-07  0.00D+00 EMaxC= 1.00D-01 BMatC= 2.81D-11 BMatP= 1.08D-10
 IDIUse=1 WtCom= 1.00D+00 WtEn= 0.00D+00
 Coeff-Com:  0.576D-06-0.871D-05-0.327D-04-0.558D-04 0.341D-03 0.781D-03
 Coeff-Com: -0.143D-02-0.614D-02 0.454D-02 0.492D-01-0.470D-01-0.173D+00
 Coeff-Com:  0.427D-01 0.113D+01
 Coeff:      0.576D-06-0.871D-05-0.327D-04-0.558D-04 0.341D-03 0.781D-03
 Coeff:     -0.143D-02-0.614D-02 0.454D-02 0.492D-01-0.470D-01-0.173D+00
 Coeff:      0.427D-01 0.113D+01
 Gap=     0.328 Goal=   None    Shift=    0.000
 RMSDP=3.55D-08 MaxDP=3.04D-06 DE=-4.71D-10 OVMax= 3.70D-06

 Cycle  15  Pass 1  IDiag  1:
 RMSU=  2.85D-08    CP:  8.35D-01  9.27D-01  9.04D-01  1.09D+00  1.33D+00
                    CP:  1.44D+00  1.56D+00  1.57D+00  1.59D+00  2.34D+00
                    CP:  2.06D+00  1.53D+00  1.76D+00  1.33D+00
 E= -2466.91331681986     Delta-E=        0.000000000198 Rises=F Damp=F
 DIIS: error= 1.60D-07 at cycle  15 NSaved=  15.
 NSaved=15 IEnMin=14 EnMin= -2466.91331682006     IErMin=15 ErrMin= 1.60D-07
 ErrMax= 1.60D-07  0.00D+00 EMaxC= 1.00D-01 BMatC= 6.99D-12 BMatP= 2.81D-11
 IDIUse=1 WtCom= 1.00D+00 WtEn= 0.00D+00
 Coeff-Com:  0.364D-06-0.313D-05-0.116D-04-0.412D-04-0.920D-05 0.419D-03
 Coeff-Com:  0.700D-03-0.220D-02-0.605D-02 0.556D-02 0.243D-01-0.192D-01
 Coeff-Com: -0.237D+00-0.501D-01 0.128D+01
 Coeff:      0.364D-06-0.313D-05-0.116D-04-0.412D-04-0.920D-05 0.419D-03
 Coeff:      0.700D-03-0.220D-02-0.605D-02 0.556D-02 0.243D-01-0.192D-01
 Coeff:     -0.237D+00-0.501D-01 0.128D+01
 Gap=     0.328 Goal=   None    Shift=    0.000
 RMSDP=5.31D-08 MaxDP=4.81D-06 DE= 1.98D-10 OVMax= 2.18D-06

 Cycle  16  Pass 1  IDiag  1:
 RMSU=  3.33D-08    CP:  8.35D-01  9.27D-01  9.04D-01  1.09D+00  1.33D+00
                    CP:  1.44D+00  1.56D+00  1.57D+00  1.59D+00  2.33D+00
                    CP:  2.04D+00  1.60D+00  1.88D+00  2.72D+00  1.31D+00
 E= -2466.91331682037     Delta-E=       -0.000000000513 Rises=F Damp=F
 DIIS: error= 4.72D-08 at cycle  16 NSaved=  16.
 NSaved=16 IEnMin=16 EnMin= -2466.91331682037     IErMin=16 ErrMin= 4.72D-08
 ErrMax= 4.72D-08  0.00D+00 EMaxC= 1.00D-01 BMatC= 1.52D-12 BMatP= 6.99D-12
 IDIUse=1 WtCom= 1.00D+00 WtEn= 0.00D+00
 Coeff-Com: -0.780D-07 0.157D-05 0.589D-05 0.750D-05-0.748D-04-0.128D-03
 Coeff-Com:  0.408D-03 0.118D-02-0.196D-02-0.969D-02 0.134D-01 0.361D-01
 Coeff-Com: -0.317D-01-0.284D+00 0.165D+00 0.111D+01
 Coeff:     -0.780D-07 0.157D-05 0.589D-05 0.750D-05-0.748D-04-0.128D-03
 Coeff:      0.408D-03 0.118D-02-0.196D-02-0.969D-02 0.134D-01 0.361D-01
 Coeff:     -0.317D-01-0.284D+00 0.165D+00 0.111D+01
 Gap=     0.328 Goal=   None    Shift=    0.000
 RMSDP=5.98D-08 MaxDP=5.92D-06 DE=-5.13D-10 OVMax= 9.29D-07

 Cycle  17  Pass 1  IDiag  1:
 RMSU=  2.39D-08    CP:  8.35D-01  9.27D-01  9.04D-01  1.09D+00  1.33D+00
                    CP:  1.44D+00  1.56D+00  1.57D+00  1.59D+00  2.33D+00
                    CP:  2.04D+00  1.60D+00  2.48D+00  2.72D+00  3.00D+00
                    CP:  1.19D+00
 E= -2466.91331682019     Delta-E=        0.000000000182 Rises=F Damp=F
 DIIS: error= 7.49D-08 at cycle  17 NSaved=  17.
 NSaved=17 IEnMin=16 EnMin= -2466.91331682037     IErMin=16 ErrMin= 4.72D-08
 ErrMax= 7.49D-08  0.00D+00 EMaxC= 1.00D-01 BMatC= 6.07D-13 BMatP= 1.52D-12
 IDIUse=1 WtCom= 1.00D+00 WtEn= 0.00D+00
 Coeff-Com: -0.759D-07 0.108D-05 0.397D-05 0.845D-05-0.320D-04-0.109D-03
 Coeff-Com:  0.913D-04 0.813D-03-0.201D-03-0.491D-02 0.284D-02 0.183D-01
 Coeff-Com:  0.167D-01-0.125D+00-0.854D-01 0.517D+00 0.660D+00
 Coeff:     -0.759D-07 0.108D-05 0.397D-05 0.845D-05-0.320D-04-0.109D-03
 Coeff:      0.913D-04 0.813D-03-0.201D-03-0.491D-02 0.284D-02 0.183D-01
 Coeff:      0.167D-01-0.125D+00-0.854D-01 0.517D+00 0.660D+00
 Gap=     0.328 Goal=   None    Shift=    0.000
 RMSDP=4.88D-08 MaxDP=3.90D-06 DE= 1.82D-10 OVMax= 2.42D-07

 Cycle  18  Pass 1  IDiag  1:
 RMSU=  2.81D-08    CP:  8.35D-01  9.27D-01  9.04D-01  1.09D+00  1.33D+00
                    CP:  1.44D+00  1.56D+00  1.57D+00  1.59D+00  2.33D+00
                    CP:  2.03D+00  1.66D+00  2.46D+00  3.00D+00  3.00D+00
                    CP:  2.19D+00  1.06D+00
 E= -2466.91331682031     Delta-E=       -0.000000000115 Rises=F Damp=F
 DIIS: error= 2.99D-08 at cycle  18 NSaved=  18.
 NSaved=18 IEnMin=16 EnMin= -2466.91331682037     IErMin=18 ErrMin= 2.99D-08
 ErrMax= 2.99D-08  0.00D+00 EMaxC= 1.00D-01 BMatC= 3.48D-13 BMatP= 6.07D-13
 IDIUse=1 WtCom= 1.00D+00 WtEn= 0.00D+00
 Coeff-Com: -0.339D-07 0.447D-06 0.162D-05 0.406D-05-0.106D-04-0.487D-04
 Coeff-Com:  0.978D-05 0.347D-03 0.479D-04-0.176D-02 0.190D-03 0.659D-02
 Coeff-Com:  0.133D-01-0.440D-01-0.672D-01 0.194D+00 0.343D+00 0.555D+00
 Coeff:     -0.339D-07 0.447D-06 0.162D-05 0.406D-05-0.106D-04-0.487D-04
 Coeff:      0.978D-05 0.347D-03 0.479D-04-0.176D-02 0.190D-03 0.659D-02
 Coeff:      0.133D-01-0.440D-01-0.672D-01 0.194D+00 0.343D+00 0.555D+00
 Gap=     0.328 Goal=   None    Shift=    0.000
 RMSDP=2.96D-08 MaxDP=3.39D-06 DE=-1.15D-10 OVMax= 9.16D-08

 Cycle  19  Pass 1  IDiag  1:
 RMSU=  1.95D-08    CP:  8.35D-01  9.27D-01  9.04D-01  1.09D+00  1.33D+00
                    CP:  1.44D+00  1.56D+00  1.57D+00  1.59D+00  2.33D+00
                    CP:  2.03D+00  1.68D+00  2.69D+00  3.00D+00  3.00D+00
                    CP:  2.49D+00  1.68D+00  1.36D+00
 E= -2466.91331682032     Delta-E=       -0.000000000018 Rises=F Damp=F
 DIIS: error= 4.04D-08 at cycle  19 NSaved=  19.
 NSaved=19 IEnMin=16 EnMin= -2466.91331682037     IErMin=18 ErrMin= 2.99D-08
 ErrMax= 4.04D-08  0.00D+00 EMaxC= 1.00D-01 BMatC= 4.18D-13 BMatP= 3.48D-13
 IDIUse=1 WtCom= 1.00D+00 WtEn= 0.00D+00
 Coeff-Com: -0.354D-07 0.460D-06 0.167D-05 0.425D-05-0.105D-04-0.506D-04
 Coeff-Com:  0.544D-05 0.357D-03 0.768D-04-0.177D-02 0.432D-04 0.663D-02
 Coeff-Com:  0.146D-01-0.437D-01-0.737D-01 0.194D+00 0.372D+00 0.629D+00
 Coeff-Com: -0.975D-01
 Coeff:     -0.354D-07 0.460D-06 0.167D-05 0.425D-05-0.105D-04-0.506D-04
 Coeff:      0.544D-05 0.357D-03 0.768D-04-0.177D-02 0.432D-04 0.663D-02
 Coeff:      0.146D-01-0.437D-01-0.737D-01 0.194D+00 0.372D+00 0.629D+00
 Coeff:     -0.975D-01
 Gap=     0.328 Goal=   None    Shift=    0.000
 RMSDP=4.21D-09 MaxDP=4.13D-07 DE=-1.82D-11 OVMax= 4.21D-09

 Error on total polarization charges =  0.08719
 SCF Done:  E(RHF) =  -2466.91331682     A.U. after   19 cycles
            NFock= 19  Conv=0.42D-08     -V/T= 2.0002
 KE= 2.466416325373D+03 PE=-2.325350606827D+04 EE= 9.566770777942D+03
 SMD-CDS (non-electrostatic) energy       (kcal/mol) =     -10.87
 (included in total energy above)
 Leave Link  502 at Wed Jun 29 04:31:27 2022, MaxMem=  5242880000 cpu:    131918.6
 (Enter /opt/nce/packages/global/g09/l801.exe)
 ExpMin= 9.52D-02 ExpMax= 1.97D+04 ExpMxC= 6.73D+02 IAcc=3 IRadAn=         5 AccDes= 0.00D+00
 HarFok:  IExCor=  205 AccDes= 0.00D+00 IRadAn=         5 IDoV=-2 UseB2=F ITyADJ=14
 ICtDFT= 12500011 ScaDFX=  1.000000  1.000000  1.000000  1.000000
 Largest valence mixing into a core orbital is  1.77D-04
 Largest core mixing into a valence orbital is  5.27D-05
 Range of M.O.s used for correlation:    63  2113
 NBasis=  2114 NAE=   205 NBE=   205 NFC=    62 NFV=     0
 NROrb=   2051 NOA=   143 NOB=   143 NVA=  1908 NVB=  1908

 **** Warning!!: The largest alpha MO coefficient is  0.54926371D+02

 Leave Link  801 at Wed Jun 29 04:31:28 2022, MaxMem=  5242880000 cpu:         8.7
 (Enter /opt/nce/packages/global/g09/l914.exe)
 RHF ground state
 MDV=  5242880000 DFT=F DoStab=F Mixed=F DoRPA=T DoScal=F NonHer=T
 Would need an additional       7498450000000 words for in-memory AO integral storage.
 NEqPCM:  Using non-equilibrium solvation (IEInf=1, Eps=  35.6880, EpsInf=   1.8069)
 Inv3:  Mode=1 IEnd=   171007500.
 Iteration    1 A*A^-1 deviation from unit magnitude is 1.33D-14 for   7545.
 Iteration    1 A*A^-1 deviation from orthogonality  is 5.88D-15 for   7550   6976.
 Iteration    1 A^-1*A deviation from unit magnitude is 1.27D-14 for   7545.
 Iteration    1 A^-1*A deviation from orthogonality  is 3.35D-15 for   6119   6113.
 Making orbital integer symmetry assigments:
 Orbital symmetries:
       Occupied  (A) (A) (A) (A) (A) (A) (A) (A) (A) (A) (A) (A)
                 (A) (A) (A) (A) (A) (A) (A) (A) (A) (A) (A) (A)
                 (A) (A) (A) (A) (A) (A) (A) (A) (A) (A) (A) (A)
                 (A) (A) (A) (A) (A) (A) (A) (A) (A) (A) (A) (A)
                 (A) (A) (A) (A) (A) (A) (A) (A) (A) (A) (A) (A)
                 (A) (A) (A) (A) (A) (A) (A) (A) (A) (A) (A) (A)
                 (A) (A) (A) (A) (A) (A) (A) (A) (A) (A) (A) (A)
                 (A) (A) (A) (A) (A) (A) (A) (A) (A) (A) (A) (A)
                 (A) (A) (A) (A) (A) (A) (A) (A) (A) (A) (A) (A)
                 (A) (A) (A) (A) (A) (A) (A) (A) (A) (A) (A) (A)
                 (A) (A) (A) (A) (A) (A) (A) (A) (A) (A) (A) (A)
                 (A) (A) (A) (A) (A) (A) (A) (A) (A) (A) (A) (A)
                 (A) (A) (A) (A) (A) (A) (A) (A) (A) (A) (A) (A)
                 (A) (A) (A) (A) (A) (A) (A) (A) (A) (A) (A) (A)
                 (A) (A) (A) (A) (A) (A) (A) (A) (A) (A) (A) (A)
                 (A) (A) (A) (A) (A) (A) (A) (A) (A) (A) (A) (A)
                 (A) (A) (A) (A) (A) (A) (A) (A) (A) (A) (A) (A)
                 (A)
       Virtual   (A) (A) (A) (A) (A) (A) (A) (A) (A) (A) (A) (A)
                 (A) (A) (A) (A) (A) (A) (A) (A) (A) (A) (A) (A)
                 (A) (A) (A) (A) (A) (A) (A) (A) (A) (A) (A) (A)
                 (A) (A) (A) (A) (A) (A) (A) (A) (A) (A) (A) (A)
                 (A) (A) (A) (A) (A) (A) (A) (A) (A) (A) (A) (A)
                 (A) (A) (A) (A) (A) (A) (A) (A) (A) (A) (A) (A)
                 (A) (A) (A) (A) (A) (A) (A) (A) (A) (A) (A) (A)
                 (A) (A) (A) (A) (A) (A) (A) (A) (A) (A) (A) (A)
                 (A) (A) (A) (A) (A) (A) (A) (A) (A) (A) (A) (A)
                 (A) (A) (A) (A) (A) (A) (A) (A) (A) (A) (A) (A)
                 (A) (A) (A) (A) (A) (A) (A) (A) (A) (A) (A) (A)
                 (A) (A) (A) (A) (A) (A) (A) (A) (A) (A) (A) (A)
                 (A) (A) (A) (A) (A) (A) (A) (A) (A) (A) (A) (A)
                 (A) (A) (A) (A) (A) (A) (A) (A) (A) (A) (A) (A)
                 (A) (A) (A) (A) (A) (A) (A) (A) (A) (A) (A) (A)
                 (A) (A) (A) (A) (A) (A) (A) (A) (A) (A) (A) (A)
                 (A) (A) (A) (A) (A) (A) (A) (A) (A) (A) (A) (A)
                 (A) (A) (A) (A) (A) (A) (A) (A) (A) (A) (A) (A)
                 (A) (A) (A) (A) (A) (A) (A) (A) (A) (A) (A) (A)
                 (A) (A) (A) (A) (A) (A) (A) (A) (A) (A) (A) (A)
                 (A) (A) (A) (A) (A) (A) (A) (A) (A) (A) (A) (A)
                 (A) (A) (A) (A) (A) (A) (A) (A) (A) (A) (A) (A)
                 (A) (A) (A) (A) (A) (A) (A) (A) (A) (A) (A) (A)
                 (A) (A) (A) (A) (A) (A) (A) (A) (A) (A) (A) (A)
                 (A) (A) (A) (A) (A) (A) (A) (A) (A) (A) (A) (A)
                 (A) (A) (A) (A) (A) (A) (A) (A) (A) (A) (A) (A)
                 (A) (A) (A) (A) (A) (A) (A) (A) (A) (A) (A) (A)
                 (A) (A) (A) (A) (A) (A) (A) (A) (A) (A) (A) (A)
                 (A) (A) (A) (A) (A) (A) (A) (A) (A) (A) (A) (A)
                 (A) (A) (A) (A) (A) (A) (A) (A) (A) (A) (A) (A)
                 (A) (A) (A) (A) (A) (A) (A) (A) (A) (A) (A) (A)
                 (A) (A) (A) (A) (A) (A) (A) (A) (A) (A) (A) (A)
                 (A) (A) (A) (A) (A) (A) (A) (A) (A) (A) (A) (A)
                 (A) (A) (A) (A) (A) (A) (A) (A) (A) (A) (A) (A)
                 (A) (A) (A) (A) (A) (A) (A) (A) (A) (A) (A) (A)
                 (A) (A) (A) (A) (A) (A) (A) (A) (A) (A) (A) (A)
                 (A) (A) (A) (A) (A) (A) (A) (A) (A) (A) (A) (A)
                 (A) (A) (A) (A) (A) (A) (A) (A) (A) (A) (A) (A)
                 (A) (A) (A) (A) (A) (A) (A) (A) (A) (A) (A) (A)
                 (A) (A) (A) (A) (A) (A) (A) (A) (A) (A) (A) (A)
                 (A) (A) (A) (A) (A) (A) (A) (A) (A) (A) (A) (A)
                 (A) (A) (A) (A) (A) (A) (A) (A) (A) (A) (A) (A)
                 (A) (A) (A) (A) (A) (A) (A) (A) (A) (A) (A) (A)
                 (A) (A) (A) (A) (A) (A) (A) (A) (A) (A) (A) (A)
                 (A) (A) (A) (A) (A) (A) (A) (A) (A) (A) (A) (A)
                 (A) (A) (A) (A) (A) (A) (A) (A) (A) (A) (A) (A)
                 (A) (A) (A) (A) (A) (A) (A) (A) (A) (A) (A) (A)
                 (A) (A) (A) (A) (A) (A) (A) (A) (A) (A) (A) (A)
                 (A) (A) (A) (A) (A) (A) (A) (A) (A) (A) (A) (A)
                 (A) (A) (A) (A) (A) (A) (A) (A) (A) (A) (A) (A)
                 (A) (A) (A) (A) (A) (A) (A) (A) (A) (A) (A) (A)
                 (A) (A) (A) (A) (A) (A) (A) (A) (A) (A) (A) (A)
                 (A) (A) (A) (A) (A) (A) (A) (A) (A) (A) (A) (A)
                 (A) (A) (A) (A) (A) (A) (A) (A) (A) (A) (A) (A)
                 (A) (A) (A) (A) (A) (A) (A) (A) (A) (A) (A) (A)
                 (A) (A) (A) (A) (A) (A) (A) (A) (A) (A) (A) (A)
                 (A) (A) (A) (A) (A) (A) (A) (A) (A) (A) (A) (A)
                 (A) (A) (A) (A) (A) (A) (A) (A) (A) (A) (A) (A)
                 (A) (A) (A) (A) (A) (A) (A) (A) (A) (A) (A) (A)
                 (A) (A) (A) (A) (A) (A) (A) (A) (A) (A) (A) (A)
                 (A) (A) (A) (A) (A) (A) (A) (A) (A) (A) (A) (A)
                 (A) (A) (A) (A) (A) (A) (A) (A) (A) (A) (A) (A)
                 (A) (A) (A) (A) (A) (A) (A) (A) (A) (A) (A) (A)
                 (A) (A) (A) (A) (A) (A) (A) (A) (A) (A) (A) (A)
                 (A) (A) (A) (A) (A) (A) (A) (A) (A) (A) (A) (A)
                 (A) (A) (A) (A) (A) (A) (A) (A) (A) (A) (A) (A)
                 (A) (A) (A) (A) (A) (A) (A) (A) (A) (A) (A) (A)
                 (A) (A) (A) (A) (A) (A) (A) (A) (A) (A) (A) (A)
                 (A) (A) (A) (A) (A) (A) (A) (A) (A) (A) (A) (A)
                 (A) (A) (A) (A) (A) (A) (A) (A) (A) (A) (A) (A)
                 (A) (A) (A) (A) (A) (A) (A) (A) (A) (A) (A) (A)
                 (A) (A) (A) (A) (A) (A) (A) (A) (A) (A) (A) (A)
                 (A) (A) (A) (A) (A) (A) (A) (A) (A) (A) (A) (A)
                 (A) (A) (A) (A) (A) (A) (A) (A) (A) (A) (A) (A)
                 (A) (A) (A) (A) (A) (A) (A) (A) (A) (A) (A) (A)
                 (A) (A) (A) (A) (A) (A) (A) (A) (A) (A) (A) (A)
                 (A) (A) (A) (A) (A) (A) (A) (A) (A) (A) (A) (A)
                 (A) (A) (A) (A) (A) (A) (A) (A) (A) (A) (A) (A)
                 (A) (A) (A) (A) (A) (A) (A) (A) (A) (A) (A) (A)
                 (A) (A) (A) (A) (A) (A) (A) (A) (A) (A) (A) (A)
                 (A) (A) (A) (A) (A) (A) (A) (A) (A) (A) (A) (A)
                 (A) (A) (A) (A) (A) (A) (A) (A) (A) (A) (A) (A)
                 (A) (A) (A) (A) (A) (A) (A) (A) (A) (A) (A) (A)
                 (A) (A) (A) (A) (A) (A) (A) (A) (A) (A) (A) (A)
                 (A) (A) (A) (A) (A) (A) (A) (A) (A) (A) (A) (A)
                 (A) (A) (A) (A) (A) (A) (A) (A) (A) (A) (A) (A)
                 (A) (A) (A) (A) (A) (A) (A) (A) (A) (A) (A) (A)
                 (A) (A) (A) (A) (A) (A) (A) (A) (A) (A) (A) (A)
                 (A) (A) (A) (A) (A) (A) (A) (A) (A) (A) (A) (A)
                 (A) (A) (A) (A) (A) (A) (A) (A) (A) (A) (A) (A)
                 (A) (A) (A) (A) (A) (A) (A) (A) (A) (A) (A) (A)
                 (A) (A) (A) (A) (A) (A) (A) (A) (A) (A) (A) (A)
                 (A) (A) (A) (A) (A) (A) (A) (A) (A) (A) (A) (A)
                 (A) (A) (A) (A) (A) (A) (A) (A) (A) (A) (A) (A)
                 (A) (A) (A) (A) (A) (A) (A) (A) (A) (A) (A) (A)
                 (A) (A) (A) (A) (A) (A) (A) (A) (A) (A) (A) (A)
                 (A) (A) (A) (A) (A) (A) (A) (A) (A) (A) (A) (A)
                 (A) (A) (A) (A) (A) (A) (A) (A) (A) (A) (A) (A)
                 (A) (A) (A) (A) (A) (A) (A) (A) (A) (A) (A) (A)
                 (A) (A) (A) (A) (A) (A) (A) (A) (A) (A) (A) (A)
                 (A) (A) (A) (A) (A) (A) (A) (A) (A) (A) (A) (A)
                 (A) (A) (A) (A) (A) (A) (A) (A) (A) (A) (A) (A)
                 (A) (A) (A) (A) (A) (A) (A) (A) (A) (A) (A) (A)
                 (A) (A) (A) (A) (A) (A) (A) (A) (A) (A) (A) (A)
                 (A) (A) (A) (A) (A) (A) (A) (A) (A) (A) (A) (A)
                 (A) (A) (A) (A) (A) (A) (A) (A) (A) (A) (A) (A)
                 (A) (A) (A) (A) (A) (A) (A) (A) (A) (A) (A) (A)
                 (A) (A) (A) (A) (A) (A) (A) (A) (A) (A) (A) (A)
                 (A) (A) (A) (A) (A) (A) (A) (A) (A) (A) (A) (A)
                 (A) (A) (A) (A) (A) (A) (A) (A) (A) (A) (A) (A)
                 (A) (A) (A) (A) (A) (A) (A) (A) (A) (A) (A) (A)
                 (A) (A) (A) (A) (A) (A) (A) (A) (A) (A) (A) (A)
                 (A) (A) (A) (A) (A) (A) (A) (A) (A) (A) (A) (A)
                 (A) (A) (A) (A) (A) (A) (A) (A) (A) (A) (A) (A)
                 (A) (A) (A) (A) (A) (A) (A) (A) (A) (A) (A) (A)
                 (A) (A) (A) (A) (A) (A) (A) (A) (A) (A) (A) (A)
                 (A) (A) (A) (A) (A) (A) (A) (A) (A) (A) (A) (A)
                 (A) (A) (A) (A) (A) (A) (A) (A) (A) (A) (A) (A)
                 (A) (A) (A) (A) (A) (A) (A) (A) (A) (A) (A) (A)
                 (A) (A) (A) (A) (A) (A) (A) (A) (A) (A) (A) (A)
                 (A) (A) (A) (A) (A) (A) (A) (A) (A) (A) (A) (A)
                 (A) (A) (A) (A) (A) (A) (A) (A) (A) (A) (A) (A)
                 (A) (A) (A) (A) (A) (A) (A) (A) (A) (A) (A) (A)
                 (A) (A) (A) (A) (A) (A) (A) (A) (A) (A) (A) (A)
                 (A) (A) (A) (A) (A) (A) (A) (A) (A) (A) (A) (A)
                 (A) (A) (A) (A) (A) (A) (A) (A) (A) (A) (A) (A)
                 (A) (A) (A) (A) (A) (A) (A) (A) (A) (A) (A) (A)
                 (A) (A) (A) (A) (A) (A) (A) (A) (A) (A) (A) (A)
                 (A) (A) (A) (A) (A) (A) (A) (A) (A) (A) (A) (A)
                 (A) (A) (A) (A) (A) (A) (A) (A) (A) (A) (A) (A)
                 (A) (A) (A) (A) (A) (A) (A) (A) (A) (A) (A) (A)
                 (A) (A) (A) (A) (A) (A) (A) (A) (A) (A) (A) (A)
                 (A) (A) (A) (A) (A) (A) (A) (A) (A) (A) (A) (A)
                 (A) (A) (A) (A) (A) (A) (A) (A) (A) (A) (A) (A)
                 (A) (A) (A) (A) (A) (A) (A) (A) (A) (A) (A) (A)
                 (A) (A) (A) (A) (A) (A) (A) (A) (A) (A) (A) (A)
                 (A) (A) (A) (A) (A) (A) (A) (A) (A) (A) (A) (A)
                 (A) (A) (A) (A) (A) (A) (A) (A) (A) (A) (A) (A)
                 (A) (A) (A) (A) (A) (A) (A) (A) (A) (A) (A) (A)
                 (A) (A) (A) (A) (A) (A) (A) (A) (A) (A) (A) (A)
                 (A) (A) (A) (A) (A) (A) (A) (A) (A) (A) (A) (A)
                 (A) (A) (A) (A) (A) (A) (A) (A) (A) (A) (A) (A)
                 (A) (A) (A) (A) (A) (A) (A) (A) (A) (A) (A) (A)
                 (A) (A) (A) (A) (A) (A) (A) (A) (A) (A) (A) (A)
                 (A) (A) (A) (A) (A) (A) (A) (A) (A) (A) (A) (A)
                 (A) (A) (A) (A) (A) (A) (A) (A) (A) (A) (A) (A)
                 (A) (A) (A) (A) (A) (A) (A) (A) (A) (A) (A) (A)
                 (A) (A) (A) (A) (A) (A) (A) (A) (A) (A) (A) (A)
                 (A) (A) (A) (A) (A) (A) (A) (A) (A) (A) (A) (A)
                 (A) (A) (A) (A) (A) (A) (A) (A) (A) (A) (A) (A)
                 (A) (A) (A) (A) (A) (A) (A) (A) (A) (A) (A) (A)
                 (A) (A) (A) (A) (A) (A) (A) (A) (A) (A) (A) (A)
                 (A) (A) (A) (A) (A) (A) (A) (A) (A) (A) (A) (A)
                 (A) (A) (A) (A) (A) (A) (A) (A) (A) (A) (A) (A)
                 (A) (A) (A) (A) (A) (A) (A) (A) (A) (A) (A) (A)
                 (A) (A) (A) (A) (A) (A) (A) (A) (A) (A) (A) (A)
                 (A) (A) (A) (A) (A) (A) (A) (A) (A) (A) (A) (A)
                 (A) (A) (A) (A) (A) (A) (A) (A) (A) (A) (A) (A)
                 (A) (A) (A) (A) (A) (A) (A) (A) (A) (A) (A) (A)
 FoFJK:  IHMeth= 1 ICntrl=       0 DoSepK=F KAlg= 0 I1Cent=   0 FoldK=F
 IRaf=         0 NMat=   1 IRICut=       1 DoRegI=T DoRafI=F ISym2E= 1.
   200 initial guesses have been made.
 Convergence on wavefunction:    0.001000000000000
 Davidson Disk Diagonalization:  ConvIn= 1.00D-03 SkipCon=T Conv= 1.00D-03.
 Max sub-space:   800 roots to seek:   200 dimension of matrix:       545688
 Iteration     1 Dimension   200 NMult     0 NNew    200
 CISAX will form    60 AO SS matrices at one time.
 NMat=    60 NSing=    60 JSym2X= 0.
 NMat=    60 NSing=    60 JSym2X= 0.
 NMat=    60 NSing=    60 JSym2X= 0.
 NMat=    20 NSing=    20 JSym2X= 0.
 New state      2 was old state      7
 New state      3 was old state      6
 New state      4 was old state     30
 New state      5 was old state     33
 New state      6 was old state     36
 New state      7 was old state     38
 New state      8 was old state     56
 New state      9 was old state     72
 New state     10 was old state     66
 New state     11 was old state     65
 New state     12 was old state     14
 New state     13 was old state     42
 New state     14 was old state      2
 New state     15 was old state      3
 New state     16 was old state      8
 New state     17 was old state      9
 New state     18 was old state      5
 New state     19 was old state      4
 New state     20 was old state     12
 New state     21 was old state     35
 New state     22 was old state     15
 New state     23 was old state     16
 New state     24 was old state     10
 New state     25 was old state     95
 New state     26 was old state    128
 New state     27 was old state     11
 New state     28 was old state     86
 New state     29 was old state     13
 New state     30 was old state    120
 New state     31 was old state     87
 New state     32 was old state     17
 New state     33 was old state    100
 New state     34 was old state     45
 New state     35 was old state     63
 New state     36 was old state     88
 New state     37 was old state     93
 New state     38 was old state    122
 New state     39 was old state     50
 New state     40 was old state     18
 New state     41 was old state    154
 New state     42 was old state     47
 New state     43 was old state     75
 New state     44 was old state     62
 New state     45 was old state     57
 New state     46 was old state     81
 New state     47 was old state     76
 New state     48 was old state     54
 New state     49 was old state     84
 New state     50 was old state     44
 Excitation Energies [eV] at current iteration:
 Root      1 :     5.478427055534164
 Root      2 :     5.668840726768919
 Root      3 :     5.857120578332840
 Root      4 :     5.893859112101011
 Root      5 :     5.922682996552086
 Root      6 :     5.980181237993428
 Root      7 :     6.010724447834125
 Root      8 :     6.012577215446602
 Root      9 :     6.035898202677689
 Root     10 :     6.063276400801683
 Root     11 :     6.063835239045435
 Root     12 :     6.089274879429709
 Root     13 :     6.109505533302280
 Root     14 :     6.145350781233777
 Root     15 :     6.200829823425462
 Root     16 :     6.208457160433744
 Root     17 :     6.297394673493725
 Root     18 :     6.404776381796180
 Root     19 :     6.453880226580582
 Root     20 :     6.582391591798034
 Root     21 :     6.591708932193796
 Root     22 :     6.666923585779300
 Root     23 :     6.675046510497118
 Root     24 :     6.769634154834184
 Root     25 :     6.876877032292514
 Root     26 :     6.910124140656635
 Root     27 :     6.923820846421598
 Root     28 :     6.929745627235940
 Root     29 :     6.969351206032117
 Root     30 :     6.988154156098833
 Root     31 :     7.452254421387441
 Root     32 :     7.497689357538930
 Root     33 :     7.524182765541780
 Root     34 :     7.590454156751431
 Root     35 :     7.594979195644664
 Root     36 :     7.602067717040418
 Root     37 :     7.676135809080648
 Root     38 :     7.688652763336408
 Root     39 :     7.746598398084705
 Root     40 :     7.747603552254278
 Root     41 :     7.751796493054163
 Root     42 :     7.774544543835788
 Root     43 :     7.775036215813301
 Root     44 :     7.828852112292490
 Root     45 :     7.837675221706518
 Root     46 :     7.869836185070770
 Root     47 :     7.895638847968099
 Root     48 :     7.900109219421476
 Root     49 :     7.927789126089893
 Root     50 :     7.953263632370689
 Root     51 :     7.959642572878834
 Root     52 :     8.059464585642063
 Root     53 :     8.101724623062559
 Root     54 :     8.109105629810211
 Root     55 :     8.143960630555151
 Root     56 :     8.167600118782287
 Root     57 :     8.241909397206735
 Root     58 :     8.243955343798790
 Root     59 :     8.329576695339970
 Root     60 :     8.383440599410923
 Root     61 :     8.431559856968407
 Root     62 :     8.438072740480001
 Root     63 :     8.453098542941348
 Root     64 :     8.490677965849887
 Root     65 :     8.501138315955956
 Root     66 :     8.507883521763064
 Root     67 :     8.525882688283012
 Root     68 :     8.546785673877370
 Root     69 :     8.583230919533907
 Root     70 :     8.640891027828030
 Root     71 :     8.642076482742635
 Root     72 :     8.658597455166319
 Root     73 :     8.674595105377851
 Root     74 :     8.688811020329332
 Root     75 :     8.703033901845059
 Root     76 :     8.739002867727201
 Root     77 :     8.757343073107656
 Root     78 :     8.762276051051703
 Root     79 :     8.775006942158944
 Root     80 :     8.781143084067820
 Root     81 :     8.788251681258265
 Root     82 :     8.789282297556461
 Root     83 :     8.812352545705478
 Root     84 :     8.847688572429977
 Root     85 :     8.907402621523250
 Root     86 :     8.916304344937069
 Root     87 :     8.917516042086854
 Root     88 :     8.953633770738385
 Root     89 :     8.972158017628123
 Root     90 :     8.988942866469902
 Root     91 :     8.998285158492992
 Root     92 :     9.004282131998476
 Root     93 :     9.006419501218467
 Root     94 :     9.027043560828032
 Root     95 :     9.069545892142248
 Root     96 :     9.092221575967992
 Root     97 :     9.107384435203697
 Root     98 :     9.120692924624224
 Root     99 :     9.123784813085113
 Root    100 :     9.133633867867438
 Root    101 :     9.147631167894867
 Root    102 :     9.160019806802106
 Root    103 :     9.193430422904463
 Root    104 :     9.203389523018529
 Root    105 :     9.211422259662877
 Root    106 :     9.251145323234221
 Root    107 :     9.257004916974589
 Root    108 :     9.267861309926674
 Root    109 :     9.273054943445034
 Root    110 :     9.285832819409384
 Root    111 :     9.290629210640262
 Root    112 :     9.298691203367866
 Root    113 :     9.323128307536617
 Root    114 :     9.326963173514930
 Root    115 :     9.373970032691764
 Root    116 :     9.388303750544692
 Root    117 :     9.414063923620558
 Root    118 :     9.421043381773545
 Root    119 :     9.454721793752821
 Root    120 :     9.461235751328326
 Root    121 :     9.474974752962444
 Root    122 :     9.482384491074798
 Root    123 :     9.484855071120936
 Root    124 :     9.493226757935615
 Root    125 :     9.502814192213670
 Root    126 :     9.603074646182336
 Root    127 :     9.609876355906252
 Root    128 :     9.613147081145415
 Root    129 :     9.636572397885043
 Root    130 :     9.651189703362943
 Root    131 :     9.737924246885195
 Root    132 :     9.752169888318459
 Root    133 :     9.770950855548842
 Root    134 :     9.778158972247157
 Root    135 :     9.838270539052367
 Root    136 :     9.840258973760804
 Root    137 :     9.852175350609391
 Root    138 :     9.882746123885608
 Root    139 :     9.893282179739508
 Root    140 :     9.942552395298314
 Root    141 :     9.956467000177652
 Root    142 :     9.968230074736120
 Root    143 :     9.994924491993656
 Root    144 :     9.995459552386198
 Root    145 :     9.998520208500702
 Root    146 :    10.002077081632840
 Root    147 :    10.032888969695010
 Root    148 :    10.034022498149830
 Root    149 :    10.056396315177030
 Root    150 :    10.065848008926170
 Root    151 :    10.071443597310310
 Root    152 :    10.072011803679320
 Root    153 :    10.082030748777390
 Root    154 :    10.099337427211840
 Root    155 :    10.114063632489640
 Root    156 :    10.114816466010820
 Root    157 :    10.132881461480740
 Root    158 :    10.134903666576910
 Root    159 :    10.146337280475600
 Root    160 :    10.183806193243350
 Root    161 :    10.188629687085980
 Root    162 :    10.189664937284120
 Root    163 :    10.190376776876460
 Root    164 :    10.193866601776750
 Root    165 :    10.243241262162830
 Root    166 :    10.245032965769460
 Root    167 :    10.259737430997710
 Root    168 :    10.312961414863830
 Root    169 :    10.325231054600000
 Root    170 :    10.328524981348340
 Root    171 :    10.337994027644830
 Root    172 :    10.350845335509250
 Root    173 :    10.388143395593850
 Root    174 :    10.391122374102950
 Root    175 :    10.404381665489840
 Root    176 :    10.411779150826040
 Root    177 :    10.418996475549990
 Root    178 :    10.429545508120740
 Root    179 :    10.456505589003900
 Root    180 :    10.465892934515830
 Root    181 :    10.469857141243120
 Root    182 :    10.521925626777330
 Root    183 :    10.538250407527110
 Root    184 :    10.561350168963030
 Root    185 :    10.561622911133900
 Root    186 :    10.570988561319770
 Root    187 :    10.580819275582820
 Root    188 :    10.613688358348330
 Root    189 :    10.617285786715420
 Root    190 :    10.641922185917510
 Root    191 :    10.643758923175330
 Root    192 :    10.708839583981510
 Root    193 :    10.714461543266390
 Root    194 :    10.795381419067710
 Root    195 :    10.836028828744250
 Root    196 :    10.868685071837930
 Root    197 :    11.013491803685800
 Root    198 :    11.180947727511980
 Root    199 :    11.277233053944560
 Root    200 :    11.462508050754950
 Iteration     2 Dimension   300 NMult   200 NNew    100
 CISAX will form    60 AO SS matrices at one time.
 NMat=    60 NSing=    60 JSym2X= 0.
 NMat=    40 NSing=    40 JSym2X= 0.
 New state      1 was old state      5
 Root      1 not converged, maximum delta is    0.292150504579554
 New state      2 was old state      7
 Root      2 not converged, maximum delta is    0.132485446110486
 New state      3 was old state     10
 Root      3 not converged, maximum delta is    0.193926086216163
 New state      4 was old state     13
 Root      4 not converged, maximum delta is    0.183983575001133
 New state      5 was old state      4
 Root      5 not converged, maximum delta is    0.113803970339373
 Root      6 not converged, maximum delta is    0.360894439438225
 New state      7 was old state      1
 Root      7 not converged, maximum delta is    0.087845011745060
 New state      8 was old state      9
 Root      8 not converged, maximum delta is    0.156089414239033
 New state      9 was old state     11
 Root      9 not converged, maximum delta is    0.089589271900318
 New state     10 was old state      2
 Root     10 not converged, maximum delta is    0.152496296769186
 New state     11 was old state     21
 Root     11 not converged, maximum delta is    0.180520458284550
 New state     12 was old state      8
 Root     12 not converged, maximum delta is    0.203787221914579
 New state     13 was old state     12
 Root     13 not converged, maximum delta is    0.117987599261492
 New state     14 was old state      3
 Root     14 not converged, maximum delta is    0.315981735569268
 New state     15 was old state     28
 Root     15 not converged, maximum delta is    0.222531216402217
 Root     16 not converged, maximum delta is    0.283732309030211
 New state     17 was old state     25
 Root     17 not converged, maximum delta is    0.179876587115426
 New state     18 was old state     17
 Root     18 not converged, maximum delta is    0.162948454617997
 New state     19 was old state     29
 Root     19 not converged, maximum delta is    0.414336685808559
 New state     20 was old state     26
 Root     20 not converged, maximum delta is    0.335621534075082
 New state     21 was old state     14
 Root     21 not converged, maximum delta is    0.107871537164262
 New state     22 was old state     15
 Root     22 not converged, maximum delta is    0.142304857526089
 Root     23 not converged, maximum delta is    0.129290924798425
 New state     24 was old state     18
 Root     24 not converged, maximum delta is    0.424875761350133
 New state     25 was old state     19
 Root     25 not converged, maximum delta is    0.353100218843025
 New state     26 was old state     22
 Root     26 not converged, maximum delta is    0.110706020996379
 New state     27 was old state     20
 Root     27 not converged, maximum delta is    0.051132477723784
 New state     28 was old state     36
 Root     28 not converged, maximum delta is    0.371772800888591
 New state     29 was old state     35
 Root     29 not converged, maximum delta is    0.363496981069121
 New state     30 was old state     31
 Root     30 not converged, maximum delta is    0.203586410219574
 New state     31 was old state     33
 Root     31 not converged, maximum delta is    0.116866665566397
 New state     32 was old state     24
 Root     32 not converged, maximum delta is    0.173946226295447
 New state     33 was old state     34
 Root     33 not converged, maximum delta is    0.209042861727008
 New state     34 was old state     38
 Root     34 not converged, maximum delta is    0.264790589502206
 New state     35 was old state     37
 Root     35 not converged, maximum delta is    0.326203703754560
 New state     36 was old state     27
 Root     36 not converged, maximum delta is    0.184885972598682
 New state     37 was old state     39
 Root     37 not converged, maximum delta is    0.250404854240621
 New state     38 was old state     41
 Root     38 not converged, maximum delta is    0.220548754815941
 New state     39 was old state     30
 Root     39 not converged, maximum delta is    0.163799416161276
 New state     40 was old state     46
 Root     40 not converged, maximum delta is    0.308385566789270
 New state     41 was old state     32
 Root     41 not converged, maximum delta is    0.195537374515553
 New state     42 was old state     43
 Root     42 not converged, maximum delta is    0.227564426385341
 New state     43 was old state     52
 Root     43 not converged, maximum delta is    0.248078954743112
 New state     44 was old state     40
 Root     44 not converged, maximum delta is    0.282366653533565
 New state     45 was old state     42
 Root     45 not converged, maximum delta is    0.198601694571185
 New state     46 was old state     45
 Root     46 not converged, maximum delta is    0.154389132717321
 New state     47 was old state     49
 Root     47 not converged, maximum delta is    0.356496021697082
 New state     48 was old state     50
 Root     48 not converged, maximum delta is    0.178377671155882
 New state     49 was old state     55
 Root     49 not converged, maximum delta is    0.250700540607239
 New state     50 was old state     48
 Root     50 not converged, maximum delta is    0.319035483015617
 Excitation Energies [eV] at current iteration:
 Root      1 :     5.014980270242097   Change is   -0.907702726309989
 Root      2 :     5.079594966033480   Change is   -0.931129481800645
 Root      3 :     5.105841637782883   Change is   -0.957434763018799
 Root      4 :     5.135046190498902   Change is   -0.974459342803378
 Root      5 :     5.181006553971124   Change is   -0.712852558129888
 Root      6 :     5.245180169847413   Change is   -0.735001068146015
 Root      7 :     5.246471815189881   Change is   -0.231955240344283
 Root      8 :     5.268648075729696   Change is   -0.767250126947993
 Root      9 :     5.295332903176279   Change is   -0.768502335869156
 Root     10 :     5.405281027309417   Change is   -0.263559699459502
 Root     11 :     5.528077802423327   Change is   -1.063631129770469
[...]
 Alpha virt. eigenvalues --    3.48757   3.48927   3.49117   3.49372   3.49538
 Alpha virt. eigenvalues --    3.49842   3.50129   3.50691   3.50749   3.50931
 Alpha virt. eigenvalues --    3.51347   3.51522   3.51622   3.51909   3.52033
 Alpha virt. eigenvalues --    3.52066   3.52101   3.52542   3.52604   3.52806
 Alpha virt. eigenvalues --    3.52838   3.53029   3.53436   3.53484   3.53850
 Alpha virt. eigenvalues --    3.54083   3.54258   3.54628   3.54708   3.54808
 Alpha virt. eigenvalues --    3.55027   3.55410   3.55422   3.56163   3.56180
 Alpha virt. eigenvalues --    3.56192   3.56676   3.56989   3.57131   3.57429
 Alpha virt. eigenvalues --    3.57604   3.57929   3.58534   3.59003   3.59310
 Alpha virt. eigenvalues --    3.59324   3.59670   3.59748   3.59875   3.60349
 Alpha virt. eigenvalues --    3.60382   3.60576   3.60772   3.60834   3.61223
 Alpha virt. eigenvalues --    3.61555   3.61618   3.62147   3.62508   3.62882
 Alpha virt. eigenvalues --    3.63386   3.63719   3.63942   3.64141   3.64504
 Alpha virt. eigenvalues --    3.64545   3.64753   3.64995   3.65241   3.65699
 Alpha virt. eigenvalues --    3.65912   3.66782   3.66903   3.66947   3.67048
 Alpha virt. eigenvalues --    3.67268   3.67523   3.67564   3.67588   3.67643
 Alpha virt. eigenvalues --    3.67807   3.67858   3.68252   3.68366   3.68881
 Alpha virt. eigenvalues --    3.69147   3.69326   3.69448   3.69616   3.69686
 Alpha virt. eigenvalues --    3.70105   3.70407   3.70491   3.70832   3.71592
 Alpha virt. eigenvalues --    3.71668   3.71893   3.71916   3.72236   3.72297
 Alpha virt. eigenvalues --    3.72336   3.72382   3.72891   3.73304   3.73419
 Alpha virt. eigenvalues --    3.74092   3.74260   3.74374   3.74529   3.74854
 Alpha virt. eigenvalues --    3.75047   3.75069   3.75461   3.75487   3.75535
 Alpha virt. eigenvalues --    3.75823   3.76404   3.76419   3.76649   3.76675
 Alpha virt. eigenvalues --    3.76861   3.77060   3.77171   3.77551   3.78004
 Alpha virt. eigenvalues --    3.78106   3.78299   3.78790   3.79006   3.79116
 Alpha virt. eigenvalues --    3.79228   3.79267   3.79925   3.80206   3.80492
 Alpha virt. eigenvalues --    3.80749   3.80814   3.81366   3.81839   3.82341
 Alpha virt. eigenvalues --    3.82542   3.82659   3.83414   3.83533   3.83657
 Alpha virt. eigenvalues --    3.84412   3.84633   3.84779   3.85279   3.85614
 Alpha virt. eigenvalues --    3.85662   3.85877   3.86032   3.86673   3.86823
 Alpha virt. eigenvalues --    3.86962   3.87204   3.87557   3.87950   3.88008
 Alpha virt. eigenvalues --    3.88033   3.88076   3.88370   3.88687   3.88802
 Alpha virt. eigenvalues --    3.88851   3.89247   3.89624   3.89804   3.90039
 Alpha virt. eigenvalues --    3.90074   3.90424   3.90672   3.90998   3.91031
 Alpha virt. eigenvalues --    3.91763   3.91839   3.92185   3.92403   3.92488
 Alpha virt. eigenvalues --    3.92597   3.92614   3.92714   3.93273   3.93692
 Alpha virt. eigenvalues --    3.93977   3.94271   3.94478   3.94523   3.94609
 Alpha virt. eigenvalues --    3.94651   3.95225   3.95246   3.95377   3.95683
 Alpha virt. eigenvalues --    3.95773   3.96084   3.96340   3.96483   3.96898
 Alpha virt. eigenvalues --    3.97124   3.97212   3.97327   3.97346   3.97459
 Alpha virt. eigenvalues --    3.97810   3.97979   3.98165   3.98323   3.98541
 Alpha virt. eigenvalues --    3.98571   4.00228   4.00506   4.00599   4.00775
 Alpha virt. eigenvalues --    4.00920   4.01337   4.01899   4.02127   4.02741
 Alpha virt. eigenvalues --    4.02903   4.03102   4.03491   4.03506   4.04510
 Alpha virt. eigenvalues --    4.04689   4.05405   4.05761   4.06125   4.06902
 Alpha virt. eigenvalues --    4.07220   4.08032   4.08644   4.09390   4.11371
 Alpha virt. eigenvalues --    4.11734   4.12664   4.13572   4.13692   4.14903
 Alpha virt. eigenvalues --    4.15704   4.15922   4.16273   4.16447   4.16863
 Alpha virt. eigenvalues --    4.16973   4.17176   4.17380   4.18771   4.19069
 Alpha virt. eigenvalues --    4.19253   4.19370   4.19839   4.20182   4.20659
 Alpha virt. eigenvalues --    4.20853   4.21178   4.22484   4.22950   4.23537
 Alpha virt. eigenvalues --    4.24124   4.24736   4.25182   4.25576   4.25730
 Alpha virt. eigenvalues --    4.26127   4.27340   4.27578   4.27820   4.29058
 Alpha virt. eigenvalues --    4.29110   4.30167   4.31100   4.31619   4.32393
 Alpha virt. eigenvalues --    4.32638   4.32760   4.32934   4.33322   4.33417
 Alpha virt. eigenvalues --    4.33894   4.33979   4.34008   4.34169   4.34252
 Alpha virt. eigenvalues --    4.34529   4.34963   4.35414   4.35963   4.36055
 Alpha virt. eigenvalues --    4.36138   4.36397   4.36785   4.36867   4.37024
 Alpha virt. eigenvalues --    4.37199   4.37830   4.38280   4.38656   4.38919
 Alpha virt. eigenvalues --    4.39856   4.41248   4.42344   4.43821   4.44325
 Alpha virt. eigenvalues --    4.45512   4.45909   4.45983   4.46149   4.46846
 Alpha virt. eigenvalues --    4.47489   4.47555   4.48051   4.48175   4.48502
 Alpha virt. eigenvalues --    4.48883   4.48943   4.49011   4.49391   4.49852
 Alpha virt. eigenvalues --    4.50214   4.50380   4.50691   4.50751   4.51436
 Alpha virt. eigenvalues --    4.51516   4.51965   4.52794   4.53342   4.53988
 Alpha virt. eigenvalues --    4.54162   4.54625   4.54792   4.54965   4.55062
 Alpha virt. eigenvalues --    4.55296   4.55336   4.55692   4.56046   4.56083
 Alpha virt. eigenvalues --    4.57142   4.57288   4.57472   4.57833   4.58073
 Alpha virt. eigenvalues --    4.58243   4.58405   4.58639   4.59156   4.59312
 Alpha virt. eigenvalues --    4.59421   4.59544   4.59726   4.59866   4.60017
 Alpha virt. eigenvalues --    4.60199   4.60419   4.61130   4.61951   4.61986
 Alpha virt. eigenvalues --    4.62336   4.62598   4.62732   4.63012   4.63256
 Alpha virt. eigenvalues --    4.63737   4.64177   4.64562   4.64771   4.65077
 Alpha virt. eigenvalues --    4.65731   4.65786   4.66484   4.66973   4.67071
 Alpha virt. eigenvalues --    4.67579   4.67718   4.67918   4.68985   4.69008
 Alpha virt. eigenvalues --    4.69527   4.70620   4.70633   4.70886   4.71154
 Alpha virt. eigenvalues --    4.71859   4.72185   4.72751   4.72909   4.72987
 Alpha virt. eigenvalues --    4.73039   4.73385   4.73496   4.73881   4.73985
 Alpha virt. eigenvalues --    4.74550   4.74736   4.75577   4.75898   4.76531
 Alpha virt. eigenvalues --    4.76922   4.77098   4.77138   4.78374   4.78389
 Alpha virt. eigenvalues --    4.80274   4.80509   4.80786   4.81184   4.81257
 Alpha virt. eigenvalues --    4.81852   4.82103   4.83232   4.83933   4.84048
 Alpha virt. eigenvalues --    4.85424   4.85995   4.86442   4.89187   4.89311
 Alpha virt. eigenvalues --    4.90401   4.90658   4.91382   4.92810   4.93050
 Alpha virt. eigenvalues --    4.94201   4.94375   4.94724   4.96211   4.96342
 Alpha virt. eigenvalues --    4.96934   4.96991   4.98480   4.99197   4.99257
 Alpha virt. eigenvalues --    4.99718   4.99980   5.00277   5.00321   5.01541
 Alpha virt. eigenvalues --    5.01706   5.01911   5.02691   5.03426   5.04032
 Alpha virt. eigenvalues --    5.04595   5.05496   5.05551   5.05808   5.06949
 Alpha virt. eigenvalues --    5.08294   5.08718   5.08856   5.09495   5.10470
 Alpha virt. eigenvalues --    5.10970   5.11798   5.12132   5.12219   5.12280
 Alpha virt. eigenvalues --    5.13351   5.14646   5.14776   5.15500   5.15817
 Alpha virt. eigenvalues --    5.16594   5.17525   5.17735   5.18114   5.18214
 Alpha virt. eigenvalues --    5.20234   5.20883   5.21134   5.21424   5.21551
 Alpha virt. eigenvalues --    5.21809   5.21957   5.22421   5.22592   5.22936
 Alpha virt. eigenvalues --    5.23153   5.23312   5.23453   5.23919   5.24507
 Alpha virt. eigenvalues --    5.25060   5.25364   5.27812   5.27917   5.29320
 Alpha virt. eigenvalues --    5.29668   5.30102   5.31924   5.32284   5.33927
 Alpha virt. eigenvalues --    5.34159   5.34699   5.35234   5.35339   5.36985
 Alpha virt. eigenvalues --    5.37090   5.37931   5.38574   5.39337   5.40193
 Alpha virt. eigenvalues --    5.41612   5.41721   5.42408   5.43345   5.43476
 Alpha virt. eigenvalues --    5.44781   5.45200   5.45406   5.45879   5.46436
 Alpha virt. eigenvalues --    5.46513   5.47638   5.47694   5.48669   5.49967
 Alpha virt. eigenvalues --    5.50192   5.50380   5.50665   5.51070   5.51511
 Alpha virt. eigenvalues --    5.53111   5.53670   5.55362   5.56604   5.59059
 Alpha virt. eigenvalues --    5.59095   5.60643   5.60692   5.60853   5.60948
 Alpha virt. eigenvalues --    5.61976   5.62498   5.62797   5.63819   5.64105
 Alpha virt. eigenvalues --    5.64803   5.66810   5.68535   5.68864   5.69378
 Alpha virt. eigenvalues --    5.69597   5.71705   5.73492   5.73675   5.73751
 Alpha virt. eigenvalues --    5.75414   5.75966   5.78335   5.78874   5.79124
 Alpha virt. eigenvalues --    5.79810   5.80331   5.80461   5.80643   5.80844
 Alpha virt. eigenvalues --    5.81128   5.81262   5.82158   5.82681   5.83858
 Alpha virt. eigenvalues --    5.83909   5.86309   5.86968   5.89511   5.90554
 Alpha virt. eigenvalues --    5.92715   5.96228   5.96762   5.96959   5.98317
 Alpha virt. eigenvalues --    5.99648   5.99775   6.00098   6.00238   6.01937
 Alpha virt. eigenvalues --    6.02107   6.03596   6.04585   6.05084   6.05508
 Alpha virt. eigenvalues --    6.05847   6.06695   6.09163   6.10502   6.12062
 Alpha virt. eigenvalues --    6.12666   6.14285   6.14338   6.15101   6.15810
 Alpha virt. eigenvalues --    6.15883   6.16008   6.19371   6.21667   6.22511
 Alpha virt. eigenvalues --    6.22536   6.23240   6.24406   6.24775   6.25227
 Alpha virt. eigenvalues --    6.27210   6.27526   6.28730   6.31049   6.32710
 Alpha virt. eigenvalues --    6.34742   6.38007   6.38825   6.43315   6.44086
 Alpha virt. eigenvalues --    6.44535   6.52692   6.64700   6.65737   6.70885
 Alpha virt. eigenvalues --    6.79620   6.81251   6.84558   6.87014   6.88412
 Alpha virt. eigenvalues --    6.89406   6.91037   6.91506   6.96881   6.98618
 Alpha virt. eigenvalues --    7.20353  23.34769  23.44406  23.45905  23.52509
 Alpha virt. eigenvalues --   23.60366  23.61223  23.61594  23.65209  23.75710
 Alpha virt. eigenvalues --   23.77050  23.77635  23.78743  23.79535  23.82311
 Alpha virt. eigenvalues --   23.82981  23.83368  23.84818  23.84966  23.88350
 Alpha virt. eigenvalues --   23.89622  23.90136  23.90468  23.90951  23.91290
 Alpha virt. eigenvalues --   23.92864  23.93892  23.94063  23.95709  23.99295
 Alpha virt. eigenvalues --   24.12785  24.15246  24.15767  24.19335  24.19920
 Alpha virt. eigenvalues --   24.20894  24.21309  24.26662  24.27591  24.37623
 Alpha virt. eigenvalues --   24.37966  24.38669  24.39047  24.40139  24.40949
 Alpha virt. eigenvalues --   24.42402  24.72634  24.74251  24.74331  24.76455
 Alpha virt. eigenvalues --   24.78126  24.97324  24.97982  24.98345  25.00884
 Alpha virt. eigenvalues --   25.01938  25.14792  33.60705  33.63151  34.68188
 Alpha virt. eigenvalues --   34.90811  34.91611  35.05439
          Condensed to atoms (all electrons):
 Mulliken charges:
               1
     1  C   -0.021395
     2  C    0.045656
     3  C   -0.022653
     4  C    0.475239
     5  C   -0.177180
     6  C    0.474152
     7  C   -0.231568
     8  C   -0.231348
     9  N   -0.177402
    10  N   -0.177478
    11  N    0.139357
    12  C    0.152291
    13  C    0.142375
    14  C   -0.342087
    15  C   -0.003864
    16  C   -0.346079
    17  C    0.005967
    18  C   -0.122209
    19  H    0.159388
    20  C   -0.231869
    21  C   -0.124831
    22  H    0.163589
    23  C   -0.234734
    24  C   -0.171661
    25  H    0.162507
    26  H    0.168521
    27  C   -0.168459
    28  H    0.162503
    29  H    0.168514
    30  H    0.160346
    31  H    0.160512
    32  N    0.262790
    33  C    0.132009
    34  C    0.133849
    35  C   -0.363656
    36  C   -0.001089
    37  C   -0.360878
    38  C   -0.001785
    39  C   -0.119557
    40  H    0.154366
    41  C   -0.227570
    42  C   -0.121747
    43  H    0.153739
    44  C   -0.227938
    45  C   -0.181389
    46  H    0.161198
    47  H    0.167610
    48  C   -0.180831
    49  H    0.161170
    50  H    0.167588
    51  H    0.158879
    52  H    0.158850
    53  N    0.140846
    54  C    0.142921
    55  C    0.153036
    56  C   -0.347615
    57  C    0.005577
    58  C   -0.340969
    59  C   -0.004536
    60  C   -0.122961
    61  H    0.163188
    62  C   -0.233848
    63  C   -0.123316
    64  H    0.159401
    65  C   -0.232104
    66  C   -0.169705
    67  H    0.162494
    68  H    0.168536
    69  C   -0.171173
    70  H    0.162461
    71  H    0.168480
    72  H    0.160460
    73  H    0.160327
    74  N    0.099493
    75  C    0.173728
    76  C    0.175329
    77  C   -0.354629
    78  C   -0.010057
    79  C   -0.354155
    80  C   -0.010605
    81  C   -0.109624
    82  H    0.167748
    83  C   -0.224486
    84  C   -0.110340
    85  H    0.167807
    86  C   -0.224479
    87  C   -0.178614
    88  H    0.163444
    89  H    0.169483
    90  C   -0.178258
    91  H    0.163447
    92  H    0.169510
    93  H    0.161018
    94  H    0.161032
 Sum of Mulliken charges =  -0.00000
 Mulliken charges with hydrogens summed into heavy atoms:
               1
     1  C   -0.021395
     2  C    0.045656
     3  C   -0.022653
     4  C    0.475239
     5  C   -0.177180
     6  C    0.474152
     7  C   -0.231568
     8  C   -0.231348
     9  N   -0.177402
    10  N   -0.177478
    11  N    0.139357
    12  C    0.152291
    13  C    0.142375
    14  C   -0.182699
    15  C   -0.003864
    16  C   -0.182490
    17  C    0.005967
    18  C    0.040298
    20  C   -0.063347
    21  C    0.037672
    23  C   -0.066220
    24  C   -0.011315
    27  C   -0.007947
    32  N    0.262790
    33  C    0.132009
    34  C    0.133849
    35  C   -0.209290
    36  C   -0.001089
    37  C   -0.207139
    38  C   -0.001785
    39  C    0.041641
    41  C   -0.059960
    42  C    0.039423
    44  C   -0.060349
    45  C   -0.022510
    48  C   -0.021981
    53  N    0.140846
    54  C    0.142921
    55  C    0.153036
    56  C   -0.184427
    57  C    0.005577
    58  C   -0.181568
    59  C   -0.004536
    60  C    0.039533
    62  C   -0.065312
    63  C    0.039145
    65  C   -0.063624
    66  C   -0.009246
    69  C   -0.010846
    74  N    0.099493
    75  C    0.173728
    76  C    0.175329
    77  C   -0.186881
    78  C   -0.010057
    79  C   -0.186348
    80  C   -0.010605
    81  C    0.053820
    83  C   -0.055003
    84  C    0.053107
    86  C   -0.054969
    87  C   -0.017596
    90  C   -0.017227
 Electronic spatial extent (au):  <R**2>=          34883.6908
 Charge=             -0.0000 electrons
 Dipole moment (field-independent basis, Debye):
    X=              3.7765    Y=              0.0339    Z=             -0.0020  Tot=              3.7766
 Quadrupole moment (field-independent basis, Debye-Ang):
   XX=           -359.0110   YY=           -386.4632   ZZ=           -306.2378
   XY=              0.0073   XZ=             -0.2674   YZ=             -3.0082
 Traceless Quadrupole moment (field-independent basis, Debye-Ang):
   XX=             -8.4403   YY=            -35.8925   ZZ=             44.3328
   XY=              0.0073   XZ=             -0.2674   YZ=             -3.0082
 Octapole moment (field-independent basis, Debye-Ang**2):
  XXX=            -59.3518  YYY=              6.6053  ZZZ=             -0.2277  XYY=            255.1877
  XXY=             -3.7593  XXZ=             -0.5458  XZZ=             -6.8562  YZZ=              0.1838
  YYZ=              1.0284  XYZ=              9.0631
 Hexadecapole moment (field-independent basis, Debye-Ang**3):
 XXXX=         -20103.4227 YYYY=         -16361.9603 ZZZZ=          -8356.9692 XXXY=             21.1301
 XXXZ=              4.0744 YYYX=            -22.7724 YYYZ=            -28.7274 ZZZX=             -5.7953
 ZZZY=            -40.2659 XXYY=          -7338.3416 XXZZ=          -4970.4579 YYZZ=          -4232.5961
 XXYZ=            -24.6196 YYXZ=             -5.2451 ZZXY=             -1.5842
 N-N= 8.753405648138D+03 E-N=-2.325350606830D+04  KE= 2.466416325373D+03
 Leave Link  601 at Sat Jul  2 14:41:38 2022, MaxMem=  5242880000 cpu:        19.8
 (Enter /opt/nce/packages/global/g09/l9999.exe)
 1\1\GINC-CN008\SP\RTD-FC\def2TZVP\C56H32N6\PNG4RJV\02-Jul-2022\0\\#p h
 f/def2TZVP td=(NStates=50) int=ultrafine scrf=(SMD,solvent=Acetonitril
 e)\\Title\\0,1\C,0,-0.024105,1.200118,0.024507\C,0,0.694466,0.002905,0
 .000974\C,0,-0.006291,-1.204866,-0.024488\C,0,-1.397623,-1.198516,-0.0
 29807\C,0,-2.117747,-0.018203,-0.001261\C,0,-1.415047,1.172534,0.02758
 2\C,0,-2.113368,-2.449631,-0.067648\C,0,-2.149496,2.412643,0.063921\N,
 0,-2.677778,-3.423944,-0.099011\N,0,-2.728309,3.378509,0.094174\N,0,0.
 620026,2.454145,0.042994\C,0,0.915354,3.19987,1.182635\C,0,0.860411,3.
 254082,-1.073013\C,0,0.734045,2.875633,2.516799\C,0,1.424627,4.4383,0.
 796134\C,0,0.614981,2.99261,-2.410852\C,0,1.389727,4.472844,-0.653403\
 C,0,1.105622,3.810936,3.458872\H,0,0.316458,1.93502,2.814897\C,0,1.800
 376,5.364154,1.759583\C,0,0.942454,3.971453,-3.324485\H,0,0.180856,2.0
 67344,-2.732462\C,0,1.720824,5.443242,-1.589208\C,0,1.643015,5.043199,
 3.089706\H,0,0.975289,3.583197,4.500488\H,0,2.197227,6.319527,1.470914
 \C,0,1.499183,5.185271,-2.923805\H,0,0.761737,3.792973,-4.368183\H,0,2
 .133116,6.384021,-1.275363\H,0,1.924663,5.748095,3.849142\H,0,1.74537,
 5.925343,-3.661807\N,0,2.105539,0.013031,0.006083\C,0,2.917548,-0.0341
 56,1.135783\C,0,2.929148,0.07064,-1.114836\C,0,2.564666,-0.098075,2.47
 3716\C,0,4.254329,-0.006992,0.741362\C,0,2.590265,0.128325,-2.45674\C,
 0,4.261719,0.060705,-0.70562\C,0,3.578544,-0.135462,3.405787\H,0,1.540
 234,-0.116865,2.782539\C,0,5.263395,-0.045225,1.694381\C,0,3.613755,0.
 177791,-3.377541\H,0,1.568858,0.13368,-2.775339\C,0,5.280674,0.110399,
 -1.647503\C,0,4.92014,-0.109901,3.025984\H,0,3.326796,-0.185288,4.4489
 41\H,0,6.294934,-0.024928,1.39565\C,0,4.95131,0.169361,-2.982844\H,0,3
 .373138,0.2232,-4.423546\H,0,6.309031,0.102852,-1.337405\H,0,5.685863,
 -0.1405,3.778202\H,0,5.724909,0.208572,-3.726529\N,0,0.657585,-2.44801
 ,-0.043693\C,0,0.898853,-3.250922,1.069464\C,0,0.981392,-3.179362,-1.1
 84942\C,0,0.635728,-3.000713,2.406022\C,0,1.453568,-4.457749,0.648094\
 C,0,0.812108,-2.847648,-2.518964\C,0,1.507201,-4.411557,-0.800678\C,0,
 0.968103,-3.980288,3.317111\H,0,0.186518,-2.083002,2.728653\C,0,1.7892
 67,-5.42879,1.581582\C,0,1.213264,-3.768635,-3.46294\H,0,0.380109,-1.9
 12797,-2.814636\C,0,1.912696,-5.3227,-1.766099\C,0,1.547861,-5.182931,
 2.91509\H,0,0.773652,-3.811224,4.359918\H,0,2.220662,-6.360736,1.26705
 8\C,0,1.768007,-4.993872,-3.095747\H,0,1.093053,-3.535105,-4.504488\H,
 0,2.322723,-6.273148,-1.479514\H,0,1.797095,-5.923755,3.651297\H,0,2.0
 73166,-5.687367,-3.85661\N,0,-3.521715,-0.027283,-0.003693\C,0,-4.3299
 23,0.00226,-1.135584\C,0,-4.337298,-0.062092,1.122637\C,0,-3.963149,0.
 042042,-2.470408\C,0,-5.665265,-0.013944,-0.737053\C,0,-3.979863,-0.09
 7064,2.460149\C,0,-5.670007,-0.055262,0.714681\C,0,-4.975578,0.06589,-
 3.406414\H,0,-2.933355,0.053647,-2.771559\C,0,-6.668547,0.010675,-1.69
 5763\C,0,-4.998785,-0.125767,3.388942\H,0,-2.951965,-0.101943,2.768164
 \C,0,-6.679852,-0.084571,1.666241\C,0,-6.317363,0.050668,-3.027675\H,0
 ,-4.722503,0.096884,-4.449784\H,0,-7.702109,-0.000894,-1.403981\C,0,-6
 .337898,-0.119799,3.000685\H,0,-4.753051,-0.153156,4.434191\H,0,-7.711
 341,-0.079603,1.367004\H,0,-7.080657,0.070189,-3.782577\H,0,-7.106426,
 -0.142516,3.750133\\Version=ES64L-G09RevE.01\State=1-A\HF=-2466.913316
 8\RMSD=4.208e-09\PG=C01 [X(C56H32N6)]\\@


 HONESTY IN A LAWYER IS LIKE A HEN'S HIND LEGS.
  -- MAGNUS OLESON, LAKE WOBEGON PATRIARCH, C.1875
 Job cpu time:      42 days 14 hours 52 minutes  9.8 seconds.
 File lengths (MBytes):  RWF=  31903 Int=      0 D2E=      0 Chk=   6203 Scr=      1
 Normal termination of Gaussian 09 at Sat Jul  2 14:41:48 2022.
