 Entering Gaussian System, Link 0=g09
 Input=/home/png4rjv/fotokatalizis/benchmark/OPCs/BOH-Acr_m_CAM-B3LYP-D3_def2TZVP.gjf
 Output=/home/png4rjv/fotokatalizis/benchmark/OPCs/BOH-Acr_m_CAM-B3LYP-D3_def2TZVP.log
 Initial command:
 /opt/nce/packages/global/g09/l1.exe "/home/png4rjv/fotokatalizis/benchmark/OPCs/BOH-Acr_m_CAM-B3LYP-D3_def2TZVP/Gau-52498.inp" -scrdir="/home/png4rjv/fotokatalizis/benchmark/OPCs/BOH-Acr_m_CAM-B3LYP-D3_def2TZVP/"
 Default is to use a total of  12 processors:
                               12 via shared-memory
                                1 via Linda
 Entering Link 1 = /opt/nce/packages/global/g09/l1.exe PID=     52499.
  
 Copyright (c) 1988,1990,1992,1993,1995,1998,2003,2009,2015,
            Gaussian, Inc.  All Rights Reserved.
  
 This is part of the Gaussian(R) 09 program.  It is based on
 the Gaussian(R) 03 system (copyright 2003, Gaussian, Inc.),
 the Gaussian(R) 98 system (copyright 1998, Gaussian, Inc.),
 the Gaussian(R) 94 system (copyright 1995, Gaussian, Inc.),
 the Gaussian 92(TM) system (copyright 1992, Gaussian, Inc.),
 the Gaussian 90(TM) system (copyright 1990, Gaussian, Inc.),
 the Gaussian 88(TM) system (copyright 1988, Gaussian, Inc.),
 the Gaussian 86(TM) system (copyright 1986, Carnegie Mellon
 University), and the Gaussian 82(TM) system (copyright 1983,
 Carnegie Mellon University). Gaussian is a federally registered
 trademark of Gaussian, Inc.
  
 This software contains proprietary and confidential information,
 including trade secrets, belonging to Gaussian, Inc.
  
 This software is provided under written license and may be
 used, copied, transmitted, or stored only in accord with that
 written license.
  
 The following legend is applicable only to US Government
 contracts under FAR:
  
                    RESTRICTED RIGHTS LEGEND
  
 Use, reproduction and disclosure by the US Government is
 subject to restrictions as set forth in subparagraphs (a)
 and (c) of the Commercial Computer Software - Restricted
 Rights clause in FAR 52.227-19.
  
 Gaussian, Inc.
 340 Quinnipiac St., Bldg. 40, Wallingford CT 06492
  
  
 ---------------------------------------------------------------
 Warning -- This program may not be used in any manner that
 competes with the business of Gaussian, Inc. or will provide
 assistance to any competitor of Gaussian, Inc.  The licensee
 of this program is prohibited from giving any competitor of
 Gaussian, Inc. access to this program.  By using this program,
 the user acknowledges that Gaussian, Inc. is engaged in the
 business of creating and licensing software in the field of
 computational chemistry and represents and warrants to the
 licensee that it is not a competitor of Gaussian, Inc. and that
 it will not use this program in any manner prohibited above.
 ---------------------------------------------------------------
  

 Cite this work as:
 Gaussian 09, Revision E.01,
 M. J. Frisch, G. W. Trucks, H. B. Schlegel, G. E. Scuseria, 
 M. A. Robb, J. R. Cheeseman, G. Scalmani, V. Barone, B. Mennucci, 
 G. A. Petersson, H. Nakatsuji, M. Caricato, X. Li, H. P. Hratchian, 
 A. F. Izmaylov, J. Bloino, G. Zheng, J. L. Sonnenberg, M. Hada, 
 M. Ehara, K. Toyota, R. Fukuda, J. Hasegawa, M. Ishida, T. Nakajima, 
 Y. Honda, O. Kitao, H. Nakai, T. Vreven, J. A. Montgomery, Jr., 
 J. E. Peralta, F. Ogliaro, M. Bearpark, J. J. Heyd, E. Brothers, 
 K. N. Kudin, V. N. Staroverov, T. Keith, R. Kobayashi, J. Normand, 
 K. Raghavachari, A. Rendell, J. C. Burant, S. S. Iyengar, J. Tomasi, 
 M. Cossi, N. Rega, J. M. Millam, M. Klene, J. E. Knox, J. B. Cross, 
 V. Bakken, C. Adamo, J. Jaramillo, R. Gomperts, R. E. Stratmann, 
 O. Yazyev, A. J. Austin, R. Cammi, C. Pomelli, J. W. Ochterski, 
 R. L. Martin, K. Morokuma, V. G. Zakrzewski, G. A. Voth, 
 P. Salvador, J. J. Dannenberg, S. Dapprich, A. D. Daniels, 
 O. Farkas, J. B. Foresman, J. V. Ortiz, J. Cioslowski, 
 and D. J. Fox, Gaussian, Inc., Wallingford CT, 2013.
 
 ******************************************
 Gaussian 09:  ES64L-G09RevE.01 30-Nov-2015
                24-Feb-2021 
 ******************************************
 %chk=cp.chk
 Default route:  MaxDisk=500GB
 ----------------------------------------------------------------------
 #p cam-b3lyp/def2TZVP opt freq=noraman nosymm int=ultrafine scrf=(SMD,
 solvent=Acetonitrile) EmpiricalDispersion=GD3BJ
 ----------------------------------------------------------------------
 1/14=-1,18=20,19=15,26=4,38=1/1,3;
 2/9=110,12=2,15=1,17=6,18=5,40=1/2;
 3/5=44,7=101,11=2,16=1,25=1,30=1,70=32201,71=1,72=2,74=-40,75=-5,124=41/1,2,3;
 4//1;
 5/5=2,38=5,53=2/2;
 6/7=2,8=2,9=2,10=2,28=1/1;
 7/30=1/1,2,3,16;
 1/14=-1,18=20,19=15,26=4/3(2);
 2/9=110,15=1/2;
 99//99;
 2/9=110,15=1/2;
 3/5=44,7=101,11=2,16=1,25=1,30=1,70=32205,71=1,72=2,74=-40,75=-5,124=41/1,2,3;
 4/5=5,16=3,69=1/1;
 5/5=2,38=5,53=2/2;
 7/30=1/1,2,3,16;
 1/14=-1,18=20,19=15,26=4/3(-5);
 2/9=110,15=1/2;
 6/7=2,8=2,9=2,10=2,19=2,28=1/1;
 99/9=1/99;
 Leave Link    1 at Wed Feb 24 03:13:56 2021, MaxMem=           0 cpu:         4.1
 (Enter /opt/nce/packages/global/g09/l101.exe)
 -----
 Title
 -----
 Symbolic Z-matrix:
 Charge =  1 Multiplicity = 1
 C                     1.09453   3.68941  -0.43548 
 C                     1.69576   2.46377  -0.24153 
 C                     0.90048   1.32237   0.02896 
 C                    -0.52643   1.45504   0.12255 
 C                    -1.10299   2.74127  -0.11549 
 C                    -0.31431   3.833    -0.38455 
 C                    -1.31826   0.31625   0.41505 
 C                    -0.68643  -0.94029   0.59126 
 C                     0.74037  -1.04164   0.45918 
 C                     1.37297  -2.2995    0.61813 
 H                     2.45224  -2.3776    0.50821 
 C                     0.61846  -3.41465   0.91609 
 C                    -0.78616  -3.32897   1.08151 
 C                    -1.42013  -2.1206    0.92652 
 H                     1.71832   4.56128  -0.64408 
 H                     2.77747   2.36532  -0.29857 
 H                    -2.18714   2.83768  -0.08946 
 H                    -0.76839   4.80834  -0.56693 
 H                     1.11795  -4.37832   1.0372 
 H                    -1.35915  -4.2214    1.33821 
 H                    -2.49723  -2.04248   1.06359 
 N                     1.48124   0.08616   0.19133 
 C                    -2.7905    0.43578   0.53206 
 C                    -3.62567  -0.23348  -0.37526 
 C                    -3.36344   1.21579   1.55272 
 C                    -5.02388  -0.13314  -0.29503 
 C                    -4.75055   1.30862   1.65979 
 C                    -5.56761   0.64406   0.74133 
 H                    -5.19413   1.89863   2.46449 
 H                    -3.18806  -0.83723  -1.17293 
 H                    -2.72175   1.73      2.27155 
 C                     2.92103  -0.03153   0.08011 
 C                     3.50071  -0.27956  -1.16187 
 C                     3.7164    0.10517   1.22432 
 C                     4.88767  -0.39447  -1.27565 
 H                     2.86932  -0.38443  -2.04652 
 C                     5.09518  -0.00749   1.11797 
 H                     3.25079   0.29923   2.19261 
 C                     5.69733  -0.2587   -0.13273 
 H                     5.32554  -0.58881  -2.25357 
 H                     5.74089   0.09445   1.9913 
 O                     7.03406  -0.35108  -0.13382 
 C                     7.72278  -0.60216  -1.3475 
 H                     8.78946  -0.63357  -1.09528 
 H                     7.42498  -1.56998  -1.78554 
 H                     7.54738   0.20167  -2.08256 
 H                    -6.65256   0.73268   0.85255 
 B                    -5.90914  -0.90346  -1.3534 
 O                    -7.25422  -0.74808  -1.48314 
 O                    -5.26358  -1.77071  -2.17745 
 H                    -7.66223  -0.09129  -0.90831 
 H                    -5.86053  -2.19716  -2.80764 
 
 NAtoms=     52 NQM=       52 NQMF=       0 NMMI=      0 NMMIF=      0
                NMic=       0 NMicF=      0.
                    Isotopes and Nuclear Properties:
 (Nuclear quadrupole moments (NQMom) in fm**2, nuclear magnetic moments (NMagM)
  in nuclear magnetons)

  Atom         1           2           3           4           5           6           7           8           9          10
 IAtWgt=          12          12          12          12          12          12          12          12          12          12
 AtmWgt=  12.0000000  12.0000000  12.0000000  12.0000000  12.0000000  12.0000000  12.0000000  12.0000000  12.0000000  12.0000000
 NucSpn=           0           0           0           0           0           0           0           0           0           0
 AtZEff=   0.0000000   0.0000000   0.0000000   0.0000000   0.0000000   0.0000000   0.0000000   0.0000000   0.0000000   0.0000000
 NQMom=    0.0000000   0.0000000   0.0000000   0.0000000   0.0000000   0.0000000   0.0000000   0.0000000   0.0000000   0.0000000
 NMagM=    0.0000000   0.0000000   0.0000000   0.0000000   0.0000000   0.0000000   0.0000000   0.0000000   0.0000000   0.0000000
 AtZNuc=   6.0000000   6.0000000   6.0000000   6.0000000   6.0000000   6.0000000   6.0000000   6.0000000   6.0000000   6.0000000

  Atom        11          12          13          14          15          16          17          18          19          20
 IAtWgt=           1          12          12          12           1           1           1           1           1           1
 AtmWgt=   1.0078250  12.0000000  12.0000000  12.0000000   1.0078250   1.0078250   1.0078250   1.0078250   1.0078250   1.0078250
 NucSpn=           1           0           0           0           1           1           1           1           1           1
 AtZEff=   0.0000000   0.0000000   0.0000000   0.0000000   0.0000000   0.0000000   0.0000000   0.0000000   0.0000000   0.0000000
 NQMom=    0.0000000   0.0000000   0.0000000   0.0000000   0.0000000   0.0000000   0.0000000   0.0000000   0.0000000   0.0000000
 NMagM=    2.7928460   0.0000000   0.0000000   0.0000000   2.7928460   2.7928460   2.7928460   2.7928460   2.7928460   2.7928460
 AtZNuc=   1.0000000   6.0000000   6.0000000   6.0000000   1.0000000   1.0000000   1.0000000   1.0000000   1.0000000   1.0000000

  Atom        21          22          23          24          25          26          27          28          29          30
 IAtWgt=           1          14          12          12          12          12          12          12           1           1
 AtmWgt=   1.0078250  14.0030740  12.0000000  12.0000000  12.0000000  12.0000000  12.0000000  12.0000000   1.0078250   1.0078250
 NucSpn=           1           2           0           0           0           0           0           0           1           1
 AtZEff=   0.0000000   0.0000000   0.0000000   0.0000000   0.0000000   0.0000000   0.0000000   0.0000000   0.0000000   0.0000000
 NQMom=    0.0000000   2.0440000   0.0000000   0.0000000   0.0000000   0.0000000   0.0000000   0.0000000   0.0000000   0.0000000
 NMagM=    2.7928460   0.4037610   0.0000000   0.0000000   0.0000000   0.0000000   0.0000000   0.0000000   2.7928460   2.7928460
 AtZNuc=   1.0000000   7.0000000   6.0000000   6.0000000   6.0000000   6.0000000   6.0000000   6.0000000   1.0000000   1.0000000

  Atom        31          32          33          34          35          36          37          38          39          40
 IAtWgt=           1          12          12          12          12           1          12           1          12           1
 AtmWgt=   1.0078250  12.0000000  12.0000000  12.0000000  12.0000000   1.0078250  12.0000000   1.0078250  12.0000000   1.0078250
 NucSpn=           1           0           0           0           0           1           0           1           0           1
 AtZEff=   0.0000000   0.0000000   0.0000000   0.0000000   0.0000000   0.0000000   0.0000000   0.0000000   0.0000000   0.0000000
 NQMom=    0.0000000   0.0000000   0.0000000   0.0000000   0.0000000   0.0000000   0.0000000   0.0000000   0.0000000   0.0000000
 NMagM=    2.7928460   0.0000000   0.0000000   0.0000000   0.0000000   2.7928460   0.0000000   2.7928460   0.0000000   2.7928460
 AtZNuc=   1.0000000   6.0000000   6.0000000   6.0000000   6.0000000   1.0000000   6.0000000   1.0000000   6.0000000   1.0000000

  Atom        41          42          43          44          45          46          47          48          49          50
 IAtWgt=           1          16          12           1           1           1           1          11          16          16
 AtmWgt=   1.0078250  15.9949146  12.0000000   1.0078250   1.0078250   1.0078250   1.0078250  11.0093053  15.9949146  15.9949146
 NucSpn=           1           0           0           1           1           1           1           3           0           0
 AtZEff=   0.0000000   0.0000000   0.0000000   0.0000000   0.0000000   0.0000000   0.0000000   0.0000000   0.0000000   0.0000000
 NQMom=    0.0000000   0.0000000   0.0000000   0.0000000   0.0000000   0.0000000   0.0000000   4.0590000   0.0000000   0.0000000
 NMagM=    2.7928460   0.0000000   0.0000000   2.7928460   2.7928460   2.7928460   2.7928460   2.6886370   0.0000000   0.0000000
 AtZNuc=   1.0000000   8.0000000   6.0000000   1.0000000   1.0000000   1.0000000   1.0000000   5.0000000   8.0000000   8.0000000

  Atom        51          52
 IAtWgt=           1           1
 AtmWgt=   1.0078250   1.0078250
 NucSpn=           1           1
 AtZEff=   0.0000000   0.0000000
 NQMom=    0.0000000   0.0000000
 NMagM=    2.7928460   2.7928460
 AtZNuc=   1.0000000   1.0000000
 Leave Link  101 at Wed Feb 24 03:13:57 2021, MaxMem=  5242880000 cpu:         4.7
 (Enter /opt/nce/packages/global/g09/l103.exe)

 GradGradGradGradGradGradGradGradGradGradGradGradGradGradGradGradGradGrad
 Berny optimization.
 Initialization pass.
                           ----------------------------
                           !    Initial Parameters    !
                           ! (Angstroms and Degrees)  !
 --------------------------                            --------------------------
 ! Name  Definition              Value          Derivative Info.                !
 --------------------------------------------------------------------------------
 ! R1    R(1,2)                  1.3789         estimate D2E/DX2                !
 ! R2    R(1,6)                  1.417          estimate D2E/DX2                !
 ! R3    R(1,15)                 1.0922         estimate D2E/DX2                !
 ! R4    R(2,3)                  1.4172         estimate D2E/DX2                !
 ! R5    R(2,16)                 1.0877         estimate D2E/DX2                !
 ! R6    R(3,4)                  1.4361         estimate D2E/DX2                !
 ! R7    R(3,22)                 1.3754         estimate D2E/DX2                !
 ! R8    R(4,5)                  1.4295         estimate D2E/DX2                !
 ! R9    R(4,7)                  1.4175         estimate D2E/DX2                !
 ! R10   R(5,6)                  1.3734         estimate D2E/DX2                !
 ! R11   R(5,17)                 1.0887         estimate D2E/DX2                !
 ! R12   R(6,18)                 1.0912         estimate D2E/DX2                !
 ! R13   R(7,8)                  1.4174         estimate D2E/DX2                !
 ! R14   R(7,23)                 1.4817         estimate D2E/DX2                !
 ! R15   R(8,9)                  1.4365         estimate D2E/DX2                !
 ! R16   R(8,14)                 1.4296         estimate D2E/DX2                !
 ! R17   R(9,10)                 1.4169         estimate D2E/DX2                !
 ! R18   R(9,22)                 1.3757         estimate D2E/DX2                !
 ! R19   R(10,11)                1.0877         estimate D2E/DX2                !
 ! R20   R(10,12)                1.379          estimate D2E/DX2                !
 ! R21   R(12,13)                1.4169         estimate D2E/DX2                !
 ! R22   R(12,19)                1.0922         estimate D2E/DX2                !
 ! R23   R(13,14)                1.3733         estimate D2E/DX2                !
 ! R24   R(13,20)                1.0912         estimate D2E/DX2                !
 ! R25   R(14,21)                1.0886         estimate D2E/DX2                !
 ! R26   R(22,32)                1.4489         estimate D2E/DX2                !
 ! R27   R(23,24)                1.4031         estimate D2E/DX2                !
 ! R28   R(23,25)                1.4066         estimate D2E/DX2                !
 ! R29   R(24,26)                1.4041         estimate D2E/DX2                !
 ! R30   R(24,30)                1.0919         estimate D2E/DX2                !
 ! R31   R(25,27)                1.3943         estimate D2E/DX2                !
 ! R32   R(25,31)                1.0922         estimate D2E/DX2                !
 ! R33   R(26,28)                1.4049         estimate D2E/DX2                !
 ! R34   R(26,48)                1.5803         estimate D2E/DX2                !
 ! R35   R(27,28)                1.3974         estimate D2E/DX2                !
 ! R36   R(27,29)                1.092          estimate D2E/DX2                !
 ! R37   R(28,47)                1.0942         estimate D2E/DX2                !
 ! R38   R(32,33)                1.3929         estimate D2E/DX2                !
 ! R39   R(32,34)                1.4002         estimate D2E/DX2                !
 ! R40   R(33,35)                1.3964         estimate D2E/DX2                !
 ! R41   R(33,36)                1.0919         estimate D2E/DX2                !
 ! R42   R(34,37)                1.3875         estimate D2E/DX2                !
 ! R43   R(34,38)                1.0918         estimate D2E/DX2                !
 ! R44   R(35,39)                1.4072         estimate D2E/DX2                !
 ! R45   R(35,40)                1.089          estimate D2E/DX2                !
 ! R46   R(37,39)                1.4107         estimate D2E/DX2                !
 ! R47   R(37,41)                1.0909         estimate D2E/DX2                !
 ! R48   R(39,42)                1.3399         estimate D2E/DX2                !
 ! R49   R(42,43)                1.4179         estimate D2E/DX2                !
 ! R50   R(43,44)                1.0965         estimate D2E/DX2                !
 ! R51   R(43,45)                1.1033         estimate D2E/DX2                !
 ! R52   R(43,46)                1.1033         estimate D2E/DX2                !
 ! R53   R(48,49)                1.3602         estimate D2E/DX2                !
 ! R54   R(48,50)                1.3594         estimate D2E/DX2                !
 ! R55   R(49,51)                0.9635         estimate D2E/DX2                !
 ! R56   R(50,52)                0.9671         estimate D2E/DX2                !
 ! A1    A(2,1,6)              121.233          estimate D2E/DX2                !
 ! A2    A(2,1,15)             119.1704         estimate D2E/DX2                !
 ! A3    A(6,1,15)             119.5923         estimate D2E/DX2                !
 ! A4    A(1,2,3)              119.8712         estimate D2E/DX2                !
 ! A5    A(1,2,16)             120.4455         estimate D2E/DX2                !
 ! A6    A(3,2,16)             119.6828         estimate D2E/DX2                !
 ! A7    A(2,3,4)              119.7098         estimate D2E/DX2                !
 ! A8    A(2,3,22)             120.6273         estimate D2E/DX2                !
 ! A9    A(4,3,22)             119.6606         estimate D2E/DX2                !
 ! A10   A(3,4,5)              118.2297         estimate D2E/DX2                !
 ! A11   A(3,4,7)              119.6205         estimate D2E/DX2                !
 ! A12   A(5,4,7)              122.1346         estimate D2E/DX2                !
 ! A13   A(4,5,6)              121.0807         estimate D2E/DX2                !
 ! A14   A(4,5,17)             118.5109         estimate D2E/DX2                !
 ! A15   A(6,5,17)             120.4054         estimate D2E/DX2                !
 ! A16   A(1,6,5)              119.8289         estimate D2E/DX2                !
 ! A17   A(1,6,18)             119.886          estimate D2E/DX2                !
 ! A18   A(5,6,18)             120.2834         estimate D2E/DX2                !
 ! A19   A(4,7,8)              119.2631         estimate D2E/DX2                !
 ! A20   A(4,7,23)             120.432          estimate D2E/DX2                !
 ! A21   A(8,7,23)             120.3047         estimate D2E/DX2                !
 ! A22   A(7,8,9)              119.5947         estimate D2E/DX2                !
 ! A23   A(7,8,14)             122.1594         estimate D2E/DX2                !
 ! A24   A(9,8,14)             118.2332         estimate D2E/DX2                !
 ! A25   A(8,9,10)             119.7205         estimate D2E/DX2                !
 ! A26   A(8,9,22)             119.6681         estimate D2E/DX2                !
 ! A27   A(10,9,22)            120.6088         estimate D2E/DX2                !
 ! A28   A(9,10,11)            119.6976         estimate D2E/DX2                !
 ! A29   A(9,10,12)            119.8579         estimate D2E/DX2                !
 ! A30   A(11,10,12)           120.444          estimate D2E/DX2                !
 ! A31   A(10,12,13)           121.2463         estimate D2E/DX2                !
 ! A32   A(10,12,19)           119.1602         estimate D2E/DX2                !
 ! A33   A(13,12,19)           119.5898         estimate D2E/DX2                !
 ! A34   A(12,13,14)           119.8446         estimate D2E/DX2                !
 ! A35   A(12,13,20)           119.9052         estimate D2E/DX2                !
 ! A36   A(14,13,20)           120.2489         estimate D2E/DX2                !
 ! A37   A(8,14,13)            121.0631         estimate D2E/DX2                !
 ! A38   A(8,14,21)            118.5593         estimate D2E/DX2                !
 ! A39   A(13,14,21)           120.3766         estimate D2E/DX2                !
 ! A40   A(3,22,9)             122.1677         estimate D2E/DX2                !
 ! A41   A(3,22,32)            118.9167         estimate D2E/DX2                !
 ! A42   A(9,22,32)            118.9154         estimate D2E/DX2                !
 ! A43   A(7,23,24)            120.1251         estimate D2E/DX2                !
 ! A44   A(7,23,25)            120.449          estimate D2E/DX2                !
 ! A45   A(24,23,25)           119.4257         estimate D2E/DX2                !
 ! A46   A(23,24,26)           121.4466         estimate D2E/DX2                !
 ! A47   A(23,24,30)           119.8402         estimate D2E/DX2                !
 ! A48   A(26,24,30)           118.708          estimate D2E/DX2                !
 ! A49   A(23,25,27)           119.8589         estimate D2E/DX2                !
 ! A50   A(23,25,31)           119.9564         estimate D2E/DX2                !
 ! A51   A(27,25,31)           120.1723         estimate D2E/DX2                !
 ! A52   A(24,26,28)           117.8455         estimate D2E/DX2                !
 ! A53   A(24,26,48)           118.9958         estimate D2E/DX2                !
 ! A54   A(28,26,48)           123.1554         estimate D2E/DX2                !
 ! A55   A(25,27,28)           119.969          estimate D2E/DX2                !
 ! A56   A(25,27,29)           119.7799         estimate D2E/DX2                !
 ! A57   A(28,27,29)           120.2508         estimate D2E/DX2                !
 ! A58   A(26,28,27)           121.4422         estimate D2E/DX2                !
 ! A59   A(26,28,47)           120.2337         estimate D2E/DX2                !
 ! A60   A(27,28,47)           118.3207         estimate D2E/DX2                !
 ! A61   A(22,32,33)           119.7671         estimate D2E/DX2                !
 ! A62   A(22,32,34)           119.5925         estimate D2E/DX2                !
 ! A63   A(33,32,34)           120.6404         estimate D2E/DX2                !
 ! A64   A(32,33,35)           120.0455         estimate D2E/DX2                !
 ! A65   A(32,33,36)           119.926          estimate D2E/DX2                !
 ! A66   A(35,33,36)           120.0285         estimate D2E/DX2                !
 ! A67   A(32,34,37)           119.5991         estimate D2E/DX2                !
 ! A68   A(32,34,38)           119.99           estimate D2E/DX2                !
 ! A69   A(37,34,38)           120.4109         estimate D2E/DX2                !
 ! A70   A(33,35,39)           119.8261         estimate D2E/DX2                !
 ! A71   A(33,35,40)           119.1606         estimate D2E/DX2                !
 ! A72   A(39,35,40)           121.0133         estimate D2E/DX2                !
 ! A73   A(34,37,39)           120.4382         estimate D2E/DX2                !
 ! A74   A(34,37,41)           121.2827         estimate D2E/DX2                !
 ! A75   A(39,37,41)           118.2791         estimate D2E/DX2                !
 ! A76   A(35,39,37)           119.4508         estimate D2E/DX2                !
 ! A77   A(35,39,42)           124.5189         estimate D2E/DX2                !
 ! A78   A(37,39,42)           116.0303         estimate D2E/DX2                !
 ! A79   A(39,42,43)           119.8341         estimate D2E/DX2                !
 ! A80   A(42,43,44)           106.3018         estimate D2E/DX2                !
 ! A81   A(42,43,45)           111.351          estimate D2E/DX2                !
 ! A82   A(42,43,46)           111.3487         estimate D2E/DX2                !
 ! A83   A(44,43,45)           109.194          estimate D2E/DX2                !
 ! A84   A(44,43,46)           109.1939         estimate D2E/DX2                !
 ! A85   A(45,43,46)           109.3719         estimate D2E/DX2                !
 ! A86   A(26,48,49)           124.2055         estimate D2E/DX2                !
 ! A87   A(26,48,50)           116.8044         estimate D2E/DX2                !
 ! A88   A(49,48,50)           118.99           estimate D2E/DX2                !
 ! A89   A(48,49,51)           116.0861         estimate D2E/DX2                !
 ! A90   A(48,50,52)           112.5309         estimate D2E/DX2                !
 ! D1    D(6,1,2,3)             -0.6992         estimate D2E/DX2                !
 ! D2    D(6,1,2,16)           179.0549         estimate D2E/DX2                !
 ! D3    D(15,1,2,3)          -179.9467         estimate D2E/DX2                !
 ! D4    D(15,1,2,16)           -0.1926         estimate D2E/DX2                !
 ! D5    D(2,1,6,5)              1.1059         estimate D2E/DX2                !
 ! D6    D(2,1,6,18)          -178.4132         estimate D2E/DX2                !
 ! D7    D(15,1,6,5)          -179.6498         estimate D2E/DX2                !
 ! D8    D(15,1,6,18)            0.8311         estimate D2E/DX2                !
 ! D9    D(1,2,3,4)             -1.0941         estimate D2E/DX2                !
 ! D10   D(1,2,3,22)           178.3408         estimate D2E/DX2                !
 ! D11   D(16,2,3,4)           179.1498         estimate D2E/DX2                !
 ! D12   D(16,2,3,22)           -1.4152         estimate D2E/DX2                !
 ! D13   D(2,3,4,5)              2.4304         estimate D2E/DX2                !
 ! D14   D(2,3,4,7)           -178.9614         estimate D2E/DX2                !
 ! D15   D(22,3,4,5)          -177.01           estimate D2E/DX2                !
 ! D16   D(22,3,4,7)             1.5982         estimate D2E/DX2                !
 ! D17   D(2,3,22,9)           179.775          estimate D2E/DX2                !
 ! D18   D(2,3,22,32)           -0.0581         estimate D2E/DX2                !
 ! D19   D(4,3,22,9)            -0.7898         estimate D2E/DX2                !
 ! D20   D(4,3,22,32)          179.3771         estimate D2E/DX2                !
 ! D21   D(3,4,5,6)             -2.0566         estimate D2E/DX2                !
 ! D22   D(3,4,5,17)           177.3165         estimate D2E/DX2                !
 ! D23   D(7,4,5,6)            179.3722         estimate D2E/DX2                !
 ! D24   D(7,4,5,17)            -1.2547         estimate D2E/DX2                !
 ! D25   D(3,4,7,8)             -0.9059         estimate D2E/DX2                !
 ! D26   D(3,4,7,23)           179.2549         estimate D2E/DX2                !
 ! D27   D(5,4,7,8)            177.646          estimate D2E/DX2                !
 ! D28   D(5,4,7,23)            -2.1932         estimate D2E/DX2                !
 ! D29   D(4,5,6,1)              0.3192         estimate D2E/DX2                !
 ! D30   D(4,5,6,18)           179.8364         estimate D2E/DX2                !
 ! D31   D(17,5,6,1)          -179.042          estimate D2E/DX2                !
 ! D32   D(17,5,6,18)            0.4751         estimate D2E/DX2                !
 ! D33   D(4,7,8,9)             -0.5561         estimate D2E/DX2                !
 ! D34   D(4,7,8,14)           178.1214         estimate D2E/DX2                !
 ! D35   D(23,7,8,9)           179.2832         estimate D2E/DX2                !
 ! D36   D(23,7,8,14)           -2.0392         estimate D2E/DX2                !
 ! D37   D(4,7,23,24)          116.0962         estimate D2E/DX2                !
 ! D38   D(4,7,23,25)          -64.0792         estimate D2E/DX2                !
 ! D39   D(8,7,23,24)          -63.7412         estimate D2E/DX2                !
 ! D40   D(8,7,23,25)          116.0833         estimate D2E/DX2                !
 ! D41   D(7,8,9,10)          -179.2072         estimate D2E/DX2                !
 ! D42   D(7,8,9,22)             1.3758         estimate D2E/DX2                !
 ! D43   D(14,8,9,10)            2.0635         estimate D2E/DX2                !
 ! D44   D(14,8,9,22)         -177.3535         estimate D2E/DX2                !
 ! D45   D(7,8,14,13)          179.4746         estimate D2E/DX2                !
 ! D46   D(7,8,14,21)           -0.891          estimate D2E/DX2                !
 ! D47   D(9,8,14,13)           -1.8306         estimate D2E/DX2                !
 ! D48   D(9,8,14,21)          177.8038         estimate D2E/DX2                !
 ! D49   D(8,9,10,11)          179.3905         estimate D2E/DX2                !
 ! D50   D(8,9,10,12)           -0.8686         estimate D2E/DX2                !
 ! D51   D(22,9,10,11)          -1.1981         estimate D2E/DX2                !
 ! D52   D(22,9,10,12)         178.5427         estimate D2E/DX2                !
 ! D53   D(8,9,22,3)            -0.6961         estimate D2E/DX2                !
 ! D54   D(8,9,22,32)          179.137          estimate D2E/DX2                !
 ! D55   D(10,9,22,3)          179.8923         estimate D2E/DX2                !
 ! D56   D(10,9,22,32)          -0.2746         estimate D2E/DX2                !
 ! D57   D(9,10,12,13)          -0.6323         estimate D2E/DX2                !
 ! D58   D(9,10,12,19)        -179.935          estimate D2E/DX2                !
 ! D59   D(11,10,12,13)        179.1065         estimate D2E/DX2                !
 ! D60   D(11,10,12,19)         -0.1962         estimate D2E/DX2                !
 ! D61   D(10,12,13,14)          0.893          estimate D2E/DX2                !
 ! D62   D(10,12,13,20)       -178.6858         estimate D2E/DX2                !
 ! D63   D(19,12,13,14)       -179.8072         estimate D2E/DX2                !
 ! D64   D(19,12,13,20)          0.6139         estimate D2E/DX2                !
 ! D65   D(12,13,14,8)           0.3792         estimate D2E/DX2                !
 ! D66   D(12,13,14,21)       -179.2486         estimate D2E/DX2                !
 ! D67   D(20,13,14,8)         179.9566         estimate D2E/DX2                !
 ! D68   D(20,13,14,21)          0.3288         estimate D2E/DX2                !
 ! D69   D(3,22,32,33)         -89.2793         estimate D2E/DX2                !
 ! D70   D(3,22,32,34)          90.7362         estimate D2E/DX2                !
 ! D71   D(9,22,32,33)          90.8821         estimate D2E/DX2                !
 ! D72   D(9,22,32,34)         -89.1023         estimate D2E/DX2                !
 ! D73   D(7,23,24,26)        -179.6105         estimate D2E/DX2                !
 ! D74   D(7,23,24,30)          -0.4471         estimate D2E/DX2                !
 ! D75   D(25,23,24,26)          0.5632         estimate D2E/DX2                !
 ! D76   D(25,23,24,30)        179.7266         estimate D2E/DX2                !
 ! D77   D(7,23,25,27)        -179.3411         estimate D2E/DX2                !
 ! D78   D(7,23,25,31)          -0.6173         estimate D2E/DX2                !
 ! D79   D(24,23,25,27)          0.4847         estimate D2E/DX2                !
 ! D80   D(24,23,25,31)        179.2085         estimate D2E/DX2                !
 ! D81   D(23,24,26,28)         -1.0681         estimate D2E/DX2                !
 ! D82   D(23,24,26,48)        179.5768         estimate D2E/DX2                !
 ! D83   D(30,24,26,28)        179.7593         estimate D2E/DX2                !
 ! D84   D(30,24,26,48)          0.4042         estimate D2E/DX2                !
 ! D85   D(23,25,27,28)         -0.9911         estimate D2E/DX2                !
 ! D86   D(23,25,27,29)        178.8016         estimate D2E/DX2                !
 ! D87   D(31,25,27,28)       -179.7121         estimate D2E/DX2                !
 ! D88   D(31,25,27,29)          0.0806         estimate D2E/DX2                !
 ! D89   D(24,26,28,27)          0.5526         estimate D2E/DX2                !
 ! D90   D(24,26,28,47)       -178.7691         estimate D2E/DX2                !
 ! D91   D(48,26,28,27)        179.8788         estimate D2E/DX2                !
 ! D92   D(48,26,28,47)          0.557          estimate D2E/DX2                !
 ! D93   D(24,26,48,49)       -171.2398         estimate D2E/DX2                !
 ! D94   D(24,26,48,50)          8.6843         estimate D2E/DX2                !
 ! D95   D(28,26,48,49)          9.4414         estimate D2E/DX2                !
 ! D96   D(28,26,48,50)       -170.6345         estimate D2E/DX2                !
 ! D97   D(25,27,28,26)          0.4681         estimate D2E/DX2                !
 ! D98   D(25,27,28,47)        179.8025         estimate D2E/DX2                !
 ! D99   D(29,27,28,26)       -179.3236         estimate D2E/DX2                !
 ! D100  D(29,27,28,47)          0.0107         estimate D2E/DX2                !
 ! D101  D(22,32,33,35)       -179.9809         estimate D2E/DX2                !
 ! D102  D(22,32,33,36)         -0.0024         estimate D2E/DX2                !
 ! D103  D(34,32,33,35)          0.0034         estimate D2E/DX2                !
 ! D104  D(34,32,33,36)        179.9818         estimate D2E/DX2                !
 ! D105  D(22,32,34,37)       -179.999          estimate D2E/DX2                !
 ! D106  D(22,32,34,38)          0.0001         estimate D2E/DX2                !
 ! D107  D(33,32,34,37)          0.0167         estimate D2E/DX2                !
 ! D108  D(33,32,34,38)       -179.9842         estimate D2E/DX2                !
 ! D109  D(32,33,35,39)         -0.0156         estimate D2E/DX2                !
 ! D110  D(32,33,35,40)        179.9804         estimate D2E/DX2                !
 ! D111  D(36,33,35,39)       -179.9941         estimate D2E/DX2                !
 ! D112  D(36,33,35,40)          0.0019         estimate D2E/DX2                !
 ! D113  D(32,34,37,39)         -0.0245         estimate D2E/DX2                !
 ! D114  D(32,34,37,41)        179.9848         estimate D2E/DX2                !
 ! D115  D(38,34,37,39)        179.9764         estimate D2E/DX2                !
 ! D116  D(38,34,37,41)         -0.0143         estimate D2E/DX2                !
 ! D117  D(33,35,39,37)          0.0079         estimate D2E/DX2                !
 ! D118  D(33,35,39,42)       -179.9923         estimate D2E/DX2                !
 ! D119  D(40,35,39,37)       -179.988          estimate D2E/DX2                !
 ! D120  D(40,35,39,42)          0.0118         estimate D2E/DX2                !
 ! D121  D(34,37,39,35)          0.0123         estimate D2E/DX2                !
 ! D122  D(34,37,39,42)       -179.9876         estimate D2E/DX2                !
 ! D123  D(41,37,39,35)       -179.9967         estimate D2E/DX2                !
 ! D124  D(41,37,39,42)          0.0034         estimate D2E/DX2                !
 ! D125  D(35,39,42,43)         -0.0051         estimate D2E/DX2                !
 ! D126  D(37,39,42,43)        179.9947         estimate D2E/DX2                !
 ! D127  D(39,42,43,44)       -179.9922         estimate D2E/DX2                !
 ! D128  D(39,42,43,45)        -61.1693         estimate D2E/DX2                !
 ! D129  D(39,42,43,46)         61.1862         estimate D2E/DX2                !
 ! D130  D(26,48,49,51)          2.8703         estimate D2E/DX2                !
 ! D131  D(50,48,49,51)       -177.0522         estimate D2E/DX2                !
 ! D132  D(26,48,50,52)       -179.1381         estimate D2E/DX2                !
 ! D133  D(49,48,50,52)          0.7902         estimate D2E/DX2                !
 --------------------------------------------------------------------------------
 Trust Radius=3.00D-01 FncErr=1.00D-07 GrdErr=1.00D-06
 Number of steps in this run=    289 maximum allowed number of steps=    312.
 GradGradGradGradGradGradGradGradGradGradGradGradGradGradGradGradGradGrad

 Leave Link  103 at Wed Feb 24 03:13:57 2021, MaxMem=  5242880000 cpu:         0.2
 (Enter /opt/nce/packages/global/g09/l202.exe)
 Symmetry turned off by external request.
 Stoichiometry    C26H21BNO3(1+)
 Framework group  C1[X(C26H21BNO3)]
 Deg. of freedom   150
 Full point group                 C1      NOp   1
                          Input orientation:                          
 ---------------------------------------------------------------------
 Center     Atomic      Atomic             Coordinates (Angstroms)
 Number     Number       Type             X           Y           Z
 ---------------------------------------------------------------------
      1          6           0        1.094527    3.689406   -0.435484
      2          6           0        1.695760    2.463773   -0.241526
      3          6           0        0.900479    1.322369    0.028956
      4          6           0       -0.526434    1.455035    0.122554
      5          6           0       -1.102988    2.741265   -0.115489
      6          6           0       -0.314305    3.832996   -0.384553
      7          6           0       -1.318261    0.316251    0.415050
      8          6           0       -0.686432   -0.940287    0.591263
      9          6           0        0.740368   -1.041635    0.459175
     10          6           0        1.372970   -2.299502    0.618127
     11          1           0        2.452239   -2.377600    0.508205
     12          6           0        0.618459   -3.414651    0.916087
     13          6           0       -0.786156   -3.328965    1.081508
     14          6           0       -1.420126   -2.120599    0.926520
     15          1           0        1.718324    4.561277   -0.644081
     16          1           0        2.777470    2.365324   -0.298570
     17          1           0       -2.187135    2.837681   -0.089457
     18          1           0       -0.768387    4.808344   -0.566928
     19          1           0        1.117954   -4.378319    1.037197
     20          1           0       -1.359152   -4.221399    1.338210
     21          1           0       -2.497229   -2.042480    1.063586
     22          7           0        1.481241    0.086163    0.191326
     23          6           0       -2.790497    0.435780    0.532058
     24          6           0       -3.625670   -0.233483   -0.375261
     25          6           0       -3.363444    1.215792    1.552720
     26          6           0       -5.023878   -0.133136   -0.295032
     27          6           0       -4.750554    1.308618    1.659788
     28          6           0       -5.567607    0.644059    0.741331
     29          1           0       -5.194134    1.898630    2.464492
     30          1           0       -3.188060   -0.837234   -1.172929
     31          1           0       -2.721751    1.730002    2.271547
     32          6           0        2.921034   -0.031533    0.080113
     33          6           0        3.500706   -0.279564   -1.161868
     34          6           0        3.716395    0.105173    1.224317
     35          6           0        4.887668   -0.394466   -1.275653
     36          1           0        2.869318   -0.384429   -2.046522
     37          6           0        5.095177   -0.007488    1.117971
     38          1           0        3.250790    0.299225    2.192608
     39          6           0        5.697328   -0.258696   -0.132726
     40          1           0        5.325537   -0.588810   -2.253567
     41          1           0        5.740886    0.094447    1.991299
     42          8           0        7.034057   -0.351075   -0.133820
     43          6           0        7.722780   -0.602164   -1.347502
     44          1           0        8.789464   -0.633571   -1.095283
     45          1           0        7.424980   -1.569979   -1.785537
     46          1           0        7.547376    0.201673   -2.082556
     47          1           0       -6.652559    0.732682    0.852553
     48          5           0       -5.909141   -0.903456   -1.353396
     49          8           0       -7.254223   -0.748082   -1.483137
     50          8           0       -5.263575   -1.770713   -2.177452
     51          1           0       -7.662229   -0.091285   -0.908309
     52          1           0       -5.860532   -2.197160   -2.807644
 ---------------------------------------------------------------------
 Rotational constants (GHZ):      0.3129997      0.0721678      0.0647194
 Leave Link  202 at Wed Feb 24 03:13:57 2021, MaxMem=  5242880000 cpu:         0.1
 (Enter /opt/nce/packages/global/g09/l301.exe)
 Standard basis: def2TZVP (5D, 7F)
 Ernie: Thresh=  0.10000D-02 Tol=  0.10000D-05 Strict=F.
  1087 basis functions,  1749 primitive gaussians,  1242 cartesian basis functions
   106 alpha electrons      106 beta electrons
       nuclear repulsion energy      2773.9810363328 Hartrees.
 IExCor=20419 DFT=T Ex+Corr=CAM-B3LYP ExCW=0 ScaHFX=  1.000000
 ScaDFX=  1.000000  1.000000  1.000000  0.810000 ScalE2=  1.000000  1.000000
 IRadAn=      5 IRanWt=     -1 IRanGd=            0 ICorTp=0 IEmpDi=141
  HFx wShort=  0.000000 wLong=  0.330000 cFull=  0.190000 cShort=  0.000000 cLong=  0.460000
  DFx wShort=  0.000000 wLong=  0.330000 cFull=  0.190000 cShort=  0.000000 cLong=  0.460000
 NAtoms=   52 NActive=   52 NUniq=   52 SFac= 1.00D+00 NAtFMM=   60 NAOKFM=F Big=F
 Integral buffers will be    131072 words long.
 Raffenetti 2 integral format.
 Two-electron integral symmetry is turned off.
 R6Disp:  Grimme-D3(BJ) Dispersion energy=       -0.0649053810 Hartrees.
 Nuclear repulsion after empirical dispersion term =     2773.9161309518 Hartrees.
 ------------------------------------------------------------------------------
 Polarizable Continuum Model (PCM)
 =================================
 Model                : PCM (using non-symmetric T matrix).
 Atomic radii         : SMD-Coulomb.
 Polarization charges : Total charges.
 Charge compensation  : None.
 Solution method      : On-the-fly selection.
 Cavity type          : VdW (van der Waals Surface) (Alpha=1.000).
 Cavity algorithm     : GePol (No added spheres)
                        Default sphere list used, NSphG=   52.
                        Lebedev-Laikov grids with approx.  5.0 points / Ang**2.
                        Smoothing algorithm: York/Karplus (Gamma=1.0000).
                        Polarization charges: spherical gaussians, with
                                              point-specific exponents (IZeta= 3).
                        Self-potential: point-specific (ISelfS= 7).
                        Self-field    : sphere-specific E.n sum rule (ISelfD= 2).
 1st derivatives      : Analytical E(r).r(x)/FMM algorithm (CHGder, D1EAlg=3).
                        Cavity 1st derivative terms included.
 Solvent              : Acetonitrile, Eps=  35.688000 Eps(inf)=   1.806874
 ------------------------------------------------------------------------------
 GePol: Number of generator spheres                  =      52
 GePol: Total number of spheres                      =      52
 GePol: Number of exposed spheres                    =      50 ( 96.15%)
 GePol: Number of points                             =    3843
 GePol: Average weight of points                     =       0.12
 GePol: Minimum weight of points                     =   0.50D-09
 GePol: Maximum weight of points                     =    0.21559
 GePol: Number of points with low weight             =     248
 GePol: Fraction of low-weight points (<1% of avg)   =       6.45%
 GePol: Cavity surface area                          =    447.913 Ang**2
 GePol: Cavity volume                                =    446.218 Ang**3
 ------------------------------------------------------------------------------
 Atomic radii for non-electrostatic terms: SMD-CDS.
 ------------------------------------------------------------------------------
 PCM non-electrostatic energy =        -0.0087443975 Hartrees.
 Nuclear repulsion after PCM non-electrostatic terms =     2773.9073865543 Hartrees.
 Leave Link  301 at Wed Feb 24 03:13:58 2021, MaxMem=  5242880000 cpu:         5.3
 (Enter /opt/nce/packages/global/g09/l302.exe)
 NPDir=0 NMtPBC=     1 NCelOv=     1 NCel=       1 NClECP=     1 NCelD=      1
         NCelK=      1 NCelE2=     1 NClLst=     1 CellRange=     0.0.
 One-electron integrals computed using PRISM.
   1 Symmetry operations used in ECPInt.
 ECPInt:  NShTT=   90525 NPrTT=  279376 LenC2=   70913 LenP2D=  149762.
 LDataN:  DoStor=T MaxTD1= 6 Len=  172
 NBasis=  1087 RedAO= T EigKep=  5.20D-06  NBF=  1087
 NBsUse=  1087 1.00D-06 EigRej= -1.00D+00 NBFU=  1087
 Precomputing XC quadrature grid using
 IXCGrd= 4 IRadAn=           5 IRanWt=          -1 IRanGd=           0 AccXCQ= 0.00D+00.
 Generated NRdTot=       0 NPtTot=           0 NUsed=           0 NTot=          32
 NSgBfM=  1154  1154  1154  1154  1154 MxSgAt=    52 MxSgA2=    52.
 Leave Link  302 at Wed Feb 24 03:14:03 2021, MaxMem=  5242880000 cpu:        47.9
 (Enter /opt/nce/packages/global/g09/l303.exe)
 DipDrv:  MaxL=1.
 Leave Link  303 at Wed Feb 24 03:14:05 2021, MaxMem=  5242880000 cpu:         6.8
 (Enter /opt/nce/packages/global/g09/l401.exe)
 ExpMin= 6.06D-02 ExpMax= 2.70D+04 ExpMxC= 9.22D+02 IAcc=3 IRadAn=         5 AccDes= 0.00D+00
 Harris functional with IExCor=20419 and IRadAn=       5 diagonalized for initial guess.
 HarFok:  IExCor=20419 AccDes= 0.00D+00 IRadAn=         5 IDoV= 1 UseB2=F ITyADJ=14
 ICtDFT=  3500011 ScaDFX=  1.000000  1.000000  1.000000  1.000000
 FoFCou: FMM=F IPFlag=           0 FMFlag=      100000 FMFlg1=           0
         NFxFlg=           0 DoJE=T BraDBF=F KetDBF=T FulRan=T
         wScrn=  0.000000 ICntrl=     500 IOpCl=  0 I1Cent=   200000004 NGrid=           0
         NMat0=    1 NMatS0=      1 NMatT0=    0 NMatD0=    1 NMtDS0=    0 NMtDT0=    0
 Symmetry not used in FoFCou.
 Harris En= -1257.67514315995    
 JPrj=0 DoOrth=F DoCkMO=F.
 Leave Link  401 at Wed Feb 24 03:14:21 2021, MaxMem=  5242880000 cpu:       148.8
 (Enter /opt/nce/packages/global/g09/l502.exe)
 Closed shell SCF:
 Using DIIS extrapolation, IDIIS=  1040.
 Two-electron integral symmetry not used.
 IVT=     4668702 IEndB=     4668702 NGot=  5242880000 MDV=  5239771745
 LenX=  5239771745 LenY=  5238227939
 Requested convergence on RMS density matrix=1.00D-08 within 128 cycles.
 Requested convergence on MAX density matrix=1.00D-06.
 Requested convergence on             energy=1.00D-06.
 No special actions if energy rises.
 Fock matrices will be formed incrementally for  20 cycles.

 Cycle   1  Pass 1  IDiag  1:
 FoFJK:  IHMeth= 1 ICntrl=       0 DoSepK=T KAlg= 0 I1Cent=   0 FoldK=F
 IRaf=         1 NMat=   1 IRICut=       1 DoRegI=T DoRafI=F ISym2E= 0.
 FoFCou: FMM=F IPFlag=           0 FMFlag=      100000 FMFlg1=           0
         NFxFlg=           0 DoJE=T BraDBF=F KetDBF=F FulRan=T
         wScrn=  0.000000 ICntrl=     500 IOpCl=  0 I1Cent=           0 NGrid=           0
         NMat0=    1 NMatS0=      1 NMatT0=    0 NMatD0=    1 NMtDS0=    0 NMtDT0=    0
 Symmetry not used in FoFCou.
 Inv3:  Mode=1 IEnd=    44305947.
 Iteration    1 A*A^-1 deviation from unit magnitude is 1.13D-14 for   3839.
 Iteration    1 A*A^-1 deviation from orthogonality  is 3.81D-15 for   2177   1913.
 Iteration    1 A^-1*A deviation from unit magnitude is 1.11D-14 for   3839.
 Iteration    1 A^-1*A deviation from orthogonality  is 5.18D-11 for   2282   2210.
 E= -1308.16321040066    
 DIIS: error= 2.69D-02 at cycle   1 NSaved=   1.
 NSaved= 1 IEnMin= 1 EnMin= -1308.16321040066     IErMin= 1 ErrMin= 2.69D-02
 ErrMax= 2.69D-02  0.00D+00 EMaxC= 1.00D-01 BMatC= 2.29D+00 BMatP= 2.29D+00
 IDIUse=3 WtCom= 7.31D-01 WtEn= 2.69D-01
 Coeff-Com:  0.100D+01
 Coeff-En:   0.100D+01
 Coeff:      0.100D+01
 Gap=     0.245 Goal=   None    Shift=    0.000
 GapD=    0.245 DampG=1.000 DampE=0.500 DampFc=0.5000 IDamp=-1.
 Damping current iteration by 5.00D-01
 RMSDP=2.38D-03 MaxDP=4.24D-01              OVMax= 2.08D-01

 Cycle   2  Pass 1  IDiag  1:
 RMSU=  9.73D-04    CP:  8.86D-01
 E= -1308.32885298044     Delta-E=       -0.165642579781 Rises=F Damp=T
 DIIS: error= 1.32D-02 at cycle   2 NSaved=   2.
 NSaved= 2 IEnMin= 2 EnMin= -1308.32885298044     IErMin= 2 ErrMin= 1.32D-02
 ErrMax= 1.32D-02  0.00D+00 EMaxC= 1.00D-01 BMatC= 4.79D-01 BMatP= 2.29D+00
 IDIUse=3 WtCom= 8.68D-01 WtEn= 1.32D-01
 Coeff-Com: -0.505D+00 0.150D+01
 Coeff-En:   0.000D+00 0.100D+01
 Coeff:     -0.438D+00 0.144D+01
 Gap=     0.293 Goal=   None    Shift=    0.000
 RMSDP=8.30D-04 MaxDP=7.84D-02 DE=-1.66D-01 OVMax= 3.50D-01

 Cycle   3  Pass 1  IDiag  1:
 RMSU=  7.97D-04    CP:  8.50D-01  1.09D+00
 E= -1308.31674037162     Delta-E=        0.012112608817 Rises=F Damp=F
 DIIS: error= 1.78D-02 at cycle   3 NSaved=   3.
 NSaved= 3 IEnMin= 2 EnMin= -1308.32885298044     IErMin= 2 ErrMin= 1.32D-02
 ErrMax= 1.78D-02  0.00D+00 EMaxC= 1.00D-01 BMatC= 2.72D-01 BMatP= 4.79D-01
 IDIUse=3 WtCom= 8.22D-01 WtEn= 1.78D-01
 Coeff-Com: -0.398D+00 0.862D+00 0.536D+00
 Coeff-En:   0.000D+00 0.530D+00 0.470D+00
 Coeff:     -0.327D+00 0.803D+00 0.524D+00
 Gap=     0.233 Goal=   None    Shift=    0.000
 RMSDP=7.93D-04 MaxDP=1.70D-01 DE= 1.21D-02 OVMax= 1.55D-01

 Cycle   4  Pass 1  IDiag  1:
 RMSU=  1.61D-04    CP:  7.93D-01  1.69D+00  5.33D-01
 E= -1308.54739902217     Delta-E=       -0.230658650553 Rises=F Damp=F
 DIIS: error= 2.18D-03 at cycle   4 NSaved=   4.
 NSaved= 4 IEnMin= 4 EnMin= -1308.54739902217     IErMin= 4 ErrMin= 2.18D-03
 ErrMax= 2.18D-03  0.00D+00 EMaxC= 1.00D-01 BMatC= 7.56D-03 BMatP= 2.72D-01
 IDIUse=3 WtCom= 9.78D-01 WtEn= 2.18D-02
 Coeff-Com: -0.165D+00 0.358D+00 0.288D+00 0.518D+00
 Coeff-En:   0.000D+00 0.000D+00 0.000D+00 0.100D+01
 Coeff:     -0.162D+00 0.351D+00 0.282D+00 0.529D+00
 Gap=     0.204 Goal=   None    Shift=    0.000
 RMSDP=6.56D-05 MaxDP=1.01D-02 DE=-2.31D-01 OVMax= 2.51D-02

 Cycle   5  Pass 1  IDiag  1:
 RMSU=  6.03D-05    CP:  7.92D-01  1.69D+00  5.65D-01  1.01D+00
 E= -1308.55363642594     Delta-E=       -0.006237403770 Rises=F Damp=F
 DIIS: error= 3.82D-04 at cycle   5 NSaved=   5.
 NSaved= 5 IEnMin= 5 EnMin= -1308.55363642594     IErMin= 5 ErrMin= 3.82D-04
 ErrMax= 3.82D-04  0.00D+00 EMaxC= 1.00D-01 BMatC= 1.91D-04 BMatP= 7.56D-03
 IDIUse=3 WtCom= 9.96D-01 WtEn= 3.82D-03
 Coeff-Com:  0.246D-01-0.524D-01-0.821D-02 0.145D+00 0.891D+00
 Coeff-En:   0.000D+00 0.000D+00 0.000D+00 0.000D+00 0.100D+01
 Coeff:      0.245D-01-0.522D-01-0.818D-02 0.144D+00 0.892D+00
 Gap=     0.208 Goal=   None    Shift=    0.000
 RMSDP=3.03D-05 MaxDP=3.76D-03 DE=-6.24D-03 OVMax= 5.39D-03

 Cycle   6  Pass 1  IDiag  1:
 RMSU=  2.25D-05    CP:  7.92D-01  1.69D+00  5.85D-01  1.06D+00  8.57D-01
 E= -1308.55385467713     Delta-E=       -0.000218251185 Rises=F Damp=F
 DIIS: error= 1.63D-04 at cycle   6 NSaved=   6.
 NSaved= 6 IEnMin= 6 EnMin= -1308.55385467713     IErMin= 6 ErrMin= 1.63D-04
 ErrMax= 1.63D-04  0.00D+00 EMaxC= 1.00D-01 BMatC= 4.81D-05 BMatP= 1.91D-04
 IDIUse=3 WtCom= 9.98D-01 WtEn= 1.63D-03
 Coeff-Com:  0.184D-01-0.398D-01-0.177D-01 0.269D-01 0.422D+00 0.590D+00
 Coeff-En:   0.000D+00 0.000D+00 0.000D+00 0.000D+00 0.000D+00 0.100D+01
 Coeff:      0.184D-01-0.397D-01-0.176D-01 0.268D-01 0.421D+00 0.591D+00
 Gap=     0.208 Goal=   None    Shift=    0.000
 RMSDP=1.42D-05 MaxDP=2.71D-03 DE=-2.18D-04 OVMax= 1.61D-03

 Cycle   7  Pass 1  IDiag  1:
 RMSU=  6.00D-06    CP:  7.91D-01  1.70D+00  5.82D-01  1.09D+00  9.56D-01
                    CP:  9.06D-01
 E= -1308.55390281944     Delta-E=       -0.000048142315 Rises=F Damp=F
 DIIS: error= 6.64D-05 at cycle   7 NSaved=   7.
 NSaved= 7 IEnMin= 7 EnMin= -1308.55390281944     IErMin= 7 ErrMin= 6.64D-05
 ErrMax= 6.64D-05  0.00D+00 EMaxC= 1.00D-01 BMatC= 3.16D-06 BMatP= 4.81D-05
 IDIUse=1 WtCom= 1.00D+00 WtEn= 0.00D+00
 Coeff-Com:  0.212D-02-0.465D-02-0.439D-02-0.168D-01 0.984D-02 0.180D+00
 Coeff-Com:  0.834D+00
 Coeff:      0.212D-02-0.465D-02-0.439D-02-0.168D-01 0.984D-02 0.180D+00
 Coeff:      0.834D+00
 Gap=     0.208 Goal=   None    Shift=    0.000
 RMSDP=3.87D-06 MaxDP=5.59D-04 DE=-4.81D-05 OVMax= 9.90D-04

 Cycle   8  Pass 1  IDiag  1:
 RMSU=  2.63D-06    CP:  7.91D-01  1.70D+00  5.83D-01  1.09D+00  9.54D-01
                    CP:  1.00D+00  1.08D+00
 E= -1308.55390824704     Delta-E=       -0.000005427594 Rises=F Damp=F
 DIIS: error= 2.25D-05 at cycle   8 NSaved=   8.
 NSaved= 8 IEnMin= 8 EnMin= -1308.55390824704     IErMin= 8 ErrMin= 2.25D-05
 ErrMax= 2.25D-05  0.00D+00 EMaxC= 1.00D-01 BMatC= 5.62D-07 BMatP= 3.16D-06
 IDIUse=1 WtCom= 1.00D+00 WtEn= 0.00D+00
 Coeff-Com: -0.186D-02 0.398D-02 0.955D-03-0.126D-01-0.523D-01-0.124D-01
 Coeff-Com:  0.281D+00 0.794D+00
 Coeff:     -0.186D-02 0.398D-02 0.955D-03-0.126D-01-0.523D-01-0.124D-01
 Coeff:      0.281D+00 0.794D+00
 Gap=     0.208 Goal=   None    Shift=    0.000
 RMSDP=1.32D-06 MaxDP=7.73D-05 DE=-5.43D-06 OVMax= 4.61D-04

 Cycle   9  Pass 1  IDiag  1:
 RMSU=  9.30D-07    CP:  7.91D-01  1.70D+00  5.83D-01  1.09D+00  9.57D-01
                    CP:  1.03D+00  1.18D+00  1.10D+00
 E= -1308.55390926876     Delta-E=       -0.000001021721 Rises=F Damp=F
 DIIS: error= 1.19D-05 at cycle   9 NSaved=   9.
 NSaved= 9 IEnMin= 9 EnMin= -1308.55390926876     IErMin= 9 ErrMin= 1.19D-05
 ErrMax= 1.19D-05  0.00D+00 EMaxC= 1.00D-01 BMatC= 1.12D-07 BMatP= 5.62D-07
 IDIUse=1 WtCom= 1.00D+00 WtEn= 0.00D+00
 Coeff-Com: -0.102D-02 0.219D-02 0.106D-02-0.361D-02-0.195D-01-0.305D-01
 Coeff-Com: -0.280D-01 0.301D+00 0.779D+00
 Coeff:     -0.102D-02 0.219D-02 0.106D-02-0.361D-02-0.195D-01-0.305D-01
 Coeff:     -0.280D-01 0.301D+00 0.779D+00
 Gap=     0.208 Goal=   None    Shift=    0.000
 RMSDP=9.12D-07 MaxDP=1.54D-04 DE=-1.02D-06 OVMax= 2.20D-04

 Cycle  10  Pass 1  IDiag  1:
 RMSU=  3.64D-07    CP:  7.92D-01  1.69D+00  5.84D-01  1.09D+00  9.58D-01
                    CP:  1.04D+00  1.22D+00  1.26D+00  1.14D+00
 E= -1308.55390947689     Delta-E=       -0.000000208132 Rises=F Damp=F
 DIIS: error= 6.05D-06 at cycle  10 NSaved=  10.
 NSaved=10 IEnMin=10 EnMin= -1308.55390947689     IErMin=10 ErrMin= 6.05D-06
 ErrMax= 6.05D-06  0.00D+00 EMaxC= 1.00D-01 BMatC= 1.56D-08 BMatP= 1.12D-07
 IDIUse=1 WtCom= 1.00D+00 WtEn= 0.00D+00
 Coeff-Com: -0.790D-04 0.164D-03 0.222D-03 0.145D-03 0.142D-02-0.811D-02
 Coeff-Com: -0.527D-01-0.339D-01 0.273D+00 0.820D+00
 Coeff:     -0.790D-04 0.164D-03 0.222D-03 0.145D-03 0.142D-02-0.811D-02
 Coeff:     -0.527D-01-0.339D-01 0.273D+00 0.820D+00
 Gap=     0.208 Goal=   None    Shift=    0.000
 RMSDP=2.62D-07 MaxDP=1.61D-05 DE=-2.08D-07 OVMax= 1.24D-04

 Cycle  11  Pass 1  IDiag  1:
 RMSU=  1.43D-07    CP:  7.92D-01  1.69D+00  5.84D-01  1.09D+00  9.59D-01
                    CP:  1.04D+00  1.23D+00  1.30D+00  1.28D+00  1.17D+00
 E= -1308.55390951011     Delta-E=       -0.000000033215 Rises=F Damp=F
 DIIS: error= 2.04D-06 at cycle  11 NSaved=  11.
 NSaved=11 IEnMin=11 EnMin= -1308.55390951011     IErMin=11 ErrMin= 2.04D-06
 ErrMax= 2.04D-06  0.00D+00 EMaxC= 1.00D-01 BMatC= 1.84D-09 BMatP= 1.56D-08
 IDIUse=1 WtCom= 1.00D+00 WtEn= 0.00D+00
 Coeff-Com:  0.104D-03-0.225D-03-0.505D-04 0.516D-03 0.354D-02 0.105D-02
 Coeff-Com: -0.151D-01-0.593D-01 0.165D-02 0.279D+00 0.789D+00
 Coeff:      0.104D-03-0.225D-03-0.505D-04 0.516D-03 0.354D-02 0.105D-02
 Coeff:     -0.151D-01-0.593D-01 0.165D-02 0.279D+00 0.789D+00
 Gap=     0.208 Goal=   None    Shift=    0.000
 RMSDP=1.20D-07 MaxDP=1.31D-05 DE=-3.32D-08 OVMax= 4.71D-05

 Cycle  12  Pass 1  IDiag  1:
 RMSU=  5.95D-08    CP:  7.92D-01  1.69D+00  5.84D-01  1.09D+00  9.59D-01
                    CP:  1.04D+00  1.24D+00  1.32D+00  1.32D+00  1.30D+00
                    CP:  1.24D+00
 E= -1308.55390951507     Delta-E=       -0.000000004967 Rises=F Damp=F
 DIIS: error= 1.32D-06 at cycle  12 NSaved=  12.
 NSaved=12 IEnMin=12 EnMin= -1308.55390951507     IErMin=12 ErrMin= 1.32D-06
 ErrMax= 1.32D-06  0.00D+00 EMaxC= 1.00D-01 BMatC= 2.49D-10 BMatP= 1.84D-09
 IDIUse=1 WtCom= 1.00D+00 WtEn= 0.00D+00
 Coeff-Com:  0.442D-04-0.944D-04-0.523D-04 0.961D-04 0.939D-03 0.152D-02
 Coeff-Com:  0.546D-02-0.122D-01-0.379D-01-0.569D-01 0.217D+00 0.882D+00
 Coeff:      0.442D-04-0.944D-04-0.523D-04 0.961D-04 0.939D-03 0.152D-02
 Coeff:      0.546D-02-0.122D-01-0.379D-01-0.569D-01 0.217D+00 0.882D+00
 Gap=     0.208 Goal=   None    Shift=    0.000
 RMSDP=5.33D-08 MaxDP=5.75D-06 DE=-4.97D-09 OVMax= 2.52D-05

 Cycle  13  Pass 1  IDiag  1:
 RMSU=  2.58D-08    CP:  7.92D-01  1.69D+00  5.84D-01  1.09D+00  9.59D-01
                    CP:  1.04D+00  1.24D+00  1.32D+00  1.33D+00  1.33D+00
                    CP:  1.44D+00  1.29D+00
 E= -1308.55390951603     Delta-E=       -0.000000000955 Rises=F Damp=F
 DIIS: error= 3.52D-07 at cycle  13 NSaved=  13.
 NSaved=13 IEnMin=13 EnMin= -1308.55390951603     IErMin=13 ErrMin= 3.52D-07
 ErrMax= 3.52D-07  0.00D+00 EMaxC= 1.00D-01 BMatC= 7.85D-11 BMatP= 2.49D-10
 IDIUse=1 WtCom= 1.00D+00 WtEn= 0.00D+00
 Coeff-Com:  0.463D-05-0.966D-05-0.144D-04-0.490D-04-0.120D-03 0.266D-03
 Coeff-Com:  0.400D-02 0.373D-02-0.135D-01-0.658D-01-0.697D-01 0.341D+00
 Coeff-Com:  0.800D+00
 Coeff:      0.463D-05-0.966D-05-0.144D-04-0.490D-04-0.120D-03 0.266D-03
 Coeff:      0.400D-02 0.373D-02-0.135D-01-0.658D-01-0.697D-01 0.341D+00
 Coeff:      0.800D+00
 Gap=     0.208 Goal=   None    Shift=    0.000
 RMSDP=2.44D-08 MaxDP=1.24D-06 DE=-9.55D-10 OVMax= 1.07D-05

 Cycle  14  Pass 1  IDiag  1:
 RMSU=  1.07D-08    CP:  7.92D-01  1.69D+00  5.84D-01  1.09D+00  9.59D-01
                    CP:  1.04D+00  1.24D+00  1.32D+00  1.34D+00  1.35D+00
                    CP:  1.51D+00  1.52D+00  1.23D+00
 E= -1308.55390951627     Delta-E=       -0.000000000246 Rises=F Damp=F
 DIIS: error= 1.35D-07 at cycle  14 NSaved=  14.
 NSaved=14 IEnMin=14 EnMin= -1308.55390951627     IErMin=14 ErrMin= 1.35D-07
 ErrMax= 1.35D-07  0.00D+00 EMaxC= 1.00D-01 BMatC= 1.19D-11 BMatP= 7.85D-11
 IDIUse=1 WtCom= 1.00D+00 WtEn= 0.00D+00
 Coeff-Com: -0.559D-05 0.119D-04 0.430D-05-0.471D-04-0.205D-03-0.228D-03
 Coeff-Com:  0.441D-03 0.386D-02 0.263D-02-0.142D-01-0.724D-01-0.250D-01
 Coeff-Com:  0.282D+00 0.823D+00
 Coeff:     -0.559D-05 0.119D-04 0.430D-05-0.471D-04-0.205D-03-0.228D-03
 Coeff:      0.441D-03 0.386D-02 0.263D-02-0.142D-01-0.724D-01-0.250D-01
 Coeff:      0.282D+00 0.823D+00
 Gap=     0.208 Goal=   None    Shift=    0.000
 RMSDP=1.02D-08 MaxDP=6.04D-07 DE=-2.46D-10 OVMax= 4.33D-06

 Cycle  15  Pass 1  IDiag  1:
 RMSU=  3.91D-09    CP:  7.92D-01  1.69D+00  5.84D-01  1.09D+00  9.59D-01
                    CP:  1.04D+00  1.24D+00  1.32D+00  1.34D+00  1.36D+00
                    CP:  1.55D+00  1.60D+00  1.40D+00  1.15D+00
 E= -1308.55390951633     Delta-E=       -0.000000000055 Rises=F Damp=F
 DIIS: error= 4.04D-08 at cycle  15 NSaved=  15.
 NSaved=15 IEnMin=15 EnMin= -1308.55390951633     IErMin=15 ErrMin= 4.04D-08
 ErrMax= 4.04D-08  0.00D+00 EMaxC= 1.00D-01 BMatC= 1.25D-12 BMatP= 1.19D-11
 IDIUse=1 WtCom= 1.00D+00 WtEn= 0.00D+00
 Coeff-Com: -0.190D-05 0.402D-05 0.318D-05-0.976D-05-0.320D-04-0.102D-03
 Coeff-Com: -0.433D-03 0.562D-03 0.270D-02 0.577D-02-0.850D-02-0.516D-01
 Coeff-Com: -0.490D-01 0.207D+00 0.894D+00
 Coeff:     -0.190D-05 0.402D-05 0.318D-05-0.976D-05-0.320D-04-0.102D-03
 Coeff:     -0.433D-03 0.562D-03 0.270D-02 0.577D-02-0.850D-02-0.516D-01
 Coeff:     -0.490D-01 0.207D+00 0.894D+00
 Gap=     0.208 Goal=   None    Shift=    0.000
 RMSDP=3.26D-09 MaxDP=1.88D-07 DE=-5.55D-11 OVMax= 1.10D-06

 Error on total polarization charges =  0.05634
 SCF Done:  E(RCAM-B3LYP) =  -1308.55390952     A.U. after   15 cycles
            NFock= 15  Conv=0.33D-08     -V/T= 2.0052
 KE= 1.301771351059D+03 PE=-8.568443532718D+03 EE= 3.184210885588D+03
 SMD-CDS (non-electrostatic) energy       (kcal/mol) =      -5.49
 (included in total energy above)
 Leave Link  502 at Wed Feb 24 03:52:42 2021, MaxMem=  5242880000 cpu:     27522.1
 (Enter /opt/nce/packages/global/g09/l601.exe)
 Copying SCF densities to generalized density rwf, IOpCl= 0 IROHF=0.

 **********************************************************************

            Population analysis using the SCF density.

 **********************************************************************

 Alpha  occ. eigenvalues --  -19.23750 -19.21295 -19.20918 -14.49326 -10.33988
 Alpha  occ. eigenvalues --  -10.33985 -10.32522 -10.32410 -10.29982 -10.29680
 Alpha  occ. eigenvalues --  -10.29678 -10.29219 -10.27839 -10.27835 -10.27782
 Alpha  occ. eigenvalues --  -10.27485 -10.27465 -10.27058 -10.27050 -10.26884
 Alpha  occ. eigenvalues --  -10.26821 -10.26636 -10.26625 -10.26618 -10.26354
 Alpha  occ. eigenvalues --  -10.26195 -10.25859 -10.25808 -10.25752 -10.24505
 Alpha  occ. eigenvalues --   -6.85672  -1.16291  -1.12429  -1.11330  -1.08999
 Alpha  occ. eigenvalues --   -0.98481  -0.96969  -0.95384  -0.94252  -0.91410
 Alpha  occ. eigenvalues --   -0.87195  -0.86062  -0.85414  -0.84601  -0.83903
 Alpha  occ. eigenvalues --   -0.83673  -0.82589  -0.78495  -0.76321  -0.74268
 Alpha  occ. eigenvalues --   -0.72978  -0.70538  -0.69606  -0.69109  -0.68748
 Alpha  occ. eigenvalues --   -0.66444  -0.64939  -0.64717  -0.63784  -0.62693
 Alpha  occ. eigenvalues --   -0.62102  -0.60451  -0.58962  -0.58273  -0.57197
 Alpha  occ. eigenvalues --   -0.56019  -0.55484  -0.55253  -0.54514  -0.54124
 Alpha  occ. eigenvalues --   -0.52831  -0.52514  -0.52306  -0.51873  -0.51741
 Alpha  occ. eigenvalues --   -0.51219  -0.50366  -0.50086  -0.49321  -0.48491
 Alpha  occ. eigenvalues --   -0.47636  -0.47543  -0.46393  -0.46207  -0.45927
 Alpha  occ. eigenvalues --   -0.45110  -0.44719  -0.44638  -0.44146  -0.43360
 Alpha  occ. eigenvalues --   -0.43103  -0.43083  -0.42058  -0.40924  -0.39879
 Alpha  occ. eigenvalues --   -0.39875  -0.39744  -0.39524  -0.38320  -0.34553
 Alpha  occ. eigenvalues --   -0.32677  -0.32512  -0.32144  -0.31930  -0.29142
 Alpha  occ. eigenvalues --   -0.29068
 Alpha virt. eigenvalues --   -0.08305  -0.01187  -0.00138   0.00881   0.01643
 Alpha virt. eigenvalues --    0.02552   0.03087   0.03960   0.06037   0.07733
 Alpha virt. eigenvalues --    0.08176   0.08853   0.09280   0.09713   0.10151
 Alpha virt. eigenvalues --    0.10389   0.10890   0.11486   0.11750   0.11843
 Alpha virt. eigenvalues --    0.12605   0.12738   0.13446   0.13723   0.14260
 Alpha virt. eigenvalues --    0.14698   0.14926   0.15455   0.15851   0.16134
 Alpha virt. eigenvalues --    0.16173   0.16621   0.16933   0.17499   0.17810
 Alpha virt. eigenvalues --    0.18197   0.18305   0.19004   0.19563   0.20088
 Alpha virt. eigenvalues --    0.20731   0.21219   0.21817   0.21858   0.22502
 Alpha virt. eigenvalues --    0.22684   0.23281   0.23514   0.23724   0.24046
 Alpha virt. eigenvalues --    0.24482   0.24953   0.25213   0.25448   0.25639
 Alpha virt. eigenvalues --    0.26148   0.26388   0.26920   0.27070   0.27173
 Alpha virt. eigenvalues --    0.27631   0.27982   0.28169   0.28405   0.28636
 Alpha virt. eigenvalues --    0.28985   0.29452   0.29924   0.30400   0.30527
 Alpha virt. eigenvalues --    0.30818   0.31355   0.31563   0.31947   0.32489
 Alpha virt. eigenvalues --    0.32672   0.33022   0.33354   0.33483   0.33642
 Alpha virt. eigenvalues --    0.34296   0.34690   0.34867   0.35140   0.35361
 Alpha virt. eigenvalues --    0.36113   0.36727   0.37035   0.37224   0.37689
 Alpha virt. eigenvalues --    0.38182   0.38537   0.38934   0.39053   0.39179
 Alpha virt. eigenvalues --    0.39746   0.40244   0.40545   0.40717   0.41044
 Alpha virt. eigenvalues --    0.41148   0.41373   0.41571   0.42050   0.42606
 Alpha virt. eigenvalues --    0.42732   0.43198   0.43713   0.43884   0.44496
 Alpha virt. eigenvalues --    0.44747   0.45135   0.45332   0.45558   0.46023
 Alpha virt. eigenvalues --    0.46137   0.46589   0.46792   0.46927   0.47360
 Alpha virt. eigenvalues --    0.47802   0.47846   0.48183   0.48510   0.48889
 Alpha virt. eigenvalues --    0.49386   0.49536   0.49811   0.50057   0.50320
 Alpha virt. eigenvalues --    0.50513   0.50604   0.51209   0.51516   0.51561
 Alpha virt. eigenvalues --    0.52095   0.52148   0.52449   0.52916   0.53224
 Alpha virt. eigenvalues --    0.53464   0.53750   0.54260   0.54459   0.54839
 Alpha virt. eigenvalues --    0.55053   0.55173   0.55571   0.56221   0.57131
 Alpha virt. eigenvalues --    0.57383   0.57923   0.58317   0.58688   0.59342
 Alpha virt. eigenvalues --    0.59639   0.60298   0.60705   0.60832   0.61067
 Alpha virt. eigenvalues --    0.62046   0.63188   0.63355   0.63836   0.64363
 Alpha virt. eigenvalues --    0.65150   0.65267   0.65404   0.65760   0.65936
 Alpha virt. eigenvalues --    0.66985   0.67273   0.67627   0.67808   0.67953
 Alpha virt. eigenvalues --    0.69208   0.69423   0.69762   0.69859   0.70498
 Alpha virt. eigenvalues --    0.70625   0.70805   0.71416   0.71486   0.71708
 Alpha virt. eigenvalues --    0.72045   0.72841   0.72969   0.73606   0.74105
 Alpha virt. eigenvalues --    0.74167   0.74446   0.74818   0.75186   0.75463
 Alpha virt. eigenvalues --    0.76090   0.76278   0.77017   0.77393   0.77443
 Alpha virt. eigenvalues --    0.78081   0.78515   0.79176   0.79542   0.79910
 Alpha virt. eigenvalues --    0.80086   0.80594   0.80660   0.80833   0.81174
 Alpha virt. eigenvalues --    0.81521   0.82327   0.83293   0.83532   0.84270
 Alpha virt. eigenvalues --    0.84890   0.85292   0.85446   0.86471   0.86767
 Alpha virt. eigenvalues --    0.87358   0.87700   0.88254   0.88425   0.89092
 Alpha virt. eigenvalues --    0.89518   0.90109   0.90234   0.90630   0.91083
 Alpha virt. eigenvalues --    0.91928   0.92359   0.92821   0.93074   0.93110
 Alpha virt. eigenvalues --    0.93416   0.94249   0.94522   0.95062   0.95544
 Alpha virt. eigenvalues --    0.96255   0.96959   0.97218   0.98344   0.98756
 Alpha virt. eigenvalues --    0.99110   0.99881   1.00025   1.00952   1.01795
 Alpha virt. eigenvalues --    1.02035   1.03456   1.03516   1.03671   1.04874
 Alpha virt. eigenvalues --    1.05204   1.05972   1.06221   1.06924   1.07602
 Alpha virt. eigenvalues --    1.08290   1.09104   1.09255   1.10037   1.10404
 Alpha virt. eigenvalues --    1.11193   1.12127   1.12890   1.13128   1.13196
 Alpha virt. eigenvalues --    1.13696   1.13866   1.14507   1.15429   1.16049
 Alpha virt. eigenvalues --    1.16723   1.17313   1.17905   1.18560   1.19087
 Alpha virt. eigenvalues --    1.20580   1.20720   1.21553   1.21836   1.22506
 Alpha virt. eigenvalues --    1.23142   1.23440   1.24207   1.25090   1.26123
 Alpha virt. eigenvalues --    1.26492   1.26771   1.27592   1.28164   1.28563
 Alpha virt. eigenvalues --    1.29341   1.29439   1.29996   1.30335   1.30522
 Alpha virt. eigenvalues --    1.31341   1.31993   1.33055   1.33159   1.33533
 Alpha virt. eigenvalues --    1.34063   1.34541   1.35436   1.35814   1.36258
 Alpha virt. eigenvalues --    1.36744   1.36956   1.37175   1.37651   1.38068
 Alpha virt. eigenvalues --    1.38622   1.39373   1.39775   1.41139   1.42236
 Alpha virt. eigenvalues --    1.42456   1.43180   1.43624   1.44737   1.45516
 Alpha virt. eigenvalues --    1.46161   1.47167   1.47291   1.47723   1.48132
 Alpha virt. eigenvalues --    1.49096   1.49381   1.49558   1.49903   1.52059
 Alpha virt. eigenvalues --    1.52332   1.53230   1.53713   1.53911   1.54733
 Alpha virt. eigenvalues --    1.55104   1.55475   1.55697   1.56592   1.57216
 Alpha virt. eigenvalues --    1.57867   1.57951   1.58238   1.58564   1.59257
 Alpha virt. eigenvalues --    1.59480   1.59921   1.60354   1.60701   1.61540
 Alpha virt. eigenvalues --    1.61857   1.62541   1.62645   1.62839   1.63358
 Alpha virt. eigenvalues --    1.63869   1.63942   1.64611   1.64982   1.65145
 Alpha virt. eigenvalues --    1.66193   1.66891   1.67135   1.68258   1.68926
 Alpha virt. eigenvalues --    1.69050   1.69723   1.70015   1.70532   1.70864
 Alpha virt. eigenvalues --    1.71235   1.71895   1.72407   1.72916   1.73123
 Alpha virt. eigenvalues --    1.73476   1.74365   1.74757   1.75327   1.75389
 Alpha virt. eigenvalues --    1.75944   1.76142   1.76484   1.77291   1.77710
 Alpha virt. eigenvalues --    1.78594   1.78750   1.79499   1.80286   1.80507
 Alpha virt. eigenvalues --    1.81072   1.81331   1.81744   1.82185   1.82937
 Alpha virt. eigenvalues --    1.83434   1.83925   1.84429   1.85613   1.85927
 Alpha virt. eigenvalues --    1.86642   1.88646   1.88777   1.89448   1.89726
 Alpha virt. eigenvalues --    1.90984   1.91434   1.92309   1.92915   1.93479
 Alpha virt. eigenvalues --    1.94434   1.94511   1.94948   1.95347   1.95610
 Alpha virt. eigenvalues --    1.96048   1.96894   1.98092   1.98558   1.99508
 Alpha virt. eigenvalues --    2.00401   2.00678   2.01176   2.02347   2.02830
 Alpha virt. eigenvalues --    2.02855   2.03250   2.03842   2.05210   2.06390
 Alpha virt. eigenvalues --    2.06685   2.07597   2.08756   2.09482   2.10390
 Alpha virt. eigenvalues --    2.10864   2.11298   2.11976   2.12157   2.13004
 Alpha virt. eigenvalues --    2.13275   2.14177   2.14461   2.16301   2.16835
 Alpha virt. eigenvalues --    2.17105   2.17489   2.17693   2.18115   2.18441
 Alpha virt. eigenvalues --    2.20066   2.20526   2.21514   2.21688   2.22200
 Alpha virt. eigenvalues --    2.22713   2.23198   2.23687   2.24181   2.25370
 Alpha virt. eigenvalues --    2.25840   2.26666   2.27698   2.28040   2.28521
 Alpha virt. eigenvalues --    2.29396   2.29853   2.30741   2.31463   2.32371
 Alpha virt. eigenvalues --    2.32558   2.33560   2.33640   2.34498   2.35202
 Alpha virt. eigenvalues --    2.35893   2.36815   2.36886   2.37441   2.38567
 Alpha virt. eigenvalues --    2.39332   2.39549   2.40737   2.41030   2.41733
 Alpha virt. eigenvalues --    2.42128   2.44392   2.45067   2.45251   2.46366
 Alpha virt. eigenvalues --    2.46769   2.47420   2.47933   2.48656   2.49456
 Alpha virt. eigenvalues --    2.50533   2.52068   2.52613   2.54153   2.54266
 Alpha virt. eigenvalues --    2.54498   2.54889   2.55701   2.56923   2.57387
 Alpha virt. eigenvalues --    2.58289   2.59206   2.59681   2.59932   2.60185
 Alpha virt. eigenvalues --    2.60906   2.61006   2.62421   2.62639   2.63617
 Alpha virt. eigenvalues --    2.63929   2.64737   2.65112   2.65682   2.66265
 Alpha virt. eigenvalues --    2.66861   2.67174   2.67403   2.68104   2.68396
 Alpha virt. eigenvalues --    2.68962   2.69471   2.70256   2.70616   2.71508
 Alpha virt. eigenvalues --    2.72127   2.72325   2.72821   2.73142   2.73421
 Alpha virt. eigenvalues --    2.74387   2.74427   2.75434   2.75592   2.76091
 Alpha virt. eigenvalues --    2.76501   2.76677   2.76915   2.77167   2.77536
 Alpha virt. eigenvalues --    2.77799   2.78331   2.78989   2.79312   2.79555
 Alpha virt. eigenvalues --    2.80098   2.80991   2.81605   2.81990   2.82235
 Alpha virt. eigenvalues --    2.82711   2.82864   2.83381   2.83842   2.83972
 Alpha virt. eigenvalues --    2.84309   2.84788   2.85313   2.86145   2.86367
 Alpha virt. eigenvalues --    2.86778   2.87591   2.88143   2.88397   2.88762
 Alpha virt. eigenvalues --    2.89128   2.89565   2.89668   2.90390   2.90477
 Alpha virt. eigenvalues --    2.91137   2.91496   2.92134   2.92389   2.93296
 Alpha virt. eigenvalues --    2.94305   2.94757   2.94972   2.95275   2.95783
 Alpha virt. eigenvalues --    2.96743   2.97301   2.97504   2.97872   2.98194
 Alpha virt. eigenvalues --    2.99268   2.99659   2.99932   3.00253   3.00457
 Alpha virt. eigenvalues --    3.01779   3.02668   3.02814   3.03145   3.04048
 Alpha virt. eigenvalues --    3.04812   3.05224   3.05470   3.06185   3.06863
 Alpha virt. eigenvalues --    3.07712   3.08425   3.08672   3.08964   3.09938
 Alpha virt. eigenvalues --    3.10477   3.10964   3.11281   3.12097   3.12773
 Alpha virt. eigenvalues --    3.12876   3.13220   3.13395   3.14654   3.15945
 Alpha virt. eigenvalues --    3.16325   3.17009   3.17469   3.17880   3.18119
 Alpha virt. eigenvalues --    3.18459   3.19008   3.19715   3.20034   3.20621
 Alpha virt. eigenvalues --    3.20919   3.21633   3.21743   3.22378   3.22446
 Alpha virt. eigenvalues --    3.22669   3.22762   3.24477   3.24684   3.24869
 Alpha virt. eigenvalues --    3.25714   3.26051   3.26334   3.26487   3.27135
 Alpha virt. eigenvalues --    3.27352   3.27915   3.28146   3.29000   3.29434
 Alpha virt. eigenvalues --    3.30035   3.30705   3.30892   3.31585   3.32173
 Alpha virt. eigenvalues --    3.32411   3.32821   3.33790   3.34556   3.35153
 Alpha virt. eigenvalues --    3.35320   3.35458   3.35696   3.36267   3.36675
 Alpha virt. eigenvalues --    3.37177   3.38049   3.38335   3.38725   3.39163
 Alpha virt. eigenvalues --    3.39413   3.39988   3.40212   3.41213   3.41612
 Alpha virt. eigenvalues --    3.42173   3.42380   3.42553   3.42816   3.43601
 Alpha virt. eigenvalues --    3.44129   3.44321   3.44824   3.45213   3.45824
 Alpha virt. eigenvalues --    3.46489   3.47095   3.47386   3.48163   3.48832
 Alpha virt. eigenvalues --    3.49043   3.49288   3.49814   3.50418   3.51059
 Alpha virt. eigenvalues --    3.51508   3.51874   3.52301   3.52653   3.53055
 Alpha virt. eigenvalues --    3.53469   3.53649   3.54607   3.55059   3.55299
 Alpha virt. eigenvalues --    3.55843   3.56305   3.57049   3.57405   3.57684
 Alpha virt. eigenvalues --    3.58563   3.59122   3.59311   3.59538   3.60072
 Alpha virt. eigenvalues --    3.60250   3.60617   3.60856   3.61198   3.61411
 Alpha virt. eigenvalues --    3.62272   3.63457   3.63618   3.64277   3.64744
 Alpha virt. eigenvalues --    3.65025   3.65520   3.66300   3.66564   3.67453
 Alpha virt. eigenvalues --    3.68246   3.69861   3.70870   3.72011   3.72801
 Alpha virt. eigenvalues --    3.73377   3.74220   3.75007   3.75346   3.76038
 Alpha virt. eigenvalues --    3.76626   3.77568   3.78811   3.80157   3.81292
 Alpha virt. eigenvalues --    3.82434   3.83519   3.84330   3.85403   3.86175
 Alpha virt. eigenvalues --    3.86847   3.87589   3.88892   3.90319   3.91220
 Alpha virt. eigenvalues --    3.92209   3.93002   3.93975   3.95005   3.95910
 Alpha virt. eigenvalues --    3.96742   3.97671   3.98395   3.99916   4.00746
 Alpha virt. eigenvalues --    4.01433   4.01920   4.02510   4.03102   4.05079
 Alpha virt. eigenvalues --    4.05716   4.06506   4.06687   4.07380   4.08411
 Alpha virt. eigenvalues --    4.09536   4.10933   4.11122   4.12477   4.12908
 Alpha virt. eigenvalues --    4.13143   4.14600   4.15073   4.15948   4.16266
 Alpha virt. eigenvalues --    4.18335   4.19060   4.19694   4.19835   4.20789
 Alpha virt. eigenvalues --    4.21159   4.21537   4.21759   4.23228   4.23748
 Alpha virt. eigenvalues --    4.24258   4.25605   4.25689   4.26367   4.27408
 Alpha virt. eigenvalues --    4.27781   4.28110   4.28250   4.28364   4.28856
 Alpha virt. eigenvalues --    4.29754   4.29947   4.30133   4.30776   4.31355
 Alpha virt. eigenvalues --    4.31752   4.32701   4.34317   4.34846   4.35554
 Alpha virt. eigenvalues --    4.37061   4.38532   4.39463   4.39886   4.40642
 Alpha virt. eigenvalues --    4.42545   4.42960   4.43876   4.45353   4.46952
 Alpha virt. eigenvalues --    4.48539   4.48677   4.49726   4.50125   4.52632
 Alpha virt. eigenvalues --    4.54317   4.55535   4.57517   4.58350   4.59741
 Alpha virt. eigenvalues --    4.61286   4.63165   4.63872   4.65012   4.66376
 Alpha virt. eigenvalues --    4.67147   4.68178   4.68391   4.69858   4.70914
 Alpha virt. eigenvalues --    4.71922   4.72347   4.73457   4.77406   4.77936
 Alpha virt. eigenvalues --    4.80196   4.82924   4.83446   4.83709   4.86420
 Alpha virt. eigenvalues --    4.88029   4.89426   4.90989   4.92066   4.92424
 Alpha virt. eigenvalues --    4.93376   4.94573   4.97724   5.00220   5.00769
 Alpha virt. eigenvalues --    5.01929   5.03214   5.04451   5.07835   5.08454
 Alpha virt. eigenvalues --    5.10477   5.11113   5.12551   5.16517   5.17254
 Alpha virt. eigenvalues --    5.18661   5.20908   5.23513   5.24661   5.25080
 Alpha virt. eigenvalues --    5.25871   5.29062   5.31100   5.31442   5.32341
 Alpha virt. eigenvalues --    5.32800   5.34007   5.34416   5.36849   5.39743
 Alpha virt. eigenvalues --    5.41368   5.41417   5.42093   5.46400   5.47090
 Alpha virt. eigenvalues --    5.47294   5.49870   5.51991   5.53079   5.54480
 Alpha virt. eigenvalues --    5.56575   5.57405   5.59706   5.60486   5.61976
 Alpha virt. eigenvalues --    5.65487   5.65541   5.68024   5.71735   5.75450
 Alpha virt. eigenvalues --    5.78465   5.81001   5.81720   5.82899   5.83277
 Alpha virt. eigenvalues --    5.85912   5.87109   5.88390   5.89564   6.00880
 Alpha virt. eigenvalues --    6.08092   6.08955   6.15727   6.29642   6.37380
 Alpha virt. eigenvalues --    6.39983   6.43249   6.45783   6.48085   6.48681
 Alpha virt. eigenvalues --    6.56318   6.62980   6.70075   6.74645   6.80545
 Alpha virt. eigenvalues --    6.81840   6.82835   6.84970   6.93307   6.93441
 Alpha virt. eigenvalues --    7.02154   7.24030   7.30197   7.42290   7.48773
 Alpha virt. eigenvalues --   16.27053  22.26843  22.35034  22.39022  22.46979
 Alpha virt. eigenvalues --   22.51002  22.64745  22.65583  22.67562  22.68022
 Alpha virt. eigenvalues --   22.70926  22.72567  22.74117  22.76571  22.81252
 Alpha virt. eigenvalues --   22.83469  22.85542  22.93951  22.97134  23.00143
 Alpha virt. eigenvalues --   23.05482  23.13031  23.20412  23.31919  23.36108
 Alpha virt. eigenvalues --   23.41539  23.74074  33.34961  43.56619  43.66473
 Alpha virt. eigenvalues --   44.25943
          Condensed to atoms (all electrons):
 Mulliken charges:
               1
     1  C   -0.125802
     2  C   -0.189461
     3  C    0.113136
     4  C    0.087377
     5  C   -0.212314
     6  C   -0.160076
     7  C    0.256124
     8  C    0.085769
     9  C    0.115149
    10  C   -0.189167
    11  H    0.204378
    12  C   -0.126518
    13  C   -0.160215
    14  C   -0.208983
    15  H    0.186099
    16  H    0.204487
    17  H    0.207457
    18  H    0.180153
    19  H    0.186036
    20  H    0.179957
    21  H    0.208397
    22  N    0.149083
    23  C   -0.032224
    24  C   -0.271102
    25  C   -0.223110
    26  C    0.012612
    27  C   -0.165389
    28  C   -0.221841
    29  H    0.171648
    30  H    0.175861
    31  H    0.182554
    32  C   -0.053392
    33  C   -0.207225
    34  C   -0.188496
    35  C   -0.228384
    36  H    0.178088
    37  C   -0.189036
    38  H    0.174326
    39  C    0.314011
    40  H    0.184684
    41  H    0.163544
    42  O   -0.266819
    43  C   -0.253657
    44  H    0.165813
    45  H    0.153601
    46  H    0.153651
    47  H    0.157424
    48  B    0.315293
    49  O   -0.443768
    50  O   -0.461088
    51  H    0.356343
    52  H    0.355013
 Sum of Mulliken charges =   1.00000
[...]
 Alpha virt. eigenvalues --    0.58105   0.58605   0.58765   0.59407   0.59762
 Alpha virt. eigenvalues --    0.60236   0.60468   0.61124   0.61331   0.61642
 Alpha virt. eigenvalues --    0.63092   0.63311   0.64126   0.64185   0.64710
 Alpha virt. eigenvalues --    0.65514   0.65749   0.66042   0.66226   0.66944
 Alpha virt. eigenvalues --    0.67843   0.68065   0.68210   0.68519   0.68732
 Alpha virt. eigenvalues --    0.69657   0.70007   0.70300   0.70320   0.70886
 Alpha virt. eigenvalues --    0.71125   0.71576   0.71889   0.72119   0.72357
 Alpha virt. eigenvalues --    0.72775   0.73266   0.73496   0.74024   0.74459
 Alpha virt. eigenvalues --    0.74957   0.75491   0.75606   0.75986   0.76711
 Alpha virt. eigenvalues --    0.77112   0.77356   0.77991   0.78090   0.78172
 Alpha virt. eigenvalues --    0.79027   0.79178   0.79805   0.79828   0.80551
 Alpha virt. eigenvalues --    0.80730   0.80752   0.81064   0.81446   0.82010
 Alpha virt. eigenvalues --    0.82249   0.82967   0.83895   0.84206   0.85152
 Alpha virt. eigenvalues --    0.85656   0.85889   0.86186   0.86972   0.87368
 Alpha virt. eigenvalues --    0.88195   0.88353   0.88772   0.89072   0.89516
 Alpha virt. eigenvalues --    0.89996   0.90671   0.90883   0.91426   0.92007
 Alpha virt. eigenvalues --    0.92439   0.92536   0.93254   0.93467   0.93606
 Alpha virt. eigenvalues --    0.94001   0.94558   0.95106   0.95391   0.95627
 Alpha virt. eigenvalues --    0.96746   0.97547   0.97733   0.98728   0.99178
 Alpha virt. eigenvalues --    0.99351   1.00228   1.00490   1.01414   1.01845
 Alpha virt. eigenvalues --    1.02191   1.03803   1.03991   1.04033   1.04589
 Alpha virt. eigenvalues --    1.05745   1.05998   1.06681   1.07631   1.08136
 Alpha virt. eigenvalues --    1.08739   1.09721   1.09861   1.10519   1.10932
 Alpha virt. eigenvalues --    1.11598   1.12661   1.13394   1.13479   1.13579
 Alpha virt. eigenvalues --    1.14177   1.14359   1.15001   1.16105   1.16434
 Alpha virt. eigenvalues --    1.16934   1.18003   1.18568   1.19281   1.20027
 Alpha virt. eigenvalues --    1.21624   1.21800   1.22418   1.22569   1.23001
 Alpha virt. eigenvalues --    1.23427   1.24090   1.25237   1.25774   1.26626
 Alpha virt. eigenvalues --    1.27176   1.27608   1.28231   1.28771   1.29381
 Alpha virt. eigenvalues --    1.29886   1.30170   1.30886   1.31034   1.31546
 Alpha virt. eigenvalues --    1.32144   1.32646   1.33560   1.34124   1.34299
 Alpha virt. eigenvalues --    1.34866   1.34994   1.36189   1.36375   1.36802
 Alpha virt. eigenvalues --    1.37472   1.38168   1.38411   1.38486   1.39434
 Alpha virt. eigenvalues --    1.39592   1.40786   1.41594   1.41872   1.42794
 Alpha virt. eigenvalues --    1.42951   1.44552   1.45416   1.45593   1.45877
 Alpha virt. eigenvalues --    1.46711   1.47382   1.47937   1.48946   1.49178
 Alpha virt. eigenvalues --    1.49655   1.49950   1.50285   1.51252   1.52499
 Alpha virt. eigenvalues --    1.53203   1.53778   1.54332   1.54863   1.55725
 Alpha virt. eigenvalues --    1.55810   1.56340   1.56798   1.57410   1.58209
 Alpha virt. eigenvalues --    1.58381   1.58900   1.59012   1.59722   1.60365
 Alpha virt. eigenvalues --    1.60479   1.60658   1.61368   1.61928   1.62155
 Alpha virt. eigenvalues --    1.62836   1.63413   1.63510   1.63813   1.64220
 Alpha virt. eigenvalues --    1.64562   1.64655   1.65031   1.65450   1.66399
 Alpha virt. eigenvalues --    1.66966   1.67218   1.67911   1.69206   1.69421
 Alpha virt. eigenvalues --    1.69949   1.70140   1.70682   1.70878   1.71525
 Alpha virt. eigenvalues --    1.71895   1.72910   1.73180   1.73777   1.74166
 Alpha virt. eigenvalues --    1.74545   1.75106   1.75590   1.76132   1.76197
 Alpha virt. eigenvalues --    1.76660   1.76851   1.77004   1.78123   1.78652
 Alpha virt. eigenvalues --    1.79387   1.79976   1.80195   1.80970   1.81383
 Alpha virt. eigenvalues --    1.81941   1.82261   1.82545   1.82953   1.83808
 Alpha virt. eigenvalues --    1.84254   1.84955   1.85406   1.86551   1.86800
 Alpha virt. eigenvalues --    1.87893   1.88383   1.89498   1.90175   1.90571
 Alpha virt. eigenvalues --    1.91772   1.92120   1.93502   1.93776   1.94267
 Alpha virt. eigenvalues --    1.95222   1.95743   1.96181   1.96294   1.96521
 Alpha virt. eigenvalues --    1.96839   1.98060   1.98791   1.99549   2.00265
 Alpha virt. eigenvalues --    2.01530   2.02047   2.02209   2.03424   2.03647
 Alpha virt. eigenvalues --    2.03679   2.04182   2.05590   2.06205   2.07801
 Alpha virt. eigenvalues --    2.08214   2.09126   2.09635   2.10344   2.10910
 Alpha virt. eigenvalues --    2.11661   2.12446   2.12534   2.12953   2.13913
 Alpha virt. eigenvalues --    2.14298   2.14912   2.15015   2.17353   2.17733
 Alpha virt. eigenvalues --    2.18035   2.18323   2.18756   2.18951   2.19587
 Alpha virt. eigenvalues --    2.20950   2.21616   2.22361   2.22867   2.23289
 Alpha virt. eigenvalues --    2.24196   2.24458   2.24890   2.25414   2.25971
 Alpha virt. eigenvalues --    2.27625   2.28703   2.29007   2.29382   2.29782
 Alpha virt. eigenvalues --    2.30595   2.31441   2.32199   2.32818   2.32919
 Alpha virt. eigenvalues --    2.33812   2.34901   2.35872   2.36071   2.36673
 Alpha virt. eigenvalues --    2.36887   2.37455   2.38368   2.38932   2.39119
 Alpha virt. eigenvalues --    2.39425   2.40414   2.41916   2.42201   2.42420
 Alpha virt. eigenvalues --    2.43472   2.45473   2.46163   2.46711   2.47717
 Alpha virt. eigenvalues --    2.48071   2.48924   2.49153   2.50190   2.50898
 Alpha virt. eigenvalues --    2.51752   2.52570   2.53025   2.54462   2.55296
 Alpha virt. eigenvalues --    2.55556   2.56418   2.56547   2.58127   2.58281
 Alpha virt. eigenvalues --    2.58622   2.60160   2.60406   2.60783   2.60969
 Alpha virt. eigenvalues --    2.62004   2.62208   2.63422   2.63817   2.64581
 Alpha virt. eigenvalues --    2.64973   2.65749   2.66311   2.67040   2.68145
 Alpha virt. eigenvalues --    2.68397   2.68540   2.69061   2.69339   2.69673
 Alpha virt. eigenvalues --    2.70310   2.70999   2.71813   2.72279   2.72425
 Alpha virt. eigenvalues --    2.73330   2.73570   2.73988   2.74044   2.74798
 Alpha virt. eigenvalues --    2.75581   2.76480   2.76843   2.77026   2.77463
 Alpha virt. eigenvalues --    2.77824   2.78154   2.78434   2.78891   2.79062
 Alpha virt. eigenvalues --    2.79248   2.79849   2.79905   2.80479   2.81400
 Alpha virt. eigenvalues --    2.81610   2.82042   2.82733   2.83248   2.83669
 Alpha virt. eigenvalues --    2.84005   2.84371   2.84607   2.85257   2.85525
 Alpha virt. eigenvalues --    2.85739   2.85998   2.86720   2.87200   2.87929
 Alpha virt. eigenvalues --    2.88060   2.88826   2.89381   2.89709   2.90163
 Alpha virt. eigenvalues --    2.90436   2.91097   2.91251   2.91810   2.92038
 Alpha virt. eigenvalues --    2.92441   2.93026   2.93478   2.93744   2.94779
 Alpha virt. eigenvalues --    2.95561   2.95826   2.96312   2.96923   2.97100
 Alpha virt. eigenvalues --    2.97798   2.98449   2.98780   2.99235   2.99283
 Alpha virt. eigenvalues --    3.00187   3.00516   3.01346   3.01448   3.02189
 Alpha virt. eigenvalues --    3.02559   3.03743   3.03866   3.04704   3.04955
 Alpha virt. eigenvalues --    3.05329   3.05987   3.06393   3.07384   3.07977
 Alpha virt. eigenvalues --    3.08817   3.09187   3.09812   3.10257   3.10356
 Alpha virt. eigenvalues --    3.11297   3.11369   3.11983   3.13036   3.13468
 Alpha virt. eigenvalues --    3.13690   3.14658   3.14897   3.16196   3.16694
 Alpha virt. eigenvalues --    3.17212   3.17771   3.18186   3.18387   3.18952
 Alpha virt. eigenvalues --    3.19350   3.19877   3.20044   3.20270   3.21307
 Alpha virt. eigenvalues --    3.21772   3.22364   3.22615   3.22952   3.23014
 Alpha virt. eigenvalues --    3.23760   3.24050   3.25227   3.25575   3.25970
 Alpha virt. eigenvalues --    3.26556   3.26890   3.27063   3.27838   3.28402
 Alpha virt. eigenvalues --    3.28986   3.29105   3.29375   3.30154   3.31069
 Alpha virt. eigenvalues --    3.31199   3.31801   3.32053   3.32648   3.33218
 Alpha virt. eigenvalues --    3.33550   3.34016   3.34594   3.35191   3.36342
 Alpha virt. eigenvalues --    3.36576   3.36810   3.37236   3.37549   3.37914
 Alpha virt. eigenvalues --    3.38146   3.39038   3.39663   3.40040   3.40726
 Alpha virt. eigenvalues --    3.40818   3.41308   3.41631   3.42610   3.42841
 Alpha virt. eigenvalues --    3.43434   3.43706   3.44433   3.44721   3.44911
 Alpha virt. eigenvalues --    3.45654   3.45968   3.46215   3.46588   3.46923
 Alpha virt. eigenvalues --    3.48020   3.48262   3.48563   3.49606   3.49944
 Alpha virt. eigenvalues --    3.50272   3.50826   3.51415   3.51929   3.52314
 Alpha virt. eigenvalues --    3.52990   3.53472   3.53683   3.54091   3.54351
 Alpha virt. eigenvalues --    3.54734   3.55279   3.56179   3.56267   3.57108
 Alpha virt. eigenvalues --    3.57629   3.57867   3.59021   3.59094   3.59501
 Alpha virt. eigenvalues --    3.60167   3.60439   3.60735   3.61054   3.61607
 Alpha virt. eigenvalues --    3.61960   3.62128   3.62778   3.63004   3.63328
 Alpha virt. eigenvalues --    3.63828   3.65082   3.65452   3.65780   3.65835
 Alpha virt. eigenvalues --    3.67070   3.67338   3.67701   3.68493   3.69008
 Alpha virt. eigenvalues --    3.70206   3.72295   3.73078   3.73419   3.74258
 Alpha virt. eigenvalues --    3.75563   3.76014   3.76650   3.77305   3.77665
 Alpha virt. eigenvalues --    3.78668   3.79405   3.80409   3.81681   3.83483
 Alpha virt. eigenvalues --    3.84891   3.85285   3.87094   3.87663   3.88232
 Alpha virt. eigenvalues --    3.88723   3.90364   3.91442   3.92110   3.93760
 Alpha virt. eigenvalues --    3.94717   3.95878   3.96450   3.97185   3.97962
 Alpha virt. eigenvalues --    3.99079   4.00188   4.00724   4.02789   4.03012
 Alpha virt. eigenvalues --    4.04013   4.04389   4.05240   4.05635   4.07857
 Alpha virt. eigenvalues --    4.08071   4.09062   4.09289   4.09819   4.10977
 Alpha virt. eigenvalues --    4.12444   4.13425   4.13703   4.15304   4.15771
 Alpha virt. eigenvalues --    4.15962   4.17076   4.17762   4.18232   4.18824
 Alpha virt. eigenvalues --    4.19723   4.21360   4.22845   4.23250   4.23583
 Alpha virt. eigenvalues --    4.23768   4.24256   4.24472   4.26065   4.26941
 Alpha virt. eigenvalues --    4.27605   4.28115   4.28462   4.29514   4.30040
 Alpha virt. eigenvalues --    4.30291   4.31032   4.31386   4.31486   4.32305
 Alpha virt. eigenvalues --    4.32759   4.33038   4.33183   4.34092   4.34791
 Alpha virt. eigenvalues --    4.35089   4.35829   4.37643   4.38377   4.38986
 Alpha virt. eigenvalues --    4.40281   4.41099   4.42243   4.43352   4.43810
 Alpha virt. eigenvalues --    4.46095   4.46212   4.46790   4.48826   4.51293
 Alpha virt. eigenvalues --    4.51716   4.52341   4.52768   4.54538   4.56282
 Alpha virt. eigenvalues --    4.56919   4.58649   4.60555   4.61276   4.63682
 Alpha virt. eigenvalues --    4.64621   4.66548   4.67272   4.68895   4.69892
 Alpha virt. eigenvalues --    4.70862   4.71274   4.71652   4.72011   4.74303
 Alpha virt. eigenvalues --    4.75156   4.75619   4.76413   4.79392   4.81645
 Alpha virt. eigenvalues --    4.82185   4.85652   4.87297   4.88065   4.88283
 Alpha virt. eigenvalues --    4.91104   4.91738   4.92309   4.95005   4.95998
 Alpha virt. eigenvalues --    4.96725   4.97445   4.99934   5.01947   5.03291
 Alpha virt. eigenvalues --    5.04372   5.05123   5.07650   5.10309   5.10999
 Alpha virt. eigenvalues --    5.12546   5.14140   5.14682   5.22121   5.23126
 Alpha virt. eigenvalues --    5.23434   5.24473   5.24717   5.27256   5.28247
 Alpha virt. eigenvalues --    5.29158   5.32032   5.32151   5.34386   5.36107
 Alpha virt. eigenvalues --    5.36679   5.37102   5.39173   5.39812   5.41561
 Alpha virt. eigenvalues --    5.42452   5.42628   5.46258   5.46932   5.48970
 Alpha virt. eigenvalues --    5.50410   5.51220   5.53380   5.54166   5.54416
 Alpha virt. eigenvalues --    5.58216   5.60871   5.61713   5.62269   5.65608
 Alpha virt. eigenvalues --    5.67658   5.67944   5.68391   5.71981   5.78419
 Alpha virt. eigenvalues --    5.80076   5.81328   5.83200   5.86219   5.86570
 Alpha virt. eigenvalues --    5.88485   5.89297   5.90873   5.94605   5.99329
 Alpha virt. eigenvalues --    6.08246   6.13494   6.18307   6.33466   6.38151
 Alpha virt. eigenvalues --    6.40611   6.44221   6.45722   6.48326   6.55488
 Alpha virt. eigenvalues --    6.56268   6.63076   6.70893   6.74572   6.80405
 Alpha virt. eigenvalues --    6.82346   6.83207   6.85848   6.92914   6.93855
 Alpha virt. eigenvalues --    7.02558   7.24470   7.30979   7.41731   7.49359
 Alpha virt. eigenvalues --   16.29597  22.31636  22.36938  22.43092  22.49900
 Alpha virt. eigenvalues --   22.56400  22.70917  22.71317  22.73686  22.75393
 Alpha virt. eigenvalues --   22.79455  22.81273  22.81556  22.84531  22.87137
 Alpha virt. eigenvalues --   22.90610  22.91417  23.02048  23.04278  23.09175
 Alpha virt. eigenvalues --   23.12412  23.20523  23.30400  23.41519  23.44450
 Alpha virt. eigenvalues --   23.51126  23.84644  33.38575  43.57287  43.66810
 Alpha virt. eigenvalues --   44.25761
          Condensed to atoms (all electrons):
 Mulliken charges:
               1
     1  C   -0.122843
     2  C   -0.188020
     3  C    0.108902
     4  C    0.108127
     5  C   -0.210348
     6  C   -0.158213
     7  C    0.253339
     8  C    0.103762
     9  C    0.112111
    10  C   -0.188564
    11  H    0.200919
    12  C   -0.123003
    13  C   -0.158997
    14  C   -0.204752
    15  H    0.183304
    16  H    0.200818
    17  H    0.201971
    18  H    0.177539
    19  H    0.183327
    20  H    0.177344
    21  H    0.202037
    22  N    0.160346
    23  C   -0.090447
    24  C   -0.241880
    25  C   -0.187130
    26  C    0.023224
    27  C   -0.176906
    28  C   -0.214879
    29  H    0.168480
    30  H    0.165534
    31  H    0.174308
    32  C   -0.046874
    33  C   -0.211917
    34  C   -0.189032
    35  C   -0.222452
    36  H    0.175316
    37  C   -0.188423
    38  H    0.171507
    39  C    0.325899
    40  H    0.182658
    41  H    0.161465
    42  O   -0.273933
    43  C   -0.252029
    44  H    0.164356
    45  H    0.153293
    46  H    0.153570
    47  H    0.152152
    48  B    0.309447
    49  O   -0.445622
    50  O   -0.465282
    51  H    0.352009
    52  H    0.354483
 Sum of Mulliken charges =   1.00000
 Mulliken charges with hydrogens summed into heavy atoms:
               1
     1  C    0.060461
     2  C    0.012798
     3  C    0.108902
     4  C    0.108127
     5  C   -0.008377
     6  C    0.019326
     7  C    0.253339
     8  C    0.103762
     9  C    0.112111
    10  C    0.012355
    12  C    0.060324
    13  C    0.018346
    14  C   -0.002715
    22  N    0.160346
    23  C   -0.090447
    24  C   -0.076346
    25  C   -0.012822
    26  C    0.023224
    27  C   -0.008425
    28  C   -0.062727
    32  C   -0.046874
    33  C   -0.036601
    34  C   -0.017525
    35  C   -0.039794
    37  C   -0.026958
    39  C    0.325899
    42  O   -0.273933
    43  C    0.219191
    48  B    0.309447
    49  O   -0.093613
    50  O   -0.110799
 Electronic spatial extent (au):  <R**2>=          15819.4955
 Charge=              1.0000 electrons
 Dipole moment (field-independent basis, Debye):
    X=             -2.2609    Y=              1.1562    Z=             -0.7388  Tot=              2.6447
 Quadrupole moment (field-independent basis, Debye-Ang):
   XX=            -98.6690   YY=           -143.0426   ZZ=           -163.4630
   XY=              7.5753   XZ=            -22.8675   YZ=             -0.2138
 Traceless Quadrupole moment (field-independent basis, Debye-Ang):
   XX=             36.3892   YY=             -7.9844   ZZ=            -28.4048
   XY=              7.5753   XZ=            -22.8675   YZ=             -0.2138
 Octapole moment (field-independent basis, Debye-Ang**2):
  XXX=            -21.0837  YYY=              3.6669  ZZZ=             31.1492  XYY=             -1.6456
  XXY=              9.2800  XXZ=             68.2056  XZZ=            -21.0183  YZZ=            -10.6298
  YYZ=             -0.6464  XYZ=            -11.8166
 Hexadecapole moment (field-independent basis, Debye-Ang**3):
 XXXX=         -12788.1840 YYYY=          -2565.4859 ZZZZ=          -1219.6589 XXXY=            402.1609
 XXXZ=          -1087.4180 YYYX=            -68.4801 YYYZ=            113.6460 ZZZX=            100.5313
 ZZZY=           -118.1368 XXYY=          -3222.2566 XXZZ=          -2555.3689 YYZZ=           -762.1614
 XXYZ=           -186.7643 YYXZ=             16.6789 ZZXY=            -30.9847
 N-N= 2.794606430063D+03 E-N=-8.610548607443D+03  KE= 1.302989296590D+03
 Leave Link  601 at Thu Feb 25 00:55:58 2021, MaxMem=  5242880000 cpu:        14.6
 (Enter /opt/nce/packages/global/g09/l9999.exe)
 1\1\GINC-CN006\SP\RCAM-B3LYP TD-FC\Gen\C26H21B1N1O3(1+)\PNG4RJV\25-Feb
 -2021\0\\#p cam-b3lyp chkbasis geom=allcheck Guess=Read int=ultrafine 
 scrf=(SMD,solvent=Acetonitrile) td=(NStates=30) EmpiricalDispersion=GD
 3BJ\\Title\\1,1\C,0,1.0561366392,3.6221729455,-0.5126004911\C,0,1.6643
 075057,2.4237602406,-0.2938965843\C,0,0.8866082857,1.288917622,0.01395
 45132\C,0,-0.5239710214,1.4109412791,0.1106191129\C,0,-1.1123927313,2.
 6796449717,-0.1441392176\C,0,-0.3455606251,3.7566264035,-0.4464931693\
 C,0,-1.2923869172,0.286229064,0.4352367058\C,0,-0.6596716846,-0.944334
 7718,0.6497862552\C,0,0.7506933453,-1.036321012,0.5212617815\C,0,1.388
 7252054,-2.2777074408,0.7191318\H,0,2.4582386417,-2.3571117205,0.61232
 52451\C,0,0.6500819763,-3.3733465965,1.0478350938\C,0,-0.7488512492,-3
 .2957322084,1.204033158\C,0,-1.3840462484,-2.1131566712,1.0106402063\H
 ,0,1.6631807463,4.4860927433,-0.7483758318\H,0,2.7369558939,2.34065715
 39,-0.3577092463\H,0,-2.186398757,2.7720351311,-0.0978678562\H,0,-0.80
 30332392,4.7168499088,-0.6397730569\H,0,1.1508674272,-4.3205071897,1.1
 980790564\H,0,-1.3083637263,-4.178718088,1.4796132588\H,0,-2.453693102
 3,-2.0427407967,1.1341434129\N,0,1.4744672961,0.0760161187,0.213007950
 7\C,0,-2.7653732295,0.3950972214,0.5467804733\C,0,-3.5791913284,-0.177
 9470152,-0.419366311\C,0,-3.3397359845,1.0682543773,1.6180059265\C,0,-
 4.9671062623,-0.0850497549,-0.3452880626\C,0,-4.7166294158,1.157875315
 6,1.7157730651\C,0,-5.5198042966,0.5906002031,0.7411717313\H,0,-5.1629
 302279,1.6745393698,2.5550419522\H,0,-3.1242785444,-0.7026176154,-1.24
 93201591\H,0,-2.7084063198,1.5151327171,2.3749522487\C,0,2.9104311686,
 -0.0340950412,0.0938693228\C,0,3.4705792147,-0.3049156846,-1.134727184
 6\C,0,3.702669469,0.1352230735,1.2167989202\C,0,4.8464052921,-0.409313
 4811,-1.2592234518\H,0,2.8353772568,-0.4344713466,-2.0010383429\C,0,5.
 0705708664,0.0320074725,1.1010464802\H,0,3.2455434098,0.3468163969,2.1
 743881595\C,0,5.6511978441,-0.2398883184,-0.1377667188\H,0,5.275578184
 1,-0.6206771558,-2.2263158324\H,0,5.7108319756,0.1600187967,1.96319512
 8\O,0,6.9952672154,-0.3205743829,-0.1557435464\C,0,7.6408908721,-0.594
 6214115,-1.3914117799\H,0,8.7056496234,-0.6123257408,-1.1752670334\H,0
 ,7.3350931024,-1.5642599859,-1.7891302992\H,0,7.4326265856,0.185489655
 4,-2.1260570984\H,0,-6.5949318113,0.6815156289,0.8448706473\B,0,-5.847
 4731294,-0.7428942599,-1.4626169894\O,0,-7.2066528727,-0.6529932189,-1
 .5161105914\O,0,-5.2181068807,-1.4508677489,-2.4413891208\H,0,-7.61425
 84359,-0.1312622379,-0.8164083395\H,0,-5.8268990016,-1.8198589149,-3.0
 932462908\\Version=ES64L-G09RevE.01\State=1-A\HF=-1308.5605092\RMSD=9.
 169e-09\PG=C01 [X(C26H21B1N1O3)]\\@


 ALTHOUGH J.J. COULD DIAGNOSE THE FAULTS OF AN
 APPARATUS WITH UNCANNY ACCURACY, IT WAS JUST AS
 WELL NOT TO LET HIM HANDLE IT.
   -- GEORGE THOMPSON, ABOUT HIS FATHER
 Job cpu time:       2 days 10 hours 10 minutes 44.6 seconds.
 File lengths (MBytes):  RWF=   5839 Int=      0 D2E=      0 Chk=   1054 Scr=      1
 Normal termination of Gaussian 09 at Thu Feb 25 00:56:01 2021.
