 Entering Gaussian System, Link 0=g09
 Input=/home/png4rjv/fotokatalizis/benchmark/OPCs/BOH-Acr_m_wB97XD_def2TZVP.gjf
 Output=/home/png4rjv/fotokatalizis/benchmark/OPCs/BOH-Acr_m_wB97XD_def2TZVP.log
 Initial command:
 /opt/nce/packages/global/g09/l1.exe "/home/png4rjv/fotokatalizis/benchmark/OPCs/BOH-Acr_m_wB97XD_def2TZVP/Gau-18469.inp" -scrdir="/home/png4rjv/fotokatalizis/benchmark/OPCs/BOH-Acr_m_wB97XD_def2TZVP/"
 Default is to use a total of  12 processors:
                               12 via shared-memory
                                1 via Linda
 Entering Link 1 = /opt/nce/packages/global/g09/l1.exe PID=     18470.
  
 Copyright (c) 1988,1990,1992,1993,1995,1998,2003,2009,2015,
            Gaussian, Inc.  All Rights Reserved.
  
 This is part of the Gaussian(R) 09 program.  It is based on
 the Gaussian(R) 03 system (copyright 2003, Gaussian, Inc.),
 the Gaussian(R) 98 system (copyright 1998, Gaussian, Inc.),
 the Gaussian(R) 94 system (copyright 1995, Gaussian, Inc.),
 the Gaussian 92(TM) system (copyright 1992, Gaussian, Inc.),
 the Gaussian 90(TM) system (copyright 1990, Gaussian, Inc.),
 the Gaussian 88(TM) system (copyright 1988, Gaussian, Inc.),
 the Gaussian 86(TM) system (copyright 1986, Carnegie Mellon
 University), and the Gaussian 82(TM) system (copyright 1983,
 Carnegie Mellon University). Gaussian is a federally registered
 trademark of Gaussian, Inc.
  
 This software contains proprietary and confidential information,
 including trade secrets, belonging to Gaussian, Inc.
  
 This software is provided under written license and may be
 used, copied, transmitted, or stored only in accord with that
 written license.
  
 The following legend is applicable only to US Government
 contracts under FAR:
  
                    RESTRICTED RIGHTS LEGEND
  
 Use, reproduction and disclosure by the US Government is
 subject to restrictions as set forth in subparagraphs (a)
 and (c) of the Commercial Computer Software - Restricted
 Rights clause in FAR 52.227-19.
  
 Gaussian, Inc.
 340 Quinnipiac St., Bldg. 40, Wallingford CT 06492
  
  
 ---------------------------------------------------------------
 Warning -- This program may not be used in any manner that
 competes with the business of Gaussian, Inc. or will provide
 assistance to any competitor of Gaussian, Inc.  The licensee
 of this program is prohibited from giving any competitor of
 Gaussian, Inc. access to this program.  By using this program,
 the user acknowledges that Gaussian, Inc. is engaged in the
 business of creating and licensing software in the field of
 computational chemistry and represents and warrants to the
 licensee that it is not a competitor of Gaussian, Inc. and that
 it will not use this program in any manner prohibited above.
 ---------------------------------------------------------------
  

 Cite this work as:
 Gaussian 09, Revision E.01,
 M. J. Frisch, G. W. Trucks, H. B. Schlegel, G. E. Scuseria, 
 M. A. Robb, J. R. Cheeseman, G. Scalmani, V. Barone, B. Mennucci, 
 G. A. Petersson, H. Nakatsuji, M. Caricato, X. Li, H. P. Hratchian, 
 A. F. Izmaylov, J. Bloino, G. Zheng, J. L. Sonnenberg, M. Hada, 
 M. Ehara, K. Toyota, R. Fukuda, J. Hasegawa, M. Ishida, T. Nakajima, 
 Y. Honda, O. Kitao, H. Nakai, T. Vreven, J. A. Montgomery, Jr., 
 J. E. Peralta, F. Ogliaro, M. Bearpark, J. J. Heyd, E. Brothers, 
 K. N. Kudin, V. N. Staroverov, T. Keith, R. Kobayashi, J. Normand, 
 K. Raghavachari, A. Rendell, J. C. Burant, S. S. Iyengar, J. Tomasi, 
 M. Cossi, N. Rega, J. M. Millam, M. Klene, J. E. Knox, J. B. Cross, 
 V. Bakken, C. Adamo, J. Jaramillo, R. Gomperts, R. E. Stratmann, 
 O. Yazyev, A. J. Austin, R. Cammi, C. Pomelli, J. W. Ochterski, 
 R. L. Martin, K. Morokuma, V. G. Zakrzewski, G. A. Voth, 
 P. Salvador, J. J. Dannenberg, S. Dapprich, A. D. Daniels, 
 O. Farkas, J. B. Foresman, J. V. Ortiz, J. Cioslowski, 
 and D. J. Fox, Gaussian, Inc., Wallingford CT, 2013.
 
 ******************************************
 Gaussian 09:  ES64L-G09RevE.01 30-Nov-2015
                31-Mar-2021 
 ******************************************
 %chk=cp.chk
 Default route:  MaxDisk=500GB
 ----------------------------------------------------------------------
 #p wB97XD/def2TZVP opt freq=noraman nosymm int=ultrafine scrf=(SMD,sol
 vent=Acetonitrile)
 ----------------------------------------------------------------------
 1/14=-1,18=20,19=15,26=4,38=1/1,3;
 2/9=110,12=2,15=1,17=6,18=5,40=1/2;
 3/5=44,7=101,11=2,16=1,25=1,30=1,70=32201,71=1,72=2,74=-58,75=-5/1,2,3;
 4//1;
 5/5=2,38=5,53=2/2;
 6/7=2,8=2,9=2,10=2,28=1/1;
 7/30=1/1,2,3,16;
 1/14=-1,18=20,19=15,26=4/3(2);
 2/9=110,15=1/2;
 99//99;
 2/9=110,15=1/2;
 3/5=44,7=101,11=2,16=1,25=1,30=1,70=32205,71=1,72=2,74=-58,75=-5/1,2,3;
 4/5=5,16=3,69=1/1;
 5/5=2,38=5,53=2/2;
 7/30=1/1,2,3,16;
 1/14=-1,18=20,19=15,26=4/3(-5);
 2/9=110,15=1/2;
 6/7=2,8=2,9=2,10=2,19=2,28=1/1;
 99/9=1/99;
 Leave Link    1 at Wed Mar 31 11:57:09 2021, MaxMem=           0 cpu:         0.8
 (Enter /opt/nce/packages/global/g09/l101.exe)
 -----
 Title
 -----
 Symbolic Z-matrix:
 Charge =  1 Multiplicity = 1
 C                     1.09453   3.68941  -0.43548 
 C                     1.69576   2.46377  -0.24153 
 C                     0.90048   1.32237   0.02896 
 C                    -0.52643   1.45504   0.12255 
 C                    -1.10299   2.74127  -0.11549 
 C                    -0.31431   3.833    -0.38455 
 C                    -1.31826   0.31625   0.41505 
 C                    -0.68643  -0.94029   0.59126 
 C                     0.74037  -1.04164   0.45918 
 C                     1.37297  -2.2995    0.61813 
 H                     2.45224  -2.3776    0.50821 
 C                     0.61846  -3.41465   0.91609 
 C                    -0.78616  -3.32897   1.08151 
 C                    -1.42013  -2.1206    0.92652 
 H                     1.71832   4.56128  -0.64408 
 H                     2.77747   2.36532  -0.29857 
 H                    -2.18714   2.83768  -0.08946 
 H                    -0.76839   4.80834  -0.56693 
 H                     1.11795  -4.37832   1.0372 
 H                    -1.35915  -4.2214    1.33821 
 H                    -2.49723  -2.04248   1.06359 
 N                     1.48124   0.08616   0.19133 
 C                    -2.7905    0.43578   0.53206 
 C                    -3.62567  -0.23348  -0.37526 
 C                    -3.36344   1.21579   1.55272 
 C                    -5.02388  -0.13314  -0.29503 
 C                    -4.75055   1.30862   1.65979 
 C                    -5.56761   0.64406   0.74133 
 H                    -5.19413   1.89863   2.46449 
 H                    -3.18806  -0.83723  -1.17293 
 H                    -2.72175   1.73      2.27155 
 C                     2.92103  -0.03153   0.08011 
 C                     3.50071  -0.27956  -1.16187 
 C                     3.7164    0.10517   1.22432 
 C                     4.88767  -0.39447  -1.27565 
 H                     2.86932  -0.38443  -2.04652 
 C                     5.09518  -0.00749   1.11797 
 H                     3.25079   0.29923   2.19261 
 C                     5.69733  -0.2587   -0.13273 
 H                     5.32554  -0.58881  -2.25357 
 H                     5.74089   0.09445   1.9913 
 O                     7.03406  -0.35108  -0.13382 
 C                     7.72278  -0.60216  -1.3475 
 H                     8.78946  -0.63357  -1.09528 
 H                     7.42498  -1.56998  -1.78554 
 H                     7.54738   0.20167  -2.08256 
 H                    -6.65256   0.73268   0.85255 
 B                    -5.90914  -0.90346  -1.3534 
 O                    -7.25422  -0.74808  -1.48314 
 O                    -5.26358  -1.77071  -2.17745 
 H                    -7.66223  -0.09129  -0.90831 
 H                    -5.86053  -2.19716  -2.80764 
 
 NAtoms=     52 NQM=       52 NQMF=       0 NMMI=      0 NMMIF=      0
                NMic=       0 NMicF=      0.
                    Isotopes and Nuclear Properties:
 (Nuclear quadrupole moments (NQMom) in fm**2, nuclear magnetic moments (NMagM)
  in nuclear magnetons)

  Atom         1           2           3           4           5           6           7           8           9          10
 IAtWgt=          12          12          12          12          12          12          12          12          12          12
 AtmWgt=  12.0000000  12.0000000  12.0000000  12.0000000  12.0000000  12.0000000  12.0000000  12.0000000  12.0000000  12.0000000
 NucSpn=           0           0           0           0           0           0           0           0           0           0
 AtZEff=   0.0000000   0.0000000   0.0000000   0.0000000   0.0000000   0.0000000   0.0000000   0.0000000   0.0000000   0.0000000
 NQMom=    0.0000000   0.0000000   0.0000000   0.0000000   0.0000000   0.0000000   0.0000000   0.0000000   0.0000000   0.0000000
 NMagM=    0.0000000   0.0000000   0.0000000   0.0000000   0.0000000   0.0000000   0.0000000   0.0000000   0.0000000   0.0000000
 AtZNuc=   6.0000000   6.0000000   6.0000000   6.0000000   6.0000000   6.0000000   6.0000000   6.0000000   6.0000000   6.0000000

  Atom        11          12          13          14          15          16          17          18          19          20
 IAtWgt=           1          12          12          12           1           1           1           1           1           1
 AtmWgt=   1.0078250  12.0000000  12.0000000  12.0000000   1.0078250   1.0078250   1.0078250   1.0078250   1.0078250   1.0078250
 NucSpn=           1           0           0           0           1           1           1           1           1           1
 AtZEff=   0.0000000   0.0000000   0.0000000   0.0000000   0.0000000   0.0000000   0.0000000   0.0000000   0.0000000   0.0000000
 NQMom=    0.0000000   0.0000000   0.0000000   0.0000000   0.0000000   0.0000000   0.0000000   0.0000000   0.0000000   0.0000000
 NMagM=    2.7928460   0.0000000   0.0000000   0.0000000   2.7928460   2.7928460   2.7928460   2.7928460   2.7928460   2.7928460
 AtZNuc=   1.0000000   6.0000000   6.0000000   6.0000000   1.0000000   1.0000000   1.0000000   1.0000000   1.0000000   1.0000000

  Atom        21          22          23          24          25          26          27          28          29          30
 IAtWgt=           1          14          12          12          12          12          12          12           1           1
 AtmWgt=   1.0078250  14.0030740  12.0000000  12.0000000  12.0000000  12.0000000  12.0000000  12.0000000   1.0078250   1.0078250
 NucSpn=           1           2           0           0           0           0           0           0           1           1
 AtZEff=   0.0000000   0.0000000   0.0000000   0.0000000   0.0000000   0.0000000   0.0000000   0.0000000   0.0000000   0.0000000
 NQMom=    0.0000000   2.0440000   0.0000000   0.0000000   0.0000000   0.0000000   0.0000000   0.0000000   0.0000000   0.0000000
 NMagM=    2.7928460   0.4037610   0.0000000   0.0000000   0.0000000   0.0000000   0.0000000   0.0000000   2.7928460   2.7928460
 AtZNuc=   1.0000000   7.0000000   6.0000000   6.0000000   6.0000000   6.0000000   6.0000000   6.0000000   1.0000000   1.0000000

  Atom        31          32          33          34          35          36          37          38          39          40
 IAtWgt=           1          12          12          12          12           1          12           1          12           1
 AtmWgt=   1.0078250  12.0000000  12.0000000  12.0000000  12.0000000   1.0078250  12.0000000   1.0078250  12.0000000   1.0078250
 NucSpn=           1           0           0           0           0           1           0           1           0           1
 AtZEff=   0.0000000   0.0000000   0.0000000   0.0000000   0.0000000   0.0000000   0.0000000   0.0000000   0.0000000   0.0000000
 NQMom=    0.0000000   0.0000000   0.0000000   0.0000000   0.0000000   0.0000000   0.0000000   0.0000000   0.0000000   0.0000000
 NMagM=    2.7928460   0.0000000   0.0000000   0.0000000   0.0000000   2.7928460   0.0000000   2.7928460   0.0000000   2.7928460
 AtZNuc=   1.0000000   6.0000000   6.0000000   6.0000000   6.0000000   1.0000000   6.0000000   1.0000000   6.0000000   1.0000000

  Atom        41          42          43          44          45          46          47          48          49          50
 IAtWgt=           1          16          12           1           1           1           1          11          16          16
 AtmWgt=   1.0078250  15.9949146  12.0000000   1.0078250   1.0078250   1.0078250   1.0078250  11.0093053  15.9949146  15.9949146
 NucSpn=           1           0           0           1           1           1           1           3           0           0
 AtZEff=   0.0000000   0.0000000   0.0000000   0.0000000   0.0000000   0.0000000   0.0000000   0.0000000   0.0000000   0.0000000
 NQMom=    0.0000000   0.0000000   0.0000000   0.0000000   0.0000000   0.0000000   0.0000000   4.0590000   0.0000000   0.0000000
 NMagM=    2.7928460   0.0000000   0.0000000   2.7928460   2.7928460   2.7928460   2.7928460   2.6886370   0.0000000   0.0000000
 AtZNuc=   1.0000000   8.0000000   6.0000000   1.0000000   1.0000000   1.0000000   1.0000000   5.0000000   8.0000000   8.0000000

  Atom        51          52
 IAtWgt=           1           1
 AtmWgt=   1.0078250   1.0078250
 NucSpn=           1           1
 AtZEff=   0.0000000   0.0000000
 NQMom=    0.0000000   0.0000000
 NMagM=    2.7928460   2.7928460
 AtZNuc=   1.0000000   1.0000000
 Leave Link  101 at Wed Mar 31 11:57:10 2021, MaxMem=  5242880000 cpu:         4.0
 (Enter /opt/nce/packages/global/g09/l103.exe)

 GradGradGradGradGradGradGradGradGradGradGradGradGradGradGradGradGradGrad
 Berny optimization.
 Initialization pass.
                           ----------------------------
                           !    Initial Parameters    !
                           ! (Angstroms and Degrees)  !
 --------------------------                            --------------------------
 ! Name  Definition              Value          Derivative Info.                !
 --------------------------------------------------------------------------------
 ! R1    R(1,2)                  1.3789         estimate D2E/DX2                !
 ! R2    R(1,6)                  1.417          estimate D2E/DX2                !
 ! R3    R(1,15)                 1.0922         estimate D2E/DX2                !
 ! R4    R(2,3)                  1.4172         estimate D2E/DX2                !
 ! R5    R(2,16)                 1.0877         estimate D2E/DX2                !
 ! R6    R(3,4)                  1.4361         estimate D2E/DX2                !
 ! R7    R(3,22)                 1.3754         estimate D2E/DX2                !
 ! R8    R(4,5)                  1.4295         estimate D2E/DX2                !
 ! R9    R(4,7)                  1.4175         estimate D2E/DX2                !
 ! R10   R(5,6)                  1.3734         estimate D2E/DX2                !
 ! R11   R(5,17)                 1.0887         estimate D2E/DX2                !
 ! R12   R(6,18)                 1.0912         estimate D2E/DX2                !
 ! R13   R(7,8)                  1.4174         estimate D2E/DX2                !
 ! R14   R(7,23)                 1.4817         estimate D2E/DX2                !
 ! R15   R(8,9)                  1.4365         estimate D2E/DX2                !
 ! R16   R(8,14)                 1.4296         estimate D2E/DX2                !
 ! R17   R(9,10)                 1.4169         estimate D2E/DX2                !
 ! R18   R(9,22)                 1.3757         estimate D2E/DX2                !
 ! R19   R(10,11)                1.0877         estimate D2E/DX2                !
 ! R20   R(10,12)                1.379          estimate D2E/DX2                !
 ! R21   R(12,13)                1.4169         estimate D2E/DX2                !
 ! R22   R(12,19)                1.0922         estimate D2E/DX2                !
 ! R23   R(13,14)                1.3733         estimate D2E/DX2                !
 ! R24   R(13,20)                1.0912         estimate D2E/DX2                !
 ! R25   R(14,21)                1.0886         estimate D2E/DX2                !
 ! R26   R(22,32)                1.4489         estimate D2E/DX2                !
 ! R27   R(23,24)                1.4031         estimate D2E/DX2                !
 ! R28   R(23,25)                1.4066         estimate D2E/DX2                !
 ! R29   R(24,26)                1.4041         estimate D2E/DX2                !
 ! R30   R(24,30)                1.0919         estimate D2E/DX2                !
 ! R31   R(25,27)                1.3943         estimate D2E/DX2                !
 ! R32   R(25,31)                1.0922         estimate D2E/DX2                !
 ! R33   R(26,28)                1.4049         estimate D2E/DX2                !
 ! R34   R(26,48)                1.5803         estimate D2E/DX2                !
 ! R35   R(27,28)                1.3974         estimate D2E/DX2                !
 ! R36   R(27,29)                1.092          estimate D2E/DX2                !
 ! R37   R(28,47)                1.0942         estimate D2E/DX2                !
 ! R38   R(32,33)                1.3929         estimate D2E/DX2                !
 ! R39   R(32,34)                1.4002         estimate D2E/DX2                !
 ! R40   R(33,35)                1.3964         estimate D2E/DX2                !
 ! R41   R(33,36)                1.0919         estimate D2E/DX2                !
 ! R42   R(34,37)                1.3875         estimate D2E/DX2                !
 ! R43   R(34,38)                1.0918         estimate D2E/DX2                !
 ! R44   R(35,39)                1.4072         estimate D2E/DX2                !
 ! R45   R(35,40)                1.089          estimate D2E/DX2                !
 ! R46   R(37,39)                1.4107         estimate D2E/DX2                !
 ! R47   R(37,41)                1.0909         estimate D2E/DX2                !
 ! R48   R(39,42)                1.3399         estimate D2E/DX2                !
 ! R49   R(42,43)                1.4179         estimate D2E/DX2                !
 ! R50   R(43,44)                1.0965         estimate D2E/DX2                !
 ! R51   R(43,45)                1.1033         estimate D2E/DX2                !
 ! R52   R(43,46)                1.1033         estimate D2E/DX2                !
 ! R53   R(48,49)                1.3602         estimate D2E/DX2                !
 ! R54   R(48,50)                1.3594         estimate D2E/DX2                !
 ! R55   R(49,51)                0.9635         estimate D2E/DX2                !
 ! R56   R(50,52)                0.9671         estimate D2E/DX2                !
 ! A1    A(2,1,6)              121.233          estimate D2E/DX2                !
 ! A2    A(2,1,15)             119.1704         estimate D2E/DX2                !
 ! A3    A(6,1,15)             119.5923         estimate D2E/DX2                !
 ! A4    A(1,2,3)              119.8712         estimate D2E/DX2                !
 ! A5    A(1,2,16)             120.4455         estimate D2E/DX2                !
 ! A6    A(3,2,16)             119.6828         estimate D2E/DX2                !
 ! A7    A(2,3,4)              119.7098         estimate D2E/DX2                !
 ! A8    A(2,3,22)             120.6273         estimate D2E/DX2                !
 ! A9    A(4,3,22)             119.6606         estimate D2E/DX2                !
 ! A10   A(3,4,5)              118.2297         estimate D2E/DX2                !
 ! A11   A(3,4,7)              119.6205         estimate D2E/DX2                !
 ! A12   A(5,4,7)              122.1346         estimate D2E/DX2                !
 ! A13   A(4,5,6)              121.0807         estimate D2E/DX2                !
 ! A14   A(4,5,17)             118.5109         estimate D2E/DX2                !
 ! A15   A(6,5,17)             120.4054         estimate D2E/DX2                !
 ! A16   A(1,6,5)              119.8289         estimate D2E/DX2                !
 ! A17   A(1,6,18)             119.886          estimate D2E/DX2                !
 ! A18   A(5,6,18)             120.2834         estimate D2E/DX2                !
 ! A19   A(4,7,8)              119.2631         estimate D2E/DX2                !
 ! A20   A(4,7,23)             120.432          estimate D2E/DX2                !
 ! A21   A(8,7,23)             120.3047         estimate D2E/DX2                !
 ! A22   A(7,8,9)              119.5947         estimate D2E/DX2                !
 ! A23   A(7,8,14)             122.1594         estimate D2E/DX2                !
 ! A24   A(9,8,14)             118.2332         estimate D2E/DX2                !
 ! A25   A(8,9,10)             119.7205         estimate D2E/DX2                !
 ! A26   A(8,9,22)             119.6681         estimate D2E/DX2                !
 ! A27   A(10,9,22)            120.6088         estimate D2E/DX2                !
 ! A28   A(9,10,11)            119.6976         estimate D2E/DX2                !
 ! A29   A(9,10,12)            119.8579         estimate D2E/DX2                !
 ! A30   A(11,10,12)           120.444          estimate D2E/DX2                !
 ! A31   A(10,12,13)           121.2463         estimate D2E/DX2                !
 ! A32   A(10,12,19)           119.1602         estimate D2E/DX2                !
 ! A33   A(13,12,19)           119.5898         estimate D2E/DX2                !
 ! A34   A(12,13,14)           119.8446         estimate D2E/DX2                !
 ! A35   A(12,13,20)           119.9052         estimate D2E/DX2                !
 ! A36   A(14,13,20)           120.2489         estimate D2E/DX2                !
 ! A37   A(8,14,13)            121.0631         estimate D2E/DX2                !
 ! A38   A(8,14,21)            118.5593         estimate D2E/DX2                !
 ! A39   A(13,14,21)           120.3766         estimate D2E/DX2                !
 ! A40   A(3,22,9)             122.1677         estimate D2E/DX2                !
 ! A41   A(3,22,32)            118.9167         estimate D2E/DX2                !
 ! A42   A(9,22,32)            118.9154         estimate D2E/DX2                !
 ! A43   A(7,23,24)            120.1251         estimate D2E/DX2                !
 ! A44   A(7,23,25)            120.449          estimate D2E/DX2                !
 ! A45   A(24,23,25)           119.4257         estimate D2E/DX2                !
 ! A46   A(23,24,26)           121.4466         estimate D2E/DX2                !
 ! A47   A(23,24,30)           119.8402         estimate D2E/DX2                !
 ! A48   A(26,24,30)           118.708          estimate D2E/DX2                !
 ! A49   A(23,25,27)           119.8589         estimate D2E/DX2                !
 ! A50   A(23,25,31)           119.9564         estimate D2E/DX2                !
 ! A51   A(27,25,31)           120.1723         estimate D2E/DX2                !
 ! A52   A(24,26,28)           117.8455         estimate D2E/DX2                !
 ! A53   A(24,26,48)           118.9958         estimate D2E/DX2                !
 ! A54   A(28,26,48)           123.1554         estimate D2E/DX2                !
 ! A55   A(25,27,28)           119.969          estimate D2E/DX2                !
 ! A56   A(25,27,29)           119.7799         estimate D2E/DX2                !
 ! A57   A(28,27,29)           120.2508         estimate D2E/DX2                !
 ! A58   A(26,28,27)           121.4422         estimate D2E/DX2                !
 ! A59   A(26,28,47)           120.2337         estimate D2E/DX2                !
 ! A60   A(27,28,47)           118.3207         estimate D2E/DX2                !
 ! A61   A(22,32,33)           119.7671         estimate D2E/DX2                !
 ! A62   A(22,32,34)           119.5925         estimate D2E/DX2                !
 ! A63   A(33,32,34)           120.6404         estimate D2E/DX2                !
 ! A64   A(32,33,35)           120.0455         estimate D2E/DX2                !
 ! A65   A(32,33,36)           119.926          estimate D2E/DX2                !
 ! A66   A(35,33,36)           120.0285         estimate D2E/DX2                !
 ! A67   A(32,34,37)           119.5991         estimate D2E/DX2                !
 ! A68   A(32,34,38)           119.99           estimate D2E/DX2                !
 ! A69   A(37,34,38)           120.4109         estimate D2E/DX2                !
 ! A70   A(33,35,39)           119.8261         estimate D2E/DX2                !
 ! A71   A(33,35,40)           119.1606         estimate D2E/DX2                !
 ! A72   A(39,35,40)           121.0133         estimate D2E/DX2                !
 ! A73   A(34,37,39)           120.4382         estimate D2E/DX2                !
 ! A74   A(34,37,41)           121.2827         estimate D2E/DX2                !
 ! A75   A(39,37,41)           118.2791         estimate D2E/DX2                !
 ! A76   A(35,39,37)           119.4508         estimate D2E/DX2                !
 ! A77   A(35,39,42)           124.5189         estimate D2E/DX2                !
 ! A78   A(37,39,42)           116.0303         estimate D2E/DX2                !
 ! A79   A(39,42,43)           119.8341         estimate D2E/DX2                !
 ! A80   A(42,43,44)           106.3018         estimate D2E/DX2                !
 ! A81   A(42,43,45)           111.351          estimate D2E/DX2                !
 ! A82   A(42,43,46)           111.3487         estimate D2E/DX2                !
 ! A83   A(44,43,45)           109.194          estimate D2E/DX2                !
 ! A84   A(44,43,46)           109.1939         estimate D2E/DX2                !
 ! A85   A(45,43,46)           109.3719         estimate D2E/DX2                !
 ! A86   A(26,48,49)           124.2055         estimate D2E/DX2                !
 ! A87   A(26,48,50)           116.8044         estimate D2E/DX2                !
 ! A88   A(49,48,50)           118.99           estimate D2E/DX2                !
 ! A89   A(48,49,51)           116.0861         estimate D2E/DX2                !
 ! A90   A(48,50,52)           112.5309         estimate D2E/DX2                !
 ! D1    D(6,1,2,3)             -0.6992         estimate D2E/DX2                !
 ! D2    D(6,1,2,16)           179.0549         estimate D2E/DX2                !
 ! D3    D(15,1,2,3)          -179.9467         estimate D2E/DX2                !
 ! D4    D(15,1,2,16)           -0.1926         estimate D2E/DX2                !
 ! D5    D(2,1,6,5)              1.1059         estimate D2E/DX2                !
 ! D6    D(2,1,6,18)          -178.4132         estimate D2E/DX2                !
 ! D7    D(15,1,6,5)          -179.6498         estimate D2E/DX2                !
 ! D8    D(15,1,6,18)            0.8311         estimate D2E/DX2                !
 ! D9    D(1,2,3,4)             -1.0941         estimate D2E/DX2                !
 ! D10   D(1,2,3,22)           178.3408         estimate D2E/DX2                !
 ! D11   D(16,2,3,4)           179.1498         estimate D2E/DX2                !
 ! D12   D(16,2,3,22)           -1.4152         estimate D2E/DX2                !
 ! D13   D(2,3,4,5)              2.4304         estimate D2E/DX2                !
 ! D14   D(2,3,4,7)           -178.9614         estimate D2E/DX2                !
 ! D15   D(22,3,4,5)          -177.01           estimate D2E/DX2                !
 ! D16   D(22,3,4,7)             1.5982         estimate D2E/DX2                !
 ! D17   D(2,3,22,9)           179.775          estimate D2E/DX2                !
 ! D18   D(2,3,22,32)           -0.0581         estimate D2E/DX2                !
 ! D19   D(4,3,22,9)            -0.7898         estimate D2E/DX2                !
 ! D20   D(4,3,22,32)          179.3771         estimate D2E/DX2                !
 ! D21   D(3,4,5,6)             -2.0566         estimate D2E/DX2                !
 ! D22   D(3,4,5,17)           177.3165         estimate D2E/DX2                !
 ! D23   D(7,4,5,6)            179.3722         estimate D2E/DX2                !
 ! D24   D(7,4,5,17)            -1.2547         estimate D2E/DX2                !
 ! D25   D(3,4,7,8)             -0.9059         estimate D2E/DX2                !
 ! D26   D(3,4,7,23)           179.2549         estimate D2E/DX2                !
 ! D27   D(5,4,7,8)            177.646          estimate D2E/DX2                !
 ! D28   D(5,4,7,23)            -2.1932         estimate D2E/DX2                !
 ! D29   D(4,5,6,1)              0.3192         estimate D2E/DX2                !
 ! D30   D(4,5,6,18)           179.8364         estimate D2E/DX2                !
 ! D31   D(17,5,6,1)          -179.042          estimate D2E/DX2                !
 ! D32   D(17,5,6,18)            0.4751         estimate D2E/DX2                !
 ! D33   D(4,7,8,9)             -0.5561         estimate D2E/DX2                !
 ! D34   D(4,7,8,14)           178.1214         estimate D2E/DX2                !
 ! D35   D(23,7,8,9)           179.2832         estimate D2E/DX2                !
 ! D36   D(23,7,8,14)           -2.0392         estimate D2E/DX2                !
 ! D37   D(4,7,23,24)          116.0962         estimate D2E/DX2                !
 ! D38   D(4,7,23,25)          -64.0792         estimate D2E/DX2                !
 ! D39   D(8,7,23,24)          -63.7412         estimate D2E/DX2                !
 ! D40   D(8,7,23,25)          116.0833         estimate D2E/DX2                !
 ! D41   D(7,8,9,10)          -179.2072         estimate D2E/DX2                !
 ! D42   D(7,8,9,22)             1.3758         estimate D2E/DX2                !
 ! D43   D(14,8,9,10)            2.0635         estimate D2E/DX2                !
 ! D44   D(14,8,9,22)         -177.3535         estimate D2E/DX2                !
 ! D45   D(7,8,14,13)          179.4746         estimate D2E/DX2                !
 ! D46   D(7,8,14,21)           -0.891          estimate D2E/DX2                !
 ! D47   D(9,8,14,13)           -1.8306         estimate D2E/DX2                !
 ! D48   D(9,8,14,21)          177.8038         estimate D2E/DX2                !
 ! D49   D(8,9,10,11)          179.3905         estimate D2E/DX2                !
 ! D50   D(8,9,10,12)           -0.8686         estimate D2E/DX2                !
 ! D51   D(22,9,10,11)          -1.1981         estimate D2E/DX2                !
 ! D52   D(22,9,10,12)         178.5427         estimate D2E/DX2                !
 ! D53   D(8,9,22,3)            -0.6961         estimate D2E/DX2                !
 ! D54   D(8,9,22,32)          179.137          estimate D2E/DX2                !
 ! D55   D(10,9,22,3)          179.8923         estimate D2E/DX2                !
 ! D56   D(10,9,22,32)          -0.2746         estimate D2E/DX2                !
 ! D57   D(9,10,12,13)          -0.6323         estimate D2E/DX2                !
 ! D58   D(9,10,12,19)        -179.935          estimate D2E/DX2                !
 ! D59   D(11,10,12,13)        179.1065         estimate D2E/DX2                !
 ! D60   D(11,10,12,19)         -0.1962         estimate D2E/DX2                !
 ! D61   D(10,12,13,14)          0.893          estimate D2E/DX2                !
 ! D62   D(10,12,13,20)       -178.6858         estimate D2E/DX2                !
 ! D63   D(19,12,13,14)       -179.8072         estimate D2E/DX2                !
 ! D64   D(19,12,13,20)          0.6139         estimate D2E/DX2                !
 ! D65   D(12,13,14,8)           0.3792         estimate D2E/DX2                !
 ! D66   D(12,13,14,21)       -179.2486         estimate D2E/DX2                !
 ! D67   D(20,13,14,8)         179.9566         estimate D2E/DX2                !
 ! D68   D(20,13,14,21)          0.3288         estimate D2E/DX2                !
 ! D69   D(3,22,32,33)         -89.2793         estimate D2E/DX2                !
 ! D70   D(3,22,32,34)          90.7362         estimate D2E/DX2                !
 ! D71   D(9,22,32,33)          90.8821         estimate D2E/DX2                !
 ! D72   D(9,22,32,34)         -89.1023         estimate D2E/DX2                !
 ! D73   D(7,23,24,26)        -179.6105         estimate D2E/DX2                !
 ! D74   D(7,23,24,30)          -0.4471         estimate D2E/DX2                !
 ! D75   D(25,23,24,26)          0.5632         estimate D2E/DX2                !
 ! D76   D(25,23,24,30)        179.7266         estimate D2E/DX2                !
 ! D77   D(7,23,25,27)        -179.3411         estimate D2E/DX2                !
 ! D78   D(7,23,25,31)          -0.6173         estimate D2E/DX2                !
 ! D79   D(24,23,25,27)          0.4847         estimate D2E/DX2                !
 ! D80   D(24,23,25,31)        179.2085         estimate D2E/DX2                !
 ! D81   D(23,24,26,28)         -1.0681         estimate D2E/DX2                !
 ! D82   D(23,24,26,48)        179.5768         estimate D2E/DX2                !
 ! D83   D(30,24,26,28)        179.7593         estimate D2E/DX2                !
 ! D84   D(30,24,26,48)          0.4042         estimate D2E/DX2                !
 ! D85   D(23,25,27,28)         -0.9911         estimate D2E/DX2                !
 ! D86   D(23,25,27,29)        178.8016         estimate D2E/DX2                !
 ! D87   D(31,25,27,28)       -179.7121         estimate D2E/DX2                !
 ! D88   D(31,25,27,29)          0.0806         estimate D2E/DX2                !
 ! D89   D(24,26,28,27)          0.5526         estimate D2E/DX2                !
 ! D90   D(24,26,28,47)       -178.7691         estimate D2E/DX2                !
 ! D91   D(48,26,28,27)        179.8788         estimate D2E/DX2                !
 ! D92   D(48,26,28,47)          0.557          estimate D2E/DX2                !
 ! D93   D(24,26,48,49)       -171.2398         estimate D2E/DX2                !
 ! D94   D(24,26,48,50)          8.6843         estimate D2E/DX2                !
 ! D95   D(28,26,48,49)          9.4414         estimate D2E/DX2                !
 ! D96   D(28,26,48,50)       -170.6345         estimate D2E/DX2                !
 ! D97   D(25,27,28,26)          0.4681         estimate D2E/DX2                !
 ! D98   D(25,27,28,47)        179.8025         estimate D2E/DX2                !
 ! D99   D(29,27,28,26)       -179.3236         estimate D2E/DX2                !
 ! D100  D(29,27,28,47)          0.0107         estimate D2E/DX2                !
 ! D101  D(22,32,33,35)       -179.9809         estimate D2E/DX2                !
 ! D102  D(22,32,33,36)         -0.0024         estimate D2E/DX2                !
 ! D103  D(34,32,33,35)          0.0034         estimate D2E/DX2                !
 ! D104  D(34,32,33,36)        179.9818         estimate D2E/DX2                !
 ! D105  D(22,32,34,37)       -179.999          estimate D2E/DX2                !
 ! D106  D(22,32,34,38)          0.0001         estimate D2E/DX2                !
 ! D107  D(33,32,34,37)          0.0167         estimate D2E/DX2                !
 ! D108  D(33,32,34,38)       -179.9842         estimate D2E/DX2                !
 ! D109  D(32,33,35,39)         -0.0156         estimate D2E/DX2                !
 ! D110  D(32,33,35,40)        179.9804         estimate D2E/DX2                !
 ! D111  D(36,33,35,39)       -179.9941         estimate D2E/DX2                !
 ! D112  D(36,33,35,40)          0.0019         estimate D2E/DX2                !
 ! D113  D(32,34,37,39)         -0.0245         estimate D2E/DX2                !
 ! D114  D(32,34,37,41)        179.9848         estimate D2E/DX2                !
 ! D115  D(38,34,37,39)        179.9764         estimate D2E/DX2                !
 ! D116  D(38,34,37,41)         -0.0143         estimate D2E/DX2                !
 ! D117  D(33,35,39,37)          0.0079         estimate D2E/DX2                !
 ! D118  D(33,35,39,42)       -179.9923         estimate D2E/DX2                !
 ! D119  D(40,35,39,37)       -179.988          estimate D2E/DX2                !
 ! D120  D(40,35,39,42)          0.0118         estimate D2E/DX2                !
 ! D121  D(34,37,39,35)          0.0123         estimate D2E/DX2                !
 ! D122  D(34,37,39,42)       -179.9876         estimate D2E/DX2                !
 ! D123  D(41,37,39,35)       -179.9967         estimate D2E/DX2                !
 ! D124  D(41,37,39,42)          0.0034         estimate D2E/DX2                !
 ! D125  D(35,39,42,43)         -0.0051         estimate D2E/DX2                !
 ! D126  D(37,39,42,43)        179.9947         estimate D2E/DX2                !
 ! D127  D(39,42,43,44)       -179.9922         estimate D2E/DX2                !
 ! D128  D(39,42,43,45)        -61.1693         estimate D2E/DX2                !
 ! D129  D(39,42,43,46)         61.1862         estimate D2E/DX2                !
 ! D130  D(26,48,49,51)          2.8703         estimate D2E/DX2                !
 ! D131  D(50,48,49,51)       -177.0522         estimate D2E/DX2                !
 ! D132  D(26,48,50,52)       -179.1381         estimate D2E/DX2                !
 ! D133  D(49,48,50,52)          0.7902         estimate D2E/DX2                !
 --------------------------------------------------------------------------------
 Trust Radius=3.00D-01 FncErr=1.00D-07 GrdErr=1.00D-06
 Number of steps in this run=    289 maximum allowed number of steps=    312.
 GradGradGradGradGradGradGradGradGradGradGradGradGradGradGradGradGradGrad

 Leave Link  103 at Wed Mar 31 11:57:10 2021, MaxMem=  5242880000 cpu:         0.2
 (Enter /opt/nce/packages/global/g09/l202.exe)
 Symmetry turned off by external request.
 Stoichiometry    C26H21BNO3(1+)
 Framework group  C1[X(C26H21BNO3)]
 Deg. of freedom   150
 Full point group                 C1      NOp   1
                          Input orientation:                          
 ---------------------------------------------------------------------
 Center     Atomic      Atomic             Coordinates (Angstroms)
 Number     Number       Type             X           Y           Z
 ---------------------------------------------------------------------
      1          6           0        1.094527    3.689406   -0.435484
      2          6           0        1.695760    2.463773   -0.241526
      3          6           0        0.900479    1.322369    0.028956
      4          6           0       -0.526434    1.455035    0.122554
      5          6           0       -1.102988    2.741265   -0.115489
      6          6           0       -0.314305    3.832996   -0.384553
      7          6           0       -1.318261    0.316251    0.415050
      8          6           0       -0.686432   -0.940287    0.591263
      9          6           0        0.740368   -1.041635    0.459175
     10          6           0        1.372970   -2.299502    0.618127
     11          1           0        2.452239   -2.377600    0.508205
     12          6           0        0.618459   -3.414651    0.916087
     13          6           0       -0.786156   -3.328965    1.081508
     14          6           0       -1.420126   -2.120599    0.926520
     15          1           0        1.718324    4.561277   -0.644081
     16          1           0        2.777470    2.365324   -0.298570
     17          1           0       -2.187135    2.837681   -0.089457
     18          1           0       -0.768387    4.808344   -0.566928
     19          1           0        1.117954   -4.378319    1.037197
     20          1           0       -1.359152   -4.221399    1.338210
     21          1           0       -2.497229   -2.042480    1.063586
     22          7           0        1.481241    0.086163    0.191326
     23          6           0       -2.790497    0.435780    0.532058
     24          6           0       -3.625670   -0.233483   -0.375261
     25          6           0       -3.363444    1.215792    1.552720
     26          6           0       -5.023878   -0.133136   -0.295032
     27          6           0       -4.750554    1.308618    1.659788
     28          6           0       -5.567607    0.644059    0.741331
     29          1           0       -5.194134    1.898630    2.464492
     30          1           0       -3.188060   -0.837234   -1.172929
     31          1           0       -2.721751    1.730002    2.271547
     32          6           0        2.921034   -0.031533    0.080113
     33          6           0        3.500706   -0.279564   -1.161868
     34          6           0        3.716395    0.105173    1.224317
     35          6           0        4.887668   -0.394466   -1.275653
     36          1           0        2.869318   -0.384429   -2.046522
     37          6           0        5.095177   -0.007488    1.117971
     38          1           0        3.250790    0.299225    2.192608
     39          6           0        5.697328   -0.258696   -0.132726
     40          1           0        5.325537   -0.588810   -2.253567
     41          1           0        5.740886    0.094447    1.991299
     42          8           0        7.034057   -0.351075   -0.133820
     43          6           0        7.722780   -0.602164   -1.347502
     44          1           0        8.789464   -0.633571   -1.095283
     45          1           0        7.424980   -1.569979   -1.785537
     46          1           0        7.547376    0.201673   -2.082556
     47          1           0       -6.652559    0.732682    0.852553
     48          5           0       -5.909141   -0.903456   -1.353396
     49          8           0       -7.254223   -0.748082   -1.483137
     50          8           0       -5.263575   -1.770713   -2.177452
     51          1           0       -7.662229   -0.091285   -0.908309
     52          1           0       -5.860532   -2.197160   -2.807644
 ---------------------------------------------------------------------
 Rotational constants (GHZ):      0.3129997      0.0721678      0.0647194
 Leave Link  202 at Wed Mar 31 11:57:10 2021, MaxMem=  5242880000 cpu:         0.7
 (Enter /opt/nce/packages/global/g09/l301.exe)
 Standard basis: def2TZVP (5D, 7F)
 Ernie: Thresh=  0.10000D-02 Tol=  0.10000D-05 Strict=F.
  1087 basis functions,  1749 primitive gaussians,  1242 cartesian basis functions
   106 alpha electrons      106 beta electrons
       nuclear repulsion energy      2773.9810363328 Hartrees.
 IExCor= 4639 DFT=T Ex+Corr=wB97XD ExCW=0 ScaHFX=  1.000000
 ScaDFX=  1.000000  1.000000  1.000000  1.000000 ScalE2=  1.000000  1.000000
 IRadAn=      5 IRanWt=     -1 IRanGd=            0 ICorTp=0 IEmpDi=121
  HFx wShort=  0.000000 wLong=  0.200000 cFull=  0.222036 cShort=  0.000000 cLong=  0.777964
  DFx wShort=  0.000000 wLong=  0.200000 cFull=  0.000000 cShort=  0.000000 cLong=  1.000000
 NAtoms=   52 NActive=   52 NUniq=   52 SFac= 1.00D+00 NAtFMM=   60 NAOKFM=F Big=F
 Integral buffers will be    131072 words long.
 Raffenetti 2 integral format.
 Two-electron integral symmetry is turned off.
 R6Disp:  Grimme-D2 Dispersion energy=       -0.0422467400 Hartrees.
 Nuclear repulsion after empirical dispersion term =     2773.9387895928 Hartrees.
 ------------------------------------------------------------------------------
 Polarizable Continuum Model (PCM)
 =================================
 Model                : PCM (using non-symmetric T matrix).
 Atomic radii         : SMD-Coulomb.
 Polarization charges : Total charges.
 Charge compensation  : None.
 Solution method      : On-the-fly selection.
 Cavity type          : VdW (van der Waals Surface) (Alpha=1.000).
 Cavity algorithm     : GePol (No added spheres)
                        Default sphere list used, NSphG=   52.
                        Lebedev-Laikov grids with approx.  5.0 points / Ang**2.
                        Smoothing algorithm: York/Karplus (Gamma=1.0000).
                        Polarization charges: spherical gaussians, with
                                              point-specific exponents (IZeta= 3).
                        Self-potential: point-specific (ISelfS= 7).
                        Self-field    : sphere-specific E.n sum rule (ISelfD= 2).
 1st derivatives      : Analytical E(r).r(x)/FMM algorithm (CHGder, D1EAlg=3).
                        Cavity 1st derivative terms included.
 Solvent              : Acetonitrile, Eps=  35.688000 Eps(inf)=   1.806874
 ------------------------------------------------------------------------------
 GePol: Number of generator spheres                  =      52
 GePol: Total number of spheres                      =      52
 GePol: Number of exposed spheres                    =      50 ( 96.15%)
 GePol: Number of points                             =    3843
 GePol: Average weight of points                     =       0.12
 GePol: Minimum weight of points                     =   0.50D-09
 GePol: Maximum weight of points                     =    0.21559
 GePol: Number of points with low weight             =     248
 GePol: Fraction of low-weight points (<1% of avg)   =       6.45%
 GePol: Cavity surface area                          =    447.913 Ang**2
 GePol: Cavity volume                                =    446.218 Ang**3
 ------------------------------------------------------------------------------
 Atomic radii for non-electrostatic terms: SMD-CDS.
 ------------------------------------------------------------------------------
 PCM non-electrostatic energy =        -0.0087443975 Hartrees.
 Nuclear repulsion after PCM non-electrostatic terms =     2773.9300451953 Hartrees.
 Leave Link  301 at Wed Mar 31 11:57:10 2021, MaxMem=  5242880000 cpu:         1.5
 (Enter /opt/nce/packages/global/g09/l302.exe)
 NPDir=0 NMtPBC=     1 NCelOv=     1 NCel=       1 NClECP=     1 NCelD=      1
         NCelK=      1 NCelE2=     1 NClLst=     1 CellRange=     0.0.
 One-electron integrals computed using PRISM.
   1 Symmetry operations used in ECPInt.
 ECPInt:  NShTT=   90525 NPrTT=  279376 LenC2=   70913 LenP2D=  149762.
 LDataN:  DoStor=T MaxTD1= 6 Len=  172
 NBasis=  1087 RedAO= T EigKep=  5.20D-06  NBF=  1087
 NBsUse=  1087 1.00D-06 EigRej= -1.00D+00 NBFU=  1087
 Precomputing XC quadrature grid using
 IXCGrd= 4 IRadAn=           5 IRanWt=          -1 IRanGd=           0 AccXCQ= 0.00D+00.
 Generated NRdTot=       0 NPtTot=           0 NUsed=           0 NTot=          32
 NSgBfM=  1154  1154  1154  1154  1154 MxSgAt=    52 MxSgA2=    52.
 Leave Link  302 at Wed Mar 31 11:57:27 2021, MaxMem=  5242880000 cpu:        90.8
 (Enter /opt/nce/packages/global/g09/l303.exe)
 DipDrv:  MaxL=1.
 Leave Link  303 at Wed Mar 31 11:57:28 2021, MaxMem=  5242880000 cpu:         5.3
 (Enter /opt/nce/packages/global/g09/l401.exe)
 ExpMin= 6.06D-02 ExpMax= 2.70D+04 ExpMxC= 9.22D+02 IAcc=3 IRadAn=         5 AccDes= 0.00D+00
 Harris functional with IExCor= 4639 and IRadAn=       5 diagonalized for initial guess.
 HarFok:  IExCor= 4639 AccDes= 0.00D+00 IRadAn=         5 IDoV= 1 UseB2=F ITyADJ=14
 ICtDFT=  3500011 ScaDFX=  1.000000  1.000000  1.000000  1.000000
 FoFCou: FMM=F IPFlag=           0 FMFlag=      100000 FMFlg1=           0
         NFxFlg=           0 DoJE=T BraDBF=F KetDBF=T FulRan=T
         wScrn=  0.000000 ICntrl=     500 IOpCl=  0 I1Cent=   200000004 NGrid=           0
         NMat0=    1 NMatS0=      1 NMatT0=    0 NMatD0=    1 NMtDS0=    0 NMtDT0=    0
 Symmetry not used in FoFCou.
 Harris En= -1251.91083098495    
 JPrj=0 DoOrth=F DoCkMO=F.
 Leave Link  401 at Wed Mar 31 11:58:30 2021, MaxMem=  5242880000 cpu:       176.8
 (Enter /opt/nce/packages/global/g09/l502.exe)
 Closed shell SCF:
 Using DIIS extrapolation, IDIIS=  1040.
 Two-electron integral symmetry not used.
 IVT=     4668702 IEndB=     4668702 NGot=  5242880000 MDV=  5239771745
 LenX=  5239771745 LenY=  5238227939
 Requested convergence on RMS density matrix=1.00D-08 within 128 cycles.
 Requested convergence on MAX density matrix=1.00D-06.
 Requested convergence on             energy=1.00D-06.
 No special actions if energy rises.
 Fock matrices will be formed incrementally for  20 cycles.

 Cycle   1  Pass 1  IDiag  1:
 FoFJK:  IHMeth= 1 ICntrl=       0 DoSepK=T KAlg= 0 I1Cent=   0 FoldK=F
 IRaf=         1 NMat=   1 IRICut=       1 DoRegI=T DoRafI=F ISym2E= 0.
 FoFCou: FMM=F IPFlag=           0 FMFlag=      100000 FMFlg1=           0
         NFxFlg=           0 DoJE=T BraDBF=F KetDBF=F FulRan=T
         wScrn=  0.000000 ICntrl=     500 IOpCl=  0 I1Cent=           0 NGrid=           0
         NMat0=    1 NMatS0=      1 NMatT0=    0 NMatD0=    1 NMtDS0=    0 NMtDT0=    0
 Symmetry not used in FoFCou.
 Inv3:  Mode=1 IEnd=    44305947.
 Iteration    1 A*A^-1 deviation from unit magnitude is 1.09D-14 for   3839.
 Iteration    1 A*A^-1 deviation from orthogonality  is 3.55D-15 for   3177   1824.
 Iteration    1 A^-1*A deviation from unit magnitude is 1.09D-14 for   3839.
 Iteration    1 A^-1*A deviation from orthogonality  is 5.15D-11 for   2282   2210.
 E= -1308.27754424182    
 DIIS: error= 3.14D-02 at cycle   1 NSaved=   1.
 NSaved= 1 IEnMin= 1 EnMin= -1308.27754424182     IErMin= 1 ErrMin= 3.14D-02
 ErrMax= 3.14D-02  0.00D+00 EMaxC= 1.00D-01 BMatC= 2.95D+00 BMatP= 2.95D+00
 IDIUse=3 WtCom= 6.86D-01 WtEn= 3.14D-01
 Coeff-Com:  0.100D+01
 Coeff-En:   0.100D+01
 Coeff:      0.100D+01
 Gap=     0.290 Goal=   None    Shift=    0.000
 GapD=    0.290 DampG=1.000 DampE=0.500 DampFc=0.5000 IDamp=-1.
 Damping current iteration by 5.00D-01
 RMSDP=1.93D-03 MaxDP=2.77D-01              OVMax= 1.95D-01

 Cycle   2  Pass 1  IDiag  1:
 RMSU=  8.37D-04    CP:  9.18D-01
 E= -1308.48347431294     Delta-E=       -0.205930071116 Rises=F Damp=T
 DIIS: error= 1.51D-02 at cycle   2 NSaved=   2.
 NSaved= 2 IEnMin= 2 EnMin= -1308.48347431294     IErMin= 2 ErrMin= 1.51D-02
 ErrMax= 1.51D-02  0.00D+00 EMaxC= 1.00D-01 BMatC= 6.12D-01 BMatP= 2.95D+00
 IDIUse=3 WtCom= 8.49D-01 WtEn= 1.51D-01
 Coeff-Com: -0.591D+00 0.159D+01
 Coeff-En:   0.000D+00 0.100D+01
 Coeff:     -0.502D+00 0.150D+01
 Gap=     0.339 Goal=   None    Shift=    0.000
 RMSDP=8.22D-04 MaxDP=6.45D-02 DE=-2.06D-01 OVMax= 2.19D-01

 Cycle   3  Pass 1  IDiag  1:
 RMSU=  7.07D-04    CP:  8.69D-01  1.37D+00
 E= -1308.54804787349     Delta-E=       -0.064573560559 Rises=F Damp=F
 DIIS: error= 1.40D-02 at cycle   3 NSaved=   3.
 NSaved= 3 IEnMin= 3 EnMin= -1308.54804787349     IErMin= 3 ErrMin= 1.40D-02
 ErrMax= 1.40D-02  0.00D+00 EMaxC= 1.00D-01 BMatC= 2.14D-01 BMatP= 6.12D-01
 IDIUse=3 WtCom= 8.60D-01 WtEn= 1.40D-01
 Coeff-Com: -0.390D+00 0.840D+00 0.550D+00
 Coeff-En:   0.000D+00 0.264D+00 0.736D+00
 Coeff:     -0.335D+00 0.759D+00 0.576D+00
 Gap=     0.270 Goal=   None    Shift=    0.000
 RMSDP=5.21D-04 MaxDP=9.22D-02 DE=-6.46D-02 OVMax= 1.22D-01

 Cycle   4  Pass 1  IDiag  1:
 RMSU=  1.52D-04    CP:  8.42D-01  1.79D+00  5.46D-01
 E= -1308.72136041473     Delta-E=       -0.173312541234 Rises=F Damp=F
 DIIS: error= 2.23D-03 at cycle   4 NSaved=   4.
 NSaved= 4 IEnMin= 4 EnMin= -1308.72136041473     IErMin= 4 ErrMin= 2.23D-03
 ErrMax= 2.23D-03  0.00D+00 EMaxC= 1.00D-01 BMatC= 7.62D-03 BMatP= 2.14D-01
 IDIUse=3 WtCom= 9.78D-01 WtEn= 2.23D-02
 Coeff-Com: -0.139D+00 0.299D+00 0.286D+00 0.554D+00
 Coeff-En:   0.000D+00 0.000D+00 0.000D+00 0.100D+01
 Coeff:     -0.136D+00 0.293D+00 0.279D+00 0.564D+00
 Gap=     0.246 Goal=   None    Shift=    0.000
 RMSDP=6.55D-05 MaxDP=9.54D-03 DE=-1.73D-01 OVMax= 1.95D-02

 Cycle   5  Pass 1  IDiag  1:
 RMSU=  5.51D-05    CP:  8.43D-01  1.77D+00  5.93D-01  1.03D+00
 E= -1308.72736626808     Delta-E=       -0.006005853350 Rises=F Damp=F
 DIIS: error= 4.42D-04 at cycle   5 NSaved=   5.
 NSaved= 5 IEnMin= 5 EnMin= -1308.72736626808     IErMin= 5 ErrMin= 4.42D-04
 ErrMax= 4.42D-04  0.00D+00 EMaxC= 1.00D-01 BMatC= 1.63D-04 BMatP= 7.62D-03
 IDIUse=3 WtCom= 9.96D-01 WtEn= 4.42D-03
 Coeff-Com:  0.343D-01-0.740D-01-0.161D-01 0.158D+00 0.898D+00
 Coeff-En:   0.000D+00 0.000D+00 0.000D+00 0.000D+00 0.100D+01
 Coeff:      0.342D-01-0.736D-01-0.161D-01 0.157D+00 0.899D+00
 Gap=     0.249 Goal=   None    Shift=    0.000
 RMSDP=3.04D-05 MaxDP=2.25D-03 DE=-6.01D-03 OVMax= 5.83D-03

 Cycle   6  Pass 1  IDiag  1:
 RMSU=  2.19D-05    CP:  8.42D-01  1.78D+00  6.09D-01  1.14D+00  1.00D+00
 E= -1308.72759828977     Delta-E=       -0.000232021696 Rises=F Damp=F
 DIIS: error= 1.28D-04 at cycle   6 NSaved=   6.
 NSaved= 6 IEnMin= 6 EnMin= -1308.72759828977     IErMin= 6 ErrMin= 1.28D-04
 ErrMax= 1.28D-04  0.00D+00 EMaxC= 1.00D-01 BMatC= 2.83D-05 BMatP= 1.63D-04
 IDIUse=3 WtCom= 9.99D-01 WtEn= 1.28D-03
 Coeff-Com:  0.194D-01-0.417D-01-0.213D-01 0.118D-01 0.353D+00 0.679D+00
 Coeff-En:   0.000D+00 0.000D+00 0.000D+00 0.000D+00 0.000D+00 0.100D+01
 Coeff:      0.194D-01-0.416D-01-0.213D-01 0.117D-01 0.352D+00 0.680D+00
 Gap=     0.249 Goal=   None    Shift=    0.000
 RMSDP=8.73D-06 MaxDP=9.43D-04 DE=-2.32D-04 OVMax= 1.54D-03

 Cycle   7  Pass 1  IDiag  1:
 RMSU=  6.05D-06    CP:  8.41D-01  1.78D+00  6.09D-01  1.16D+00  1.07D+00
                    CP:  1.04D+00
 E= -1308.72763401787     Delta-E=       -0.000035728091 Rises=F Damp=F
 DIIS: error= 1.08D-04 at cycle   7 NSaved=   7.
 NSaved= 7 IEnMin= 7 EnMin= -1308.72763401787     IErMin= 7 ErrMin= 1.08D-04
 ErrMax= 1.08D-04  0.00D+00 EMaxC= 1.00D-01 BMatC= 3.66D-06 BMatP= 2.83D-05
 IDIUse=3 WtCom= 9.99D-01 WtEn= 1.08D-03
 Coeff-Com:  0.799D-03-0.164D-02-0.479D-02-0.294D-01-0.246D-01 0.219D+00
 Coeff-Com:  0.840D+00
 Coeff-En:   0.000D+00 0.000D+00 0.000D+00 0.000D+00 0.000D+00 0.000D+00
 Coeff-En:   0.100D+01
 Coeff:      0.798D-03-0.164D-02-0.478D-02-0.294D-01-0.246D-01 0.219D+00
 Coeff:      0.840D+00
 Gap=     0.249 Goal=   None    Shift=    0.000
 RMSDP=4.82D-06 MaxDP=5.19D-04 DE=-3.57D-05 OVMax= 1.49D-03

 Cycle   8  Pass 1  IDiag  1:
 RMSU=  3.07D-06    CP:  8.42D-01  1.78D+00  6.11D-01  1.16D+00  1.08D+00
                    CP:  1.19D+00  1.14D+00
 E= -1308.72764241670     Delta-E=       -0.000008398833 Rises=F Damp=F
 DIIS: error= 4.59D-05 at cycle   8 NSaved=   8.
 NSaved= 8 IEnMin= 8 EnMin= -1308.72764241670     IErMin= 8 ErrMin= 4.59D-05
 ErrMax= 4.59D-05  0.00D+00 EMaxC= 1.00D-01 BMatC= 6.99D-07 BMatP= 3.66D-06
 IDIUse=1 WtCom= 1.00D+00 WtEn= 0.00D+00
 Coeff-Com: -0.309D-02 0.662D-02 0.225D-02-0.144D-01-0.603D-01-0.431D-01
 Coeff-Com:  0.243D+00 0.869D+00
 Coeff:     -0.309D-02 0.662D-02 0.225D-02-0.144D-01-0.603D-01-0.431D-01
 Coeff:      0.243D+00 0.869D+00
 Gap=     0.249 Goal=   None    Shift=    0.000
 RMSDP=2.06D-06 MaxDP=1.28D-04 DE=-8.40D-06 OVMax= 8.42D-04

 Cycle   9  Pass 1  IDiag  1:
 RMSU=  1.20D-06    CP:  8.42D-01  1.78D+00  6.11D-01  1.16D+00  1.09D+00
                    CP:  1.24D+00  1.26D+00  1.30D+00
 E= -1308.72764441718     Delta-E=       -0.000002000481 Rises=F Damp=F
 DIIS: error= 2.40D-05 at cycle   9 NSaved=   9.
 NSaved= 9 IEnMin= 9 EnMin= -1308.72764441718     IErMin= 9 ErrMin= 2.40D-05
 ErrMax= 2.40D-05  0.00D+00 EMaxC= 1.00D-01 BMatC= 1.30D-07 BMatP= 6.99D-07
 IDIUse=1 WtCom= 1.00D+00 WtEn= 0.00D+00
 Coeff-Com: -0.944D-03 0.200D-02 0.145D-02-0.357D-03-0.905D-02-0.537D-01
 Coeff-Com: -0.879D-01 0.234D+00 0.914D+00
 Coeff:     -0.944D-03 0.200D-02 0.145D-02-0.357D-03-0.905D-02-0.537D-01
 Coeff:     -0.879D-01 0.234D+00 0.914D+00
 Gap=     0.249 Goal=   None    Shift=    0.000
 RMSDP=1.31D-06 MaxDP=1.66D-04 DE=-2.00D-06 OVMax= 4.99D-04

 Cycle  10  Pass 1  IDiag  1:
 RMSU=  5.23D-07    CP:  8.42D-01  1.78D+00  6.11D-01  1.16D+00  1.09D+00
                    CP:  1.25D+00  1.31D+00  1.54D+00  1.32D+00
 E= -1308.72764489228     Delta-E=       -0.000000475104 Rises=F Damp=F
 DIIS: error= 1.27D-05 at cycle  10 NSaved=  10.
 NSaved=10 IEnMin=10 EnMin= -1308.72764489228     IErMin=10 ErrMin= 1.27D-05
 ErrMax= 1.27D-05  0.00D+00 EMaxC= 1.00D-01 BMatC= 2.43D-08 BMatP= 1.30D-07
 IDIUse=1 WtCom= 1.00D+00 WtEn= 0.00D+00
 Coeff-Com:  0.324D-03-0.696D-03-0.705D-04 0.186D-02 0.900D-02-0.858D-02
 Coeff-Com: -0.682D-01-0.107D+00 0.297D+00 0.876D+00
 Coeff:      0.324D-03-0.696D-03-0.705D-04 0.186D-02 0.900D-02-0.858D-02
 Coeff:     -0.682D-01-0.107D+00 0.297D+00 0.876D+00
 Gap=     0.249 Goal=   None    Shift=    0.000
 RMSDP=4.98D-07 MaxDP=3.01D-05 DE=-4.75D-07 OVMax= 2.60D-04

 Cycle  11  Pass 1  IDiag  1:
 RMSU=  2.33D-07    CP:  8.42D-01  1.78D+00  6.11D-01  1.16D+00  1.10D+00
                    CP:  1.26D+00  1.34D+00  1.61D+00  1.53D+00  1.36D+00
 E= -1308.72764498589     Delta-E=       -0.000000093603 Rises=F Damp=F
 DIIS: error= 4.54D-06 at cycle  11 NSaved=  11.
 NSaved=11 IEnMin=11 EnMin= -1308.72764498589     IErMin=11 ErrMin= 4.54D-06
 ErrMax= 4.54D-06  0.00D+00 EMaxC= 1.00D-01 BMatC= 3.21D-09 BMatP= 2.43D-08
 IDIUse=1 WtCom= 1.00D+00 WtEn= 0.00D+00
 Coeff-Com:  0.228D-03-0.486D-03-0.237D-03 0.545D-03 0.435D-02 0.665D-02
 Coeff-Com:  0.186D-02-0.714D-01-0.904D-01 0.164D+00 0.985D+00
 Coeff:      0.228D-03-0.486D-03-0.237D-03 0.545D-03 0.435D-02 0.665D-02
 Coeff:      0.186D-02-0.714D-01-0.904D-01 0.164D+00 0.985D+00
 Gap=     0.249 Goal=   None    Shift=    0.000
 RMSDP=2.37D-07 MaxDP=1.40D-05 DE=-9.36D-08 OVMax= 1.16D-04

 Cycle  12  Pass 1  IDiag  1:
 RMSU=  9.43D-08    CP:  8.42D-01  1.78D+00  6.11D-01  1.16D+00  1.10D+00
                    CP:  1.26D+00  1.35D+00  1.63D+00  1.63D+00  1.60D+00
                    CP:  1.43D+00
 E= -1308.72764500349     Delta-E=       -0.000000017601 Rises=F Damp=F
 DIIS: error= 1.94D-06 at cycle  12 NSaved=  12.
 NSaved=12 IEnMin=12 EnMin= -1308.72764500349     IErMin=12 ErrMin= 1.94D-06
 ErrMax= 1.94D-06  0.00D+00 EMaxC= 1.00D-01 BMatC= 5.37D-10 BMatP= 3.21D-09
 IDIUse=1 WtCom= 1.00D+00 WtEn= 0.00D+00
 Coeff-Com:  0.195D-04-0.411D-04-0.635D-04-0.192D-03-0.518D-04 0.279D-02
 Coeff-Com:  0.129D-01-0.361D-03-0.667D-01-0.104D+00 0.244D+00 0.912D+00
 Coeff:      0.195D-04-0.411D-04-0.635D-04-0.192D-03-0.518D-04 0.279D-02
 Coeff:      0.129D-01-0.361D-03-0.667D-01-0.104D+00 0.244D+00 0.912D+00
 Gap=     0.249 Goal=   None    Shift=    0.000
 RMSDP=9.52D-08 MaxDP=9.18D-06 DE=-1.76D-08 OVMax= 4.01D-05

 Cycle  13  Pass 1  IDiag  1:
 RMSU=  3.60D-08    CP:  8.42D-01  1.78D+00  6.11D-01  1.16D+00  1.10D+00
                    CP:  1.26D+00  1.35D+00  1.63D+00  1.65D+00  1.66D+00
                    CP:  1.65D+00  1.38D+00
 E= -1308.72764500623     Delta-E=       -0.000000002737 Rises=F Damp=F
 DIIS: error= 5.39D-07 at cycle  13 NSaved=  13.
 NSaved=13 IEnMin=13 EnMin= -1308.72764500623     IErMin=13 ErrMin= 5.39D-07
 ErrMax= 5.39D-07  0.00D+00 EMaxC= 1.00D-01 BMatC= 1.53D-10 BMatP= 5.37D-10
 IDIUse=1 WtCom= 1.00D+00 WtEn= 0.00D+00
 Coeff-Com: -0.222D-04 0.474D-04 0.932D-05-0.164D-03-0.648D-03-0.411D-03
 Coeff-Com:  0.368D-02 0.112D-01-0.829D-02-0.668D-01-0.105D+00 0.319D+00
 Coeff-Com:  0.848D+00
 Coeff:     -0.222D-04 0.474D-04 0.932D-05-0.164D-03-0.648D-03-0.411D-03
 Coeff:      0.368D-02 0.112D-01-0.829D-02-0.668D-01-0.105D+00 0.319D+00
 Coeff:      0.848D+00
 Gap=     0.249 Goal=   None    Shift=    0.000
 RMSDP=4.45D-08 MaxDP=2.23D-06 DE=-2.74D-09 OVMax= 1.92D-05

 Cycle  14  Pass 1  IDiag  1:
 RMSU=  1.53D-08    CP:  8.42D-01  1.78D+00  6.11D-01  1.16D+00  1.10D+00
                    CP:  1.26D+00  1.35D+00  1.63D+00  1.65D+00  1.69D+00
                    CP:  1.74D+00  1.64D+00  1.24D+00
 E= -1308.72764500671     Delta-E=       -0.000000000479 Rises=F Damp=F
 DIIS: error= 1.72D-07 at cycle  14 NSaved=  14.
 NSaved=14 IEnMin=14 EnMin= -1308.72764500671     IErMin=14 ErrMin= 1.72D-07
 ErrMax= 1.72D-07  0.00D+00 EMaxC= 1.00D-01 BMatC= 1.57D-11 BMatP= 1.53D-10
 IDIUse=1 WtCom= 1.00D+00 WtEn= 0.00D+00
 Coeff-Com: -0.776D-05 0.164D-04 0.123D-04-0.213D-04-0.133D-03-0.591D-03
 Coeff-Com: -0.109D-02 0.304D-02 0.848D-02 0.410D-03-0.623D-01-0.694D-01
 Coeff-Com:  0.183D+00 0.938D+00
 Coeff:     -0.776D-05 0.164D-04 0.123D-04-0.213D-04-0.133D-03-0.591D-03
 Coeff:     -0.109D-02 0.304D-02 0.848D-02 0.410D-03-0.623D-01-0.694D-01
 Coeff:      0.183D+00 0.938D+00
 Gap=     0.249 Goal=   None    Shift=    0.000
 RMSDP=1.51D-08 MaxDP=1.07D-06 DE=-4.79D-10 OVMax= 5.49D-06

 Cycle  15  Pass 1  IDiag  1:
 RMSU=  6.12D-09    CP:  8.42D-01  1.78D+00  6.11D-01  1.16D+00  1.10D+00
                    CP:  1.26D+00  1.35D+00  1.63D+00  1.65D+00  1.70D+00
                    CP:  1.76D+00  1.72D+00  1.42D+00  1.27D+00
 E= -1308.72764500682     Delta-E=       -0.000000000114 Rises=F Damp=F
 DIIS: error= 5.90D-08 at cycle  15 NSaved=  15.
 NSaved=15 IEnMin=15 EnMin= -1308.72764500682     IErMin=15 ErrMin= 5.90D-08
 ErrMax= 5.90D-08  0.00D+00 EMaxC= 1.00D-01 BMatC= 1.98D-12 BMatP= 1.57D-11
 IDIUse=1 WtCom= 1.00D+00 WtEn= 0.00D+00
 Coeff-Com:  0.903D-07-0.222D-06 0.300D-05 0.125D-04 0.425D-04-0.129D-03
 Coeff-Com: -0.706D-03-0.516D-03 0.341D-02 0.884D-02-0.141D-02-0.600D-01
 Coeff-Com: -0.625D-01 0.259D+00 0.854D+00
 Coeff:      0.903D-07-0.222D-06 0.300D-05 0.125D-04 0.425D-04-0.129D-03
 Coeff:     -0.706D-03-0.516D-03 0.341D-02 0.884D-02-0.141D-02-0.600D-01
 Coeff:     -0.625D-01 0.259D+00 0.854D+00
 Gap=     0.249 Goal=   None    Shift=    0.000
 RMSDP=4.08D-09 MaxDP=2.19D-07 DE=-1.14D-10 OVMax= 1.18D-06

 Error on total polarization charges =  0.05076
 SCF Done:  E(RwB97XD) =  -1308.72764501     A.U. after   15 cycles
            NFock= 15  Conv=0.41D-08     -V/T= 2.0056
 KE= 1.301432912674D+03 PE=-8.568569727365D+03 EE= 3.184479124489D+03
 SMD-CDS (non-electrostatic) energy       (kcal/mol) =      -5.49
 (included in total energy above)
 Leave Link  502 at Wed Mar 31 13:35:14 2021, MaxMem=  5242880000 cpu:     28137.7
 (Enter /opt/nce/packages/global/g09/l601.exe)
 Copying SCF densities to generalized density rwf, IOpCl= 0 IROHF=0.

 **********************************************************************

            Population analysis using the SCF density.

 **********************************************************************

 Alpha  occ. eigenvalues --  -19.29057 -19.26336 -19.25983 -14.54194 -10.38122
 Alpha  occ. eigenvalues --  -10.38120 -10.36609 -10.36547 -10.34158 -10.33842
 Alpha  occ. eigenvalues --  -10.33839 -10.33112 -10.31955 -10.31921 -10.31917
 Alpha  occ. eigenvalues --  -10.31599 -10.31579 -10.31166 -10.31158 -10.30967
 Alpha  occ. eigenvalues --  -10.30906 -10.30730 -10.30728 -10.30710 -10.30471
 Alpha  occ. eigenvalues --  -10.30274 -10.29930 -10.29889 -10.29821 -10.28603
 Alpha  occ. eigenvalues --   -6.88701  -1.18368  -1.14357  -1.13304  -1.10975
 Alpha  occ. eigenvalues --   -1.00340  -0.98821  -0.97224  -0.96104  -0.93282
 Alpha  occ. eigenvalues --   -0.89115  -0.87970  -0.87343  -0.86490  -0.85841
 Alpha  occ. eigenvalues --   -0.85575  -0.84518  -0.80379  -0.78254  -0.76198
 Alpha  occ. eigenvalues --   -0.74885  -0.72410  -0.71503  -0.71022  -0.70673
 Alpha  occ. eigenvalues --   -0.68341  -0.66811  -0.66618  -0.65577  -0.64580
 Alpha  occ. eigenvalues --   -0.63880  -0.62326  -0.60793  -0.60084  -0.59145
 Alpha  occ. eigenvalues --   -0.57924  -0.57329  -0.57096  -0.56236  -0.55978
 Alpha  occ. eigenvalues --   -0.54709  -0.54389  -0.54190  -0.53730  -0.53614
 Alpha  occ. eigenvalues --   -0.53031  -0.52170  -0.51841  -0.51138  -0.50311
 Alpha  occ. eigenvalues --   -0.49377  -0.49289  -0.48454  -0.48083  -0.47832
 Alpha  occ. eigenvalues --   -0.46869  -0.46609  -0.46384  -0.46031  -0.45152
 Alpha  occ. eigenvalues --   -0.44968  -0.44895  -0.44038  -0.42736  -0.41814
 Alpha  occ. eigenvalues --   -0.41576  -0.41561  -0.41497  -0.40223  -0.36763
 Alpha  occ. eigenvalues --   -0.34820  -0.34654  -0.34303  -0.34077  -0.31224
 Alpha  occ. eigenvalues --   -0.31149
 Alpha virt. eigenvalues --   -0.06230   0.00976   0.02135   0.03135   0.03895
 Alpha virt. eigenvalues --    0.04838   0.05327   0.06231   0.09900   0.10006
 Alpha virt. eigenvalues --    0.11822   0.12327   0.13027   0.13663   0.13857
 Alpha virt. eigenvalues --    0.14001   0.14520   0.14759   0.15441   0.15638
 Alpha virt. eigenvalues --    0.16098   0.16529   0.17023   0.17278   0.17695
 Alpha virt. eigenvalues --    0.18400   0.18689   0.18914   0.19363   0.19582
 Alpha virt. eigenvalues --    0.19799   0.20016   0.20167   0.20465   0.21003
 Alpha virt. eigenvalues --    0.21502   0.21757   0.22009   0.23090   0.23405
 Alpha virt. eigenvalues --    0.23933   0.24121   0.24967   0.25341   0.25641
 Alpha virt. eigenvalues --    0.25695   0.26182   0.26481   0.26744   0.27275
 Alpha virt. eigenvalues --    0.27942   0.28196   0.28352   0.28759   0.29097
 Alpha virt. eigenvalues --    0.29237   0.29671   0.29830   0.30047   0.30212
 Alpha virt. eigenvalues --    0.30594   0.30939   0.31115   0.31508   0.31603
 Alpha virt. eigenvalues --    0.31959   0.32441   0.32981   0.33368   0.33539
 Alpha virt. eigenvalues --    0.33870   0.34005   0.34321   0.34936   0.35255
 Alpha virt. eigenvalues --    0.35636   0.35797   0.36180   0.36321   0.36679
 Alpha virt. eigenvalues --    0.37202   0.37650   0.37855   0.38202   0.38219
 Alpha virt. eigenvalues --    0.38919   0.39617   0.40007   0.40100   0.40628
 Alpha virt. eigenvalues --    0.40864   0.41510   0.41777   0.41892   0.42077
 Alpha virt. eigenvalues --    0.42549   0.43039   0.43294   0.43382   0.43817
 Alpha virt. eigenvalues --    0.43999   0.44148   0.44539   0.44723   0.44930
 Alpha virt. eigenvalues --    0.45353   0.45848   0.46537   0.46972   0.47257
 Alpha virt. eigenvalues --    0.47459   0.47865   0.48227   0.48468   0.48861
 Alpha virt. eigenvalues --    0.49013   0.49260   0.49606   0.49714   0.50185
 Alpha virt. eigenvalues --    0.50500   0.50613   0.51120   0.51300   0.51755
 Alpha virt. eigenvalues --    0.52160   0.52275   0.52754   0.53101   0.53335
 Alpha virt. eigenvalues --    0.53433   0.53576   0.53830   0.54309   0.54600
 Alpha virt. eigenvalues --    0.54903   0.55332   0.55429   0.55672   0.56074
 Alpha virt. eigenvalues --    0.56246   0.56833   0.56989   0.57456   0.57886
 Alpha virt. eigenvalues --    0.58130   0.58203   0.58583   0.59229   0.59958
 Alpha virt. eigenvalues --    0.60365   0.60678   0.61213   0.61557   0.62337
 Alpha virt. eigenvalues --    0.62650   0.63085   0.63611   0.63894   0.63948
 Alpha virt. eigenvalues --    0.64805   0.66000   0.66242   0.66636   0.67320
 Alpha virt. eigenvalues --    0.67676   0.67894   0.68088   0.68506   0.68699
 Alpha virt. eigenvalues --    0.69931   0.69964   0.70336   0.70656   0.70890
 Alpha virt. eigenvalues --    0.71969   0.72186   0.72544   0.72734   0.73273
 Alpha virt. eigenvalues --    0.73344   0.73576   0.74042   0.74278   0.74356
 Alpha virt. eigenvalues --    0.74884   0.75469   0.75722   0.76286   0.76918
 Alpha virt. eigenvalues --    0.76948   0.77156   0.77543   0.77854   0.78244
 Alpha virt. eigenvalues --    0.78730   0.79077   0.79757   0.79902   0.80050
 Alpha virt. eigenvalues --    0.80642   0.81240   0.81593   0.81815   0.82210
 Alpha virt. eigenvalues --    0.82675   0.83041   0.83204   0.83571   0.83920
 Alpha virt. eigenvalues --    0.84118   0.84751   0.85368   0.86014   0.86679
 Alpha virt. eigenvalues --    0.87429   0.87831   0.87966   0.89033   0.89311
 Alpha virt. eigenvalues --    0.90046   0.90133   0.90605   0.90961   0.91539
 Alpha virt. eigenvalues --    0.91945   0.92410   0.92856   0.93341   0.93819
 Alpha virt. eigenvalues --    0.94350   0.94766   0.95010   0.95368   0.95763
 Alpha virt. eigenvalues --    0.96098   0.96410   0.97214   0.97685   0.98090
 Alpha virt. eigenvalues --    0.98850   0.99437   0.99820   1.00762   1.01345
 Alpha virt. eigenvalues --    1.01662   1.02356   1.02686   1.03620   1.04363
 Alpha virt. eigenvalues --    1.04401   1.05965   1.06032   1.06409   1.07327
 Alpha virt. eigenvalues --    1.07691   1.08276   1.08845   1.09500   1.10112
 Alpha virt. eigenvalues --    1.10964   1.11517   1.11720   1.12594   1.12920
 Alpha virt. eigenvalues --    1.13770   1.14530   1.15070   1.15511   1.15664
 Alpha virt. eigenvalues --    1.16068   1.16345   1.17009   1.17880   1.18409
 Alpha virt. eigenvalues --    1.19202   1.19735   1.20176   1.20908   1.21434
 Alpha virt. eigenvalues --    1.22843   1.23075   1.23964   1.24335   1.24773
 Alpha virt. eigenvalues --    1.25512   1.25795   1.26459   1.27371   1.28424
 Alpha virt. eigenvalues --    1.29033   1.29068   1.29948   1.30477   1.30852
 Alpha virt. eigenvalues --    1.31506   1.31691   1.32290   1.32574   1.32854
 Alpha virt. eigenvalues --    1.33372   1.34249   1.35335   1.35495   1.35685
 Alpha virt. eigenvalues --    1.36248   1.36600   1.37760   1.38008   1.38380
 Alpha virt. eigenvalues --    1.39017   1.39136   1.39292   1.39991   1.40454
 Alpha virt. eigenvalues --    1.40832   1.41753   1.42115   1.43536   1.44569
 Alpha virt. eigenvalues --    1.45238   1.45661   1.45937   1.47231   1.47786
 Alpha virt. eigenvalues --    1.48688   1.49624   1.49793   1.50345   1.51231
 Alpha virt. eigenvalues --    1.51824   1.52137   1.52368   1.52853   1.54463
 Alpha virt. eigenvalues --    1.54989   1.55949   1.56266   1.56516   1.57390
 Alpha virt. eigenvalues --    1.57793   1.58269   1.58597   1.59335   1.59794
 Alpha virt. eigenvalues --    1.60219   1.60559   1.60678   1.61084   1.61640
 Alpha virt. eigenvalues --    1.61856   1.62267   1.62998   1.63218   1.64253
 Alpha virt. eigenvalues --    1.64591   1.65125   1.65372   1.65674   1.66025
 Alpha virt. eigenvalues --    1.66294   1.66644   1.67180   1.67631   1.67739
 Alpha virt. eigenvalues --    1.68787   1.69448   1.69796   1.70282   1.71495
 Alpha virt. eigenvalues --    1.71648   1.72201   1.72678   1.73100   1.73581
 Alpha virt. eigenvalues --    1.73695   1.74468   1.74971   1.75552   1.75634
 Alpha virt. eigenvalues --    1.76171   1.76845   1.77272   1.77889   1.78151
 Alpha virt. eigenvalues --    1.78529   1.78747   1.79144   1.79844   1.80302
 Alpha virt. eigenvalues --    1.81146   1.81524   1.81993   1.82733   1.82975
 Alpha virt. eigenvalues --    1.83481   1.83795   1.84223   1.84733   1.85224
 Alpha virt. eigenvalues --    1.85758   1.86533   1.86856   1.88020   1.88197
 Alpha virt. eigenvalues --    1.88919   1.90967   1.91140   1.91749   1.92084
 Alpha virt. eigenvalues --    1.93516   1.93672   1.94550   1.95295   1.95886
 Alpha virt. eigenvalues --    1.96643   1.96797   1.97159   1.97463   1.97917
 Alpha virt. eigenvalues --    1.98298   1.99102   2.00088   2.00646   2.01799
 Alpha virt. eigenvalues --    2.02556   2.02737   2.03274   2.04356   2.04651
 Alpha virt. eigenvalues --    2.04840   2.05267   2.05833   2.07356   2.08425
 Alpha virt. eigenvalues --    2.08692   2.09231   2.10632   2.11240   2.12245
 Alpha virt. eigenvalues --    2.12762   2.13205   2.14083   2.14310   2.14874
 Alpha virt. eigenvalues --    2.15467   2.16253   2.16638   2.18231   2.18935
 Alpha virt. eigenvalues --    2.19089   2.19404   2.19676   2.20184   2.20585
 Alpha virt. eigenvalues --    2.22230   2.22670   2.23650   2.23840   2.24243
 Alpha virt. eigenvalues --    2.24854   2.25279   2.25754   2.26381   2.27342
 Alpha virt. eigenvalues --    2.27891   2.28750   2.29753   2.30119   2.30616
 Alpha virt. eigenvalues --    2.31548   2.32048   2.32827   2.33559   2.34423
 Alpha virt. eigenvalues --    2.34597   2.35413   2.35682   2.36538   2.37270
 Alpha virt. eigenvalues --    2.37981   2.38934   2.39045   2.39610   2.40643
 Alpha virt. eigenvalues --    2.41313   2.41709   2.42640   2.43052   2.43768
 Alpha virt. eigenvalues --    2.44141   2.46441   2.47255   2.47431   2.48263
 Alpha virt. eigenvalues --    2.48753   2.49328   2.49853   2.50594   2.51458
 Alpha virt. eigenvalues --    2.52657   2.53878   2.54581   2.56082   2.56223
 Alpha virt. eigenvalues --    2.56381   2.56788   2.57626   2.58825   2.59267
 Alpha virt. eigenvalues --    2.60225   2.61113   2.61579   2.61874   2.62055
 Alpha virt. eigenvalues --    2.62812   2.62913   2.64287   2.64489   2.65424
 Alpha virt. eigenvalues --    2.65914   2.66766   2.66956   2.67591   2.68174
 Alpha virt. eigenvalues --    2.68734   2.69025   2.69316   2.69970   2.70310
 Alpha virt. eigenvalues --    2.70898   2.71410   2.72145   2.72539   2.73415
 Alpha virt. eigenvalues --    2.74130   2.74280   2.74662   2.75099   2.75277
 Alpha virt. eigenvalues --    2.76256   2.76412   2.77368   2.77492   2.77971
 Alpha virt. eigenvalues --    2.78384   2.78572   2.78835   2.79107   2.79473
 Alpha virt. eigenvalues --    2.79743   2.80247   2.80929   2.81237   2.81483
 Alpha virt. eigenvalues --    2.82002   2.82830   2.83403   2.83915   2.84097
 Alpha virt. eigenvalues --    2.84619   2.84833   2.85222   2.85608   2.85895
 Alpha virt. eigenvalues --    2.86258   2.86660   2.87117   2.87859   2.88313
 Alpha virt. eigenvalues --    2.88459   2.89227   2.90084   2.90478   2.90686
 Alpha virt. eigenvalues --    2.91090   2.91453   2.91631   2.92186   2.92356
 Alpha virt. eigenvalues --    2.93065   2.93473   2.93959   2.94083   2.95254
 Alpha virt. eigenvalues --    2.96014   2.96508   2.96856   2.97118   2.97649
 Alpha virt. eigenvalues --    2.98702   2.99177   2.99529   2.99697   3.00313
 Alpha virt. eigenvalues --    3.01051   3.01551   3.01932   3.01972   3.02619
 Alpha virt. eigenvalues --    3.04067   3.04492   3.04836   3.04959   3.05901
 Alpha virt. eigenvalues --    3.06513   3.06955   3.07279   3.07961   3.08553
 Alpha virt. eigenvalues --    3.09349   3.10162   3.10270   3.10636   3.11472
 Alpha virt. eigenvalues --    3.12328   3.12692   3.13089   3.13791   3.14515
 Alpha virt. eigenvalues --    3.14661   3.14771   3.15373   3.16379   3.17398
 Alpha virt. eigenvalues --    3.17778   3.18346   3.19093   3.19346   3.19560
 Alpha virt. eigenvalues --    3.19829   3.20418   3.21194   3.21553   3.22175
 Alpha virt. eigenvalues --    3.22431   3.23209   3.23235   3.23786   3.23999
 Alpha virt. eigenvalues --    3.24332   3.24402   3.26041   3.26194   3.26380
 Alpha virt. eigenvalues --    3.27230   3.27543   3.27783   3.28096   3.28653
 Alpha virt. eigenvalues --    3.28883   3.29604   3.29928   3.30560   3.31237
 Alpha virt. eigenvalues --    3.31829   3.32254   3.32530   3.33161   3.33853
 Alpha virt. eigenvalues --    3.34210   3.34273   3.35270   3.35974   3.36742
 Alpha virt. eigenvalues --    3.36862   3.37003   3.37314   3.37910   3.38153
 Alpha virt. eigenvalues --    3.38732   3.39601   3.39876   3.40184   3.40690
 Alpha virt. eigenvalues --    3.40877   3.41514   3.41953   3.42699   3.43142
 Alpha virt. eigenvalues --    3.43820   3.44007   3.44260   3.44425   3.45205
 Alpha virt. eigenvalues --    3.45640   3.45931   3.46442   3.46732   3.47386
 Alpha virt. eigenvalues --    3.48048   3.48588   3.48901   3.49815   3.50290
 Alpha virt. eigenvalues --    3.50520   3.50801   3.51280   3.52074   3.52688
 Alpha virt. eigenvalues --    3.53095   3.53492   3.54139   3.54225   3.54768
 Alpha virt. eigenvalues --    3.55082   3.55434   3.55976   3.56737   3.56946
 Alpha virt. eigenvalues --    3.57452   3.58019   3.58291   3.58997   3.59320
 Alpha virt. eigenvalues --    3.60138   3.60593   3.60809   3.61446   3.61659
 Alpha virt. eigenvalues --    3.62009   3.62305   3.62405   3.62651   3.63143
 Alpha virt. eigenvalues --    3.63983   3.65104   3.65367   3.65898   3.66433
 Alpha virt. eigenvalues --    3.66589   3.67097   3.67957   3.68290   3.69340
 Alpha virt. eigenvalues --    3.69949   3.71337   3.72259   3.73525   3.74633
 Alpha virt. eigenvalues --    3.75146   3.75691   3.76934   3.76997   3.77772
 Alpha virt. eigenvalues --    3.78230   3.79458   3.80371   3.81915   3.83006
 Alpha virt. eigenvalues --    3.84271   3.85361   3.85682   3.86938   3.87795
 Alpha virt. eigenvalues --    3.88428   3.88990   3.90226   3.92165   3.92885
 Alpha virt. eigenvalues --    3.93786   3.94743   3.95729   3.96687   3.97489
 Alpha virt. eigenvalues --    3.98134   3.99285   4.00008   4.01627   4.02629
 Alpha virt. eigenvalues --    4.03202   4.03795   4.04220   4.05029   4.06849
 Alpha virt. eigenvalues --    4.07470   4.08251   4.08505   4.09147   4.10178
 Alpha virt. eigenvalues --    4.11420   4.12730   4.12951   4.14067   4.14508
 Alpha virt. eigenvalues --    4.14736   4.16321   4.16757   4.17599   4.17814
 Alpha virt. eigenvalues --    4.19876   4.20458   4.21177   4.21485   4.22372
 Alpha virt. eigenvalues --    4.23161   4.23261   4.23463   4.24871   4.25276
 Alpha virt. eigenvalues --    4.25986   4.27183   4.27464   4.27865   4.28964
 Alpha virt. eigenvalues --    4.29251   4.29622   4.29674   4.29871   4.30355
 Alpha virt. eigenvalues --    4.31241   4.31559   4.31910   4.32418   4.32923
 Alpha virt. eigenvalues --    4.33325   4.34491   4.35826   4.36467   4.37262
 Alpha virt. eigenvalues --    4.38819   4.40228   4.41088   4.41492   4.42420
 Alpha virt. eigenvalues --    4.44337   4.44542   4.45979   4.46772   4.48608
 Alpha virt. eigenvalues --    4.50138   4.50238   4.51393   4.51854   4.54206
 Alpha virt. eigenvalues --    4.56107   4.57166   4.59267   4.60293   4.61641
 Alpha virt. eigenvalues --    4.62704   4.64758   4.65435   4.66734   4.67974
 Alpha virt. eigenvalues --    4.68909   4.69524   4.69714   4.71770   4.72411
 Alpha virt. eigenvalues --    4.73556   4.73945   4.75035   4.79221   4.79460
 Alpha virt. eigenvalues --    4.82101   4.84620   4.85316   4.85563   4.88271
 Alpha virt. eigenvalues --    4.89963   4.91138   4.92952   4.93995   4.94442
 Alpha virt. eigenvalues --    4.95357   4.96584   4.99583   5.02122   5.02636
 Alpha virt. eigenvalues --    5.03672   5.05150   5.06275   5.09836   5.10615
 Alpha virt. eigenvalues --    5.12305   5.12954   5.14429   5.18147   5.18885
 Alpha virt. eigenvalues --    5.20350   5.22629   5.25113   5.26189   5.26767
 Alpha virt. eigenvalues --    5.27576   5.30677   5.32389   5.32971   5.33954
 Alpha virt. eigenvalues --    5.34515   5.35996   5.36198   5.38542   5.41594
 Alpha virt. eigenvalues --    5.42752   5.43360   5.43917   5.48089   5.48677
 Alpha virt. eigenvalues --    5.49167   5.51562   5.53862   5.55058   5.56052
 Alpha virt. eigenvalues --    5.58158   5.59120   5.61311   5.62173   5.63867
 Alpha virt. eigenvalues --    5.67257   5.67443   5.69443   5.73895   5.77201
 Alpha virt. eigenvalues --    5.80340   5.82805   5.83466   5.84462   5.84706
 Alpha virt. eigenvalues --    5.87636   5.88731   5.90191   5.91269   6.02310
 Alpha virt. eigenvalues --    6.10043   6.11164   6.17756   6.32048   6.39930
 Alpha virt. eigenvalues --    6.42629   6.45476   6.48034   6.49855   6.50382
 Alpha virt. eigenvalues --    6.58658   6.64547   6.72256   6.77078   6.82845
 Alpha virt. eigenvalues --    6.84200   6.85092   6.87297   6.95431   6.96107
 Alpha virt. eigenvalues --    7.04750   7.26323   7.32431   7.44275   7.51229
 Alpha virt. eigenvalues --   16.32593  22.32947  22.41155  22.45416  22.53102
 Alpha virt. eigenvalues --   22.57117  22.70913  22.71751  22.73740  22.74191
 Alpha virt. eigenvalues --   22.77106  22.78747  22.80289  22.82767  22.87400
 Alpha virt. eigenvalues --   22.89630  22.91672  23.00114  23.03318  23.06311
 Alpha virt. eigenvalues --   23.11614  23.19104  23.26520  23.38115  23.42338
 Alpha virt. eigenvalues --   23.47705  23.80234  33.41757  43.64821  43.74670
 Alpha virt. eigenvalues --   44.33888
          Condensed to atoms (all electrons):
 Mulliken charges:
               1
     1  C   -0.103867
     2  C   -0.231376
     3  C    0.157953
     4  C    0.061334
     5  C   -0.236214
     6  C   -0.157384
     7  C    0.318132
     8  C    0.057008
     9  C    0.162198
    10  C   -0.231620
    11  H    0.196891
    12  C   -0.104074
    13  C   -0.158560
    14  C   -0.231973
    15  H    0.181638
    16  H    0.197147
    17  H    0.205206
    18  H    0.175829
    19  H    0.181544
    20  H    0.175542
    21  H    0.207288
    22  N    0.219786
    23  C    0.043939
    24  C   -0.349215
    25  C   -0.285101
    26  C    0.007380
    27  C   -0.141966
    28  C   -0.241330
    29  H    0.168251
    30  H    0.178261
    31  H    0.179809
    32  C   -0.019043
    33  C   -0.246735
    34  C   -0.223871
    35  C   -0.242420
    36  H    0.173664
    37  C   -0.204258
    38  H    0.170105
    39  C    0.381262
    40  H    0.188157
    41  H    0.163409
    42  O   -0.291958
    43  C   -0.237742
    44  H    0.165435
    45  H    0.149501
    46  H    0.149558
    47  H    0.153403
    48  B    0.394277
    49  O   -0.474993
    50  O   -0.491144
    51  H    0.370948
    52  H    0.369990
 Sum of Mulliken charges =   1.00000
[...]
 Alpha virt. eigenvalues --    0.56667   0.57269   0.57470   0.57908   0.58264
 Alpha virt. eigenvalues --    0.58363   0.58633   0.58752   0.59480   0.60631
 Alpha virt. eigenvalues --    0.60775   0.61095   0.61687   0.62198   0.62730
 Alpha virt. eigenvalues --    0.62978   0.63435   0.63931   0.64169   0.64663
 Alpha virt. eigenvalues --    0.65694   0.66210   0.67016   0.67036   0.67563
 Alpha virt. eigenvalues --    0.67812   0.68237   0.68379   0.69088   0.69918
 Alpha virt. eigenvalues --    0.70402   0.70900   0.71048   0.71153   0.71459
 Alpha virt. eigenvalues --    0.72130   0.72782   0.73065   0.73083   0.73292
 Alpha virt. eigenvalues --    0.73673   0.74164   0.74484   0.74693   0.75029
 Alpha virt. eigenvalues --    0.75444   0.75728   0.76118   0.76649   0.77012
 Alpha virt. eigenvalues --    0.77509   0.78044   0.78138   0.78216   0.79300
 Alpha virt. eigenvalues --    0.79814   0.79981   0.80275   0.80787   0.80895
 Alpha virt. eigenvalues --    0.81246   0.81806   0.81951   0.82176   0.82773
 Alpha virt. eigenvalues --    0.83084   0.83310   0.83528   0.84076   0.84382
 Alpha virt. eigenvalues --    0.84922   0.85409   0.86142   0.86440   0.87443
 Alpha virt. eigenvalues --    0.87541   0.88667   0.88768   0.89523   0.89962
 Alpha virt. eigenvalues --    0.90116   0.90676   0.90931   0.91434   0.92071
 Alpha virt. eigenvalues --    0.92310   0.93023   0.93277   0.93446   0.94119
 Alpha virt. eigenvalues --    0.94827   0.95275   0.95383   0.95643   0.95958
 Alpha virt. eigenvalues --    0.96352   0.96745   0.97224   0.97543   0.98195
 Alpha virt. eigenvalues --    0.98413   0.99660   1.00301   1.01422   1.01515
 Alpha virt. eigenvalues --    1.01887   1.02919   1.02943   1.03877   1.04258
 Alpha virt. eigenvalues --    1.04922   1.05901   1.06615   1.06964   1.07163
 Alpha virt. eigenvalues --    1.08153   1.08703   1.09015   1.10120   1.10806
 Alpha virt. eigenvalues --    1.11197   1.12333   1.12432   1.13026   1.13602
 Alpha virt. eigenvalues --    1.14340   1.15155   1.15508   1.15860   1.15933
 Alpha virt. eigenvalues --    1.16432   1.16685   1.17573   1.18317   1.18553
 Alpha virt. eigenvalues --    1.19431   1.20202   1.21146   1.21482   1.22268
 Alpha virt. eigenvalues --    1.24073   1.24297   1.24609   1.24832   1.25059
 Alpha virt. eigenvalues --    1.25399   1.26435   1.27429   1.27921   1.28163
 Alpha virt. eigenvalues --    1.29893   1.30123   1.30352   1.30997   1.31564
 Alpha virt. eigenvalues --    1.31882   1.32229   1.32977   1.33080   1.33838
 Alpha virt. eigenvalues --    1.34022   1.34651   1.35752   1.36202   1.36319
 Alpha virt. eigenvalues --    1.36763   1.37024   1.38093   1.38446   1.38819
 Alpha virt. eigenvalues --    1.39478   1.40164   1.40442   1.40880   1.41238
 Alpha virt. eigenvalues --    1.42072   1.43641   1.44089   1.44553   1.45178
 Alpha virt. eigenvalues --    1.45492   1.47136   1.47723   1.47959   1.48470
 Alpha virt. eigenvalues --    1.48835   1.50232   1.50410   1.51864   1.52229
 Alpha virt. eigenvalues --    1.52605   1.52921   1.53037   1.54070   1.54924
 Alpha virt. eigenvalues --    1.55302   1.56572   1.57069   1.57483   1.58275
 Alpha virt. eigenvalues --    1.58561   1.59086   1.59463   1.60273   1.60533
 Alpha virt. eigenvalues --    1.61000   1.61251   1.61535   1.62101   1.62596
 Alpha virt. eigenvalues --    1.62981   1.63301   1.64043   1.64530   1.65185
 Alpha virt. eigenvalues --    1.65719   1.65985   1.66112   1.66402   1.66650
 Alpha virt. eigenvalues --    1.67064   1.67165   1.67735   1.68480   1.69113
 Alpha virt. eigenvalues --    1.69622   1.70142   1.70498   1.71133   1.71974
 Alpha virt. eigenvalues --    1.72205   1.72757   1.72928   1.73085   1.74013
 Alpha virt. eigenvalues --    1.74199   1.75308   1.75786   1.76233   1.76739
 Alpha virt. eigenvalues --    1.77286   1.77304   1.78229   1.78552   1.78814
 Alpha virt. eigenvalues --    1.79161   1.79407   1.79582   1.80525   1.81104
 Alpha virt. eigenvalues --    1.81329   1.82467   1.82517   1.83423   1.83950
 Alpha virt. eigenvalues --    1.84429   1.84580   1.84854   1.85338   1.85883
 Alpha virt. eigenvalues --    1.86448   1.87159   1.87872   1.88540   1.89103
 Alpha virt. eigenvalues --    1.90062   1.91169   1.91608   1.92521   1.92813
 Alpha virt. eigenvalues --    1.94215   1.94240   1.95483   1.95972   1.96555
 Alpha virt. eigenvalues --    1.97251   1.97717   1.97970   1.98084   1.98620
 Alpha virt. eigenvalues --    1.99200   2.00113   2.00925   2.01193   2.02049
 Alpha virt. eigenvalues --    2.03761   2.03941   2.04060   2.04968   2.05480
 Alpha virt. eigenvalues --    2.05922   2.06199   2.07574   2.08143   2.09777
 Alpha virt. eigenvalues --    2.10155   2.10399   2.10947   2.11701   2.12426
 Alpha virt. eigenvalues --    2.13166   2.13831   2.14295   2.14867   2.15600
 Alpha virt. eigenvalues --    2.15857   2.16648   2.16876   2.19248   2.19292
 Alpha virt. eigenvalues --    2.19906   2.20075   2.20447   2.21006   2.21523
 Alpha virt. eigenvalues --    2.22830   2.23406   2.24415   2.24819   2.25098
 Alpha virt. eigenvalues --    2.26000   2.26278   2.27161   2.27262   2.27533
 Alpha virt. eigenvalues --    2.29359   2.30651   2.30939   2.31316   2.31677
 Alpha virt. eigenvalues --    2.32611   2.33372   2.33645   2.34848   2.35243
 Alpha virt. eigenvalues --    2.35770   2.36870   2.37615   2.37868   2.38266
 Alpha virt. eigenvalues --    2.38824   2.39395   2.40126   2.40371   2.40692
 Alpha virt. eigenvalues --    2.42097   2.42294   2.43806   2.43856   2.44297
 Alpha virt. eigenvalues --    2.45344   2.47255   2.48244   2.48680   2.49699
 Alpha virt. eigenvalues --    2.49886   2.50540   2.50638   2.51644   2.52475
 Alpha virt. eigenvalues --    2.53475   2.54111   2.54600   2.56264   2.56781
 Alpha virt. eigenvalues --    2.57506   2.58286   2.58479   2.59577   2.59873
 Alpha virt. eigenvalues --    2.60452   2.62077   2.62260   2.62509   2.63056
 Alpha virt. eigenvalues --    2.63788   2.63984   2.65369   2.65443   2.66131
 Alpha virt. eigenvalues --    2.66805   2.67533   2.68046   2.68879   2.69452
 Alpha virt. eigenvalues --    2.70287   2.70482   2.70593   2.71031   2.71515
 Alpha virt. eigenvalues --    2.71938   2.72738   2.73469   2.73833   2.73939
 Alpha virt. eigenvalues --    2.74952   2.75246   2.75466   2.75810   2.76727
 Alpha virt. eigenvalues --    2.77633   2.78491   2.78632   2.78841   2.79219
 Alpha virt. eigenvalues --    2.79420   2.79843   2.80143   2.80614   2.80775
 Alpha virt. eigenvalues --    2.81089   2.81405   2.81609   2.82260   2.82861
 Alpha virt. eigenvalues --    2.83023   2.83505   2.84409   2.84909   2.85219
 Alpha virt. eigenvalues --    2.85377   2.85892   2.86382   2.87077   2.87113
 Alpha virt. eigenvalues --    2.87319   2.87881   2.88391   2.88657   2.89679
 Alpha virt. eigenvalues --    2.89704   2.90233   2.91178   2.91462   2.91821
 Alpha virt. eigenvalues --    2.92304   2.92601   2.92931   2.93655   2.93815
 Alpha virt. eigenvalues --    2.94202   2.94642   2.94953   2.95391   2.96421
 Alpha virt. eigenvalues --    2.96968   2.97110   2.98152   2.98327   2.98948
 Alpha virt. eigenvalues --    2.99768   3.00148   3.00608   3.01084   3.01433
 Alpha virt. eigenvalues --    3.01835   3.02592   3.03186   3.03442   3.04251
 Alpha virt. eigenvalues --    3.04685   3.05213   3.05689   3.06147   3.06703
 Alpha virt. eigenvalues --    3.06847   3.07478   3.08050   3.09020   3.09252
 Alpha virt. eigenvalues --    3.10453   3.10811   3.11461   3.11658   3.12143
 Alpha virt. eigenvalues --    3.12667   3.12964   3.13240   3.14495   3.15011
 Alpha virt. eigenvalues --    3.15496   3.16336   3.16427   3.17417   3.18204
 Alpha virt. eigenvalues --    3.18887   3.19220   3.19509   3.19788   3.20504
 Alpha virt. eigenvalues --    3.20711   3.21005   3.21270   3.21554   3.22569
 Alpha virt. eigenvalues --    3.23309   3.24179   3.24188   3.24268   3.24474
 Alpha virt. eigenvalues --    3.25472   3.25819   3.26590   3.26881   3.27247
 Alpha virt. eigenvalues --    3.27762   3.28360   3.28677   3.29236   3.29988
 Alpha virt. eigenvalues --    3.30371   3.30648   3.30807   3.31864   3.32492
 Alpha virt. eigenvalues --    3.32831   3.33161   3.33511   3.34108   3.34539
 Alpha virt. eigenvalues --    3.34909   3.35515   3.35991   3.36618   3.37342
 Alpha virt. eigenvalues --    3.37891   3.37984   3.38714   3.39060   3.39403
 Alpha virt. eigenvalues --    3.39690   3.40342   3.41008   3.41474   3.41951
 Alpha virt. eigenvalues --    3.42321   3.42582   3.42982   3.43760   3.44057
 Alpha virt. eigenvalues --    3.44561   3.45371   3.45706   3.46192   3.46471
 Alpha virt. eigenvalues --    3.46902   3.47183   3.47857   3.48037   3.48214
 Alpha virt. eigenvalues --    3.49135   3.49710   3.49884   3.50532   3.51146
 Alpha virt. eigenvalues --    3.51741   3.52231   3.52747   3.53508   3.53976
 Alpha virt. eigenvalues --    3.54498   3.54831   3.55280   3.55749   3.55895
 Alpha virt. eigenvalues --    3.56377   3.56778   3.57445   3.57596   3.58582
 Alpha virt. eigenvalues --    3.59093   3.59333   3.59822   3.60563   3.60952
 Alpha virt. eigenvalues --    3.61650   3.61687   3.61882   3.62470   3.62651
 Alpha virt. eigenvalues --    3.63103   3.63338   3.63890   3.64311   3.64407
 Alpha virt. eigenvalues --    3.65260   3.66584   3.66746   3.67287   3.67506
 Alpha virt. eigenvalues --    3.68601   3.68926   3.69211   3.70225   3.70815
 Alpha virt. eigenvalues --    3.71836   3.73818   3.74546   3.74987   3.75840
 Alpha virt. eigenvalues --    3.76566   3.77128   3.77557   3.78547   3.79236
 Alpha virt. eigenvalues --    3.80386   3.80785   3.82017   3.82243   3.84695
 Alpha virt. eigenvalues --    3.86374   3.86930   3.87911   3.88875   3.89452
 Alpha virt. eigenvalues --    3.89609   3.91689   3.92593   3.93669   3.94764
 Alpha virt. eigenvalues --    3.96074   3.97080   3.97657   3.98864   3.99270
 Alpha virt. eigenvalues --    4.00061   4.00429   4.01340   4.04042   4.04521
 Alpha virt. eigenvalues --    4.05631   4.05748   4.06798   4.07899   4.09449
 Alpha virt. eigenvalues --    4.09755   4.10511   4.10874   4.11269   4.12468
 Alpha virt. eigenvalues --    4.13782   4.14835   4.15312   4.16572   4.16698
 Alpha virt. eigenvalues --    4.17305   4.18418   4.18778   4.19582   4.19948
 Alpha virt. eigenvalues --    4.20596   4.22160   4.24266   4.24606   4.25197
 Alpha virt. eigenvalues --    4.25377   4.25487   4.26230   4.26923   4.27885
 Alpha virt. eigenvalues --    4.28487   4.28969   4.29935   4.30658   4.30915
 Alpha virt. eigenvalues --    4.31241   4.32047   4.32369   4.32594   4.33338
 Alpha virt. eigenvalues --    4.34027   4.34158   4.34646   4.34849   4.35755
 Alpha virt. eigenvalues --    4.37117   4.37170   4.38609   4.38922   4.40013
 Alpha virt. eigenvalues --    4.41203   4.42159   4.43600   4.44634   4.45371
 Alpha virt. eigenvalues --    4.46613   4.47597   4.48572   4.50060   4.52195
 Alpha virt. eigenvalues --    4.53143   4.53278   4.53647   4.55973   4.57662
 Alpha virt. eigenvalues --    4.58416   4.59604   4.61362   4.62962   4.65196
 Alpha virt. eigenvalues --    4.65510   4.67391   4.67857   4.70030   4.71244
 Alpha virt. eigenvalues --    4.72158   4.72434   4.72891   4.73508   4.75312
 Alpha virt. eigenvalues --    4.76727   4.77103   4.77619   4.80477   4.82899
 Alpha virt. eigenvalues --    4.83356   4.86729   4.88657   4.89278   4.89521
 Alpha virt. eigenvalues --    4.92332   4.93144   4.93234   4.96709   4.97514
 Alpha virt. eigenvalues --    4.98254   4.98840   5.01544   5.03420   5.04977
 Alpha virt. eigenvalues --    5.05738   5.06516   5.08928   5.11972   5.12891
 Alpha virt. eigenvalues --    5.13631   5.15644   5.16418   5.23410   5.23937
 Alpha virt. eigenvalues --    5.24680   5.25530   5.26047   5.28746   5.29456
 Alpha virt. eigenvalues --    5.30609   5.32886   5.33724   5.34865   5.37516
 Alpha virt. eigenvalues --    5.38023   5.38820   5.40743   5.41026   5.42590
 Alpha virt. eigenvalues --    5.43911   5.44337   5.47633   5.48587   5.50440
 Alpha virt. eigenvalues --    5.51614   5.52699   5.54879   5.55781   5.56077
 Alpha virt. eigenvalues --    5.59838   5.63041   5.63513   5.63611   5.67217
 Alpha virt. eigenvalues --    5.68515   5.69183   5.70329   5.73488   5.79839
 Alpha virt. eigenvalues --    5.81730   5.83355   5.85016   5.87185   5.87613
 Alpha virt. eigenvalues --    5.88782   5.90657   5.92808   5.95647   6.01099
 Alpha virt. eigenvalues --    6.10400   6.15131   6.20245   6.35516   6.41120
 Alpha virt. eigenvalues --    6.43849   6.46416   6.47981   6.49138   6.56179
 Alpha virt. eigenvalues --    6.58557   6.64850   6.73068   6.76945   6.82566
 Alpha virt. eigenvalues --    6.84568   6.85369   6.88044   6.95099   6.96342
 Alpha virt. eigenvalues --    7.04652   7.26812   7.32835   7.43457   7.51758
 Alpha virt. eigenvalues --   16.31730  22.40376  22.42596  22.49354  22.55890
 Alpha virt. eigenvalues --   22.61748  22.76564  22.76597  22.78693  22.80380
 Alpha virt. eigenvalues --   22.84779  22.86402  22.86710  22.89657  22.92605
 Alpha virt. eigenvalues --   22.93893  22.96545  23.06262  23.09604  23.14645
 Alpha virt. eigenvalues --   23.17265  23.25509  23.35969  23.46816  23.49684
 Alpha virt. eigenvalues --   23.56010  23.89887  33.45068  43.64887  43.74202
 Alpha virt. eigenvalues --   44.33755
          Condensed to atoms (all electrons):
 Mulliken charges:
               1
     1  C   -0.094624
     2  C   -0.234837
     3  C    0.160344
     4  C    0.074169
     5  C   -0.220674
     6  C   -0.157159
     7  C    0.322428
     8  C    0.066011
     9  C    0.165072
    10  C   -0.236079
    11  H    0.193093
    12  C   -0.094137
    13  C   -0.158575
    14  C   -0.215132
    15  H    0.178203
    16  H    0.192907
    17  H    0.198799
    18  H    0.172156
    19  H    0.178228
    20  H    0.172014
    21  H    0.199541
    22  N    0.224629
    23  C   -0.047581
    24  C   -0.307826
    25  C   -0.225803
    26  C    0.007755
    27  C   -0.161326
    28  C   -0.228257
    29  H    0.163953
    30  H    0.162282
    31  H    0.166626
    32  C   -0.010349
    33  C   -0.253317
    34  C   -0.225363
    35  C   -0.237254
    36  H    0.170232
    37  C   -0.203456
    38  H    0.166610
    39  C    0.396239
    40  H    0.185209
    41  H    0.160649
    42  O   -0.297318
    43  C   -0.233607
    44  H    0.163483
    45  H    0.148465
    46  H    0.148689
    47  H    0.148316
    48  B    0.393292
    49  O   -0.476111
    50  O   -0.495365
    51  H    0.366094
    52  H    0.368660
 Sum of Mulliken charges =   1.00000
 Mulliken charges with hydrogens summed into heavy atoms:
               1
     1  C    0.083579
     2  C   -0.041930
     3  C    0.160344
     4  C    0.074169
     5  C   -0.021875
     6  C    0.014998
     7  C    0.322428
     8  C    0.066011
     9  C    0.165072
    10  C   -0.042985
    12  C    0.084091
    13  C    0.013438
    14  C   -0.015592
    22  N    0.224629
    23  C   -0.047581
    24  C   -0.145545
    25  C   -0.059177
    26  C    0.007755
    27  C    0.002628
    28  C   -0.079941
    32  C   -0.010349
    33  C   -0.083085
    34  C   -0.058753
    35  C   -0.052046
    37  C   -0.042807
    39  C    0.396239
    42  O   -0.297318
    43  C    0.227029
    48  B    0.393292
    49  O   -0.110017
    50  O   -0.126705
 Electronic spatial extent (au):  <R**2>=          15830.8753
 Charge=              1.0000 electrons
 Dipole moment (field-independent basis, Debye):
    X=             -2.3807    Y=              0.9413    Z=             -0.8470  Tot=              2.6965
 Quadrupole moment (field-independent basis, Debye-Ang):
   XX=            -95.1340   YY=           -141.2600   ZZ=           -160.2800
   XY=              6.5136   XZ=            -22.8822   YZ=             -0.0996
 Traceless Quadrupole moment (field-independent basis, Debye-Ang):
   XX=             37.0907   YY=             -9.0354   ZZ=            -28.0553
   XY=              6.5136   XZ=            -22.8822   YZ=             -0.0996
 Octapole moment (field-independent basis, Debye-Ang**2):
  XXX=            -26.9336  YYY=              3.4272  ZZZ=             34.7183  XYY=             -6.7423
  XXY=             10.1518  XXZ=             68.1715  XZZ=            -16.0259  YZZ=             -8.8112
  YYZ=             -2.3459  XYZ=             -9.8881
 Hexadecapole moment (field-independent basis, Debye-Ang**3):
 XXXX=         -12458.5253 YYYY=          -2416.0259 ZZZZ=          -1231.7371 XXXY=            342.2625
 XXXZ=          -1086.8620 YYYX=            -44.3304 YYYZ=            103.8536 ZZZX=            109.8929
 ZZZY=           -106.1780 XXYY=          -3207.0948 XXZZ=          -2481.3516 YYZZ=           -782.9454
 XXYZ=           -153.5665 YYXZ=             17.0216 ZZXY=            -28.1614
 N-N= 2.791109929820D+03 E-N=-8.603529517579D+03  KE= 1.302485179979D+03
 Leave Link  601 at Sun Apr  4 22:43:08 2021, MaxMem=  5242880000 cpu:         7.2
 (Enter /opt/nce/packages/global/g09/l9999.exe)
 1\1\GINC-CN078\SP\RwB97XD TD-FC\Gen\C26H21B1N1O3(1+)\PNG4RJV\04-Apr-20
 21\0\\#p wB97XD chkbasis geom=allcheck Guess=Read int=ultrafine scrf=(
 SMD,solvent=Acetonitrile) td=(NStates=30)\\Title\\1,1\C,0,1.0150026952
 ,3.5979587004,-0.5953476713\C,0,1.6388868126,2.4091872951,-0.356839743
 5\C,0,0.8745814712,1.2746976134,-0.006844153\C,0,-0.536913911,1.387269
 9286,0.1030382298\C,0,-1.1420714565,2.6465596915,-0.1679182646\C,0,-0.
 3878752462,3.7240348693,-0.5068096474\C,0,-1.2917768637,0.2623776717,0
 .4601989678\C,0,-0.6461563697,-0.9572716965,0.70162388\C,0,0.765474663
 ,-1.0384008607,0.5685223529\C,0,1.4178526331,-2.2689786286,0.800097874
 5\H,0,2.4892359444,-2.3426479396,0.6941626882\C,0,0.6888347728,-3.3639
 306528,1.1591895311\C,0,-0.7126940209,-3.2978803319,1.3115779596\C,0,-
 1.3610543893,-2.1254568398,1.0888883721\H,0,1.6112258606,4.4611600349,
 -0.8625580189\H,0,2.7126242582,2.3354648493,-0.4365438139\H,0,-2.21749
 18297,2.7313047509,-0.102725408\H,0,-0.8560919757,4.6774215644,-0.7116
 376766\H,0,1.1999889146,-4.3019751909,1.3348101755\H,0,-1.2635371843,-
 4.1808317778,1.6066304956\H,0,-2.4334351067,-2.0631977213,1.2077635949
 \N,0,1.4758505568,0.072434729,0.2214822648\C,0,-2.7686653039,0.3588757
 968,0.5747043873\C,0,-3.5746378867,-0.136665821,-0.441886276\C,0,-3.34
 90345905,0.9423205717,1.6956068516\C,0,-4.9656631525,-0.0534867316,-0.
 3689413445\C,0,-4.7289998645,1.0213363576,1.7911927733\C,0,-5.52624076
 09,0.5318324807,0.7677841525\H,0,-5.1818371026,1.4686464977,2.66696277
 06\H,0,-3.109521473,-0.5925919078,-1.3077826632\H,0,-2.7218808616,1.32
 95385564,2.4893425479\C,0,2.9115847175,-0.0278095407,0.0925164534\C,0,
 3.4634162025,-0.3428586029,-1.1318485512\C,0,3.7132800828,0.1941630617
 ,1.2019018659\C,0,4.8405377703,-0.4403261226,-1.2648386426\H,0,2.82104
 97785,-0.5130705584,-1.9866969881\C,0,5.082680397,0.0984450023,1.07707
 49546\H,0,3.2627008978,0.4399121563,2.1552848834\C,0,5.6564509899,-0.2
 191954983,-0.15701423\H,0,5.26101181,-0.6868661868,-2.2288592017\H,0,5
 .7277065417,0.2676811825,1.9294809981\O,0,6.9988068404,-0.2895802343,-
 0.1814825432\C,0,7.6367581694,-0.6125896597,-1.4069571534\H,0,8.703874
 0868,-0.6164866018,-1.1967621555\H,0,7.3341641758,-1.6011276534,-1.762
 2405455\H,0,7.4219387382,0.135467639,-2.1744626415\H,0,-6.6033059858,0
 .6100584143,0.873822856\B,0,-5.8412393932,-0.6170483177,-1.5504219329\
 O,0,-7.1951452172,-0.4655244252,-1.6401231999\O,0,-5.2068470409,-1.297
 5595586,-2.5479348221\H,0,-7.5967093,0.0380532398,-0.9280058657\H,0,-5
 .807865494,-1.5986395945,-3.2358997274\\Version=ES64L-G09RevE.01\State
 =1-A\HF=-1308.7327265\RMSD=3.334e-09\PG=C01 [X(C26H21B1N1O3)]\\@


 THAT'S WHAT MAKES US A GREAT COUNTRY.
 THE LITTLE THINGS ARE SERIOUS AND THE BIG ONES ARE NOT.
           WILL ROGERS
 Job cpu time:       2 days  9 hours  5 minutes 20.0 seconds.
 File lengths (MBytes):  RWF=   5861 Int=      0 D2E=      0 Chk=   1054 Scr=      1
 Normal termination of Gaussian 09 at Sun Apr  4 22:43:10 2021.
