 Entering Gaussian System, Link 0=g09
 Input=/home/png4rjv/fotokatalizis/benchmark/OPCs/BOH-Acr_m_M06L_def2TZVP.gjf
 Output=/home/png4rjv/fotokatalizis/benchmark/OPCs/BOH-Acr_m_M06L_def2TZVP.log
 Initial command:
 /opt/nce/packages/global/g09/l1.exe "/home/png4rjv/fotokatalizis/benchmark/OPCs/BOH-Acr_m_M06L_def2TZVP/Gau-33530.inp" -scrdir="/home/png4rjv/fotokatalizis/benchmark/OPCs/BOH-Acr_m_M06L_def2TZVP/"
 Default is to use a total of  12 processors:
                               12 via shared-memory
                                1 via Linda
 Entering Link 1 = /opt/nce/packages/global/g09/l1.exe PID=     33531.
  
 Copyright (c) 1988,1990,1992,1993,1995,1998,2003,2009,2015,
            Gaussian, Inc.  All Rights Reserved.
  
 This is part of the Gaussian(R) 09 program.  It is based on
 the Gaussian(R) 03 system (copyright 2003, Gaussian, Inc.),
 the Gaussian(R) 98 system (copyright 1998, Gaussian, Inc.),
 the Gaussian(R) 94 system (copyright 1995, Gaussian, Inc.),
 the Gaussian 92(TM) system (copyright 1992, Gaussian, Inc.),
 the Gaussian 90(TM) system (copyright 1990, Gaussian, Inc.),
 the Gaussian 88(TM) system (copyright 1988, Gaussian, Inc.),
 the Gaussian 86(TM) system (copyright 1986, Carnegie Mellon
 University), and the Gaussian 82(TM) system (copyright 1983,
 Carnegie Mellon University). Gaussian is a federally registered
 trademark of Gaussian, Inc.
  
 This software contains proprietary and confidential information,
 including trade secrets, belonging to Gaussian, Inc.
  
 This software is provided under written license and may be
 used, copied, transmitted, or stored only in accord with that
 written license.
  
 The following legend is applicable only to US Government
 contracts under FAR:
  
                    RESTRICTED RIGHTS LEGEND
  
 Use, reproduction and disclosure by the US Government is
 subject to restrictions as set forth in subparagraphs (a)
 and (c) of the Commercial Computer Software - Restricted
 Rights clause in FAR 52.227-19.
  
 Gaussian, Inc.
 340 Quinnipiac St., Bldg. 40, Wallingford CT 06492
  
  
 ---------------------------------------------------------------
 Warning -- This program may not be used in any manner that
 competes with the business of Gaussian, Inc. or will provide
 assistance to any competitor of Gaussian, Inc.  The licensee
 of this program is prohibited from giving any competitor of
 Gaussian, Inc. access to this program.  By using this program,
 the user acknowledges that Gaussian, Inc. is engaged in the
 business of creating and licensing software in the field of
 computational chemistry and represents and warrants to the
 licensee that it is not a competitor of Gaussian, Inc. and that
 it will not use this program in any manner prohibited above.
 ---------------------------------------------------------------
  

 Cite this work as:
 Gaussian 09, Revision E.01,
 M. J. Frisch, G. W. Trucks, H. B. Schlegel, G. E. Scuseria, 
 M. A. Robb, J. R. Cheeseman, G. Scalmani, V. Barone, B. Mennucci, 
 G. A. Petersson, H. Nakatsuji, M. Caricato, X. Li, H. P. Hratchian, 
 A. F. Izmaylov, J. Bloino, G. Zheng, J. L. Sonnenberg, M. Hada, 
 M. Ehara, K. Toyota, R. Fukuda, J. Hasegawa, M. Ishida, T. Nakajima, 
 Y. Honda, O. Kitao, H. Nakai, T. Vreven, J. A. Montgomery, Jr., 
 J. E. Peralta, F. Ogliaro, M. Bearpark, J. J. Heyd, E. Brothers, 
 K. N. Kudin, V. N. Staroverov, T. Keith, R. Kobayashi, J. Normand, 
 K. Raghavachari, A. Rendell, J. C. Burant, S. S. Iyengar, J. Tomasi, 
 M. Cossi, N. Rega, J. M. Millam, M. Klene, J. E. Knox, J. B. Cross, 
 V. Bakken, C. Adamo, J. Jaramillo, R. Gomperts, R. E. Stratmann, 
 O. Yazyev, A. J. Austin, R. Cammi, C. Pomelli, J. W. Ochterski, 
 R. L. Martin, K. Morokuma, V. G. Zakrzewski, G. A. Voth, 
 P. Salvador, J. J. Dannenberg, S. Dapprich, A. D. Daniels, 
 O. Farkas, J. B. Foresman, J. V. Ortiz, J. Cioslowski, 
 and D. J. Fox, Gaussian, Inc., Wallingford CT, 2013.
 
 ******************************************
 Gaussian 09:  ES64L-G09RevE.01 30-Nov-2015
                16-Feb-2021 
 ******************************************
 %chk=cp.chk
 Default route:  MaxDisk=500GB
 ----------------------------------------------------------------------
 #p m06l/def2TZVP opt freq=noraman nosymm int=ultrafine scrf=(SMD,solve
 nt=Acetonitrile)
 ----------------------------------------------------------------------
 1/14=-1,18=20,19=15,26=4,38=1/1,3;
 2/9=110,12=2,15=1,17=6,18=5,40=1/2;
 3/5=44,7=101,11=2,16=1,25=1,30=1,70=32201,71=1,72=2,74=-53,75=-5/1,2,3;
 4//1;
 5/5=2,38=5,53=2/2;
 6/7=2,8=2,9=2,10=2,28=1/1;
 7/30=1/1,2,3,16;
 1/14=-1,18=20,19=15,26=4/3(2);
 2/9=110,15=1/2;
 99//99;
 2/9=110,15=1/2;
 3/5=44,7=101,11=2,16=1,25=1,30=1,70=32205,71=1,72=2,74=-53,75=-5/1,2,3;
 4/5=5,16=3,69=1/1;
 5/5=2,38=5,53=2/2;
 7/30=1/1,2,3,16;
 1/14=-1,18=20,19=15,26=4/3(-5);
 2/9=110,15=1/2;
 6/7=2,8=2,9=2,10=2,19=2,28=1/1;
 99/9=1/99;
 Leave Link    1 at Tue Feb 16 04:33:55 2021, MaxMem=           0 cpu:         1.3
 (Enter /opt/nce/packages/global/g09/l101.exe)
 -----
 Title
 -----
 Symbolic Z-matrix:
 Charge =  1 Multiplicity = 1
 C                     1.09453   3.68941  -0.43548 
 C                     1.69576   2.46377  -0.24153 
 C                     0.90048   1.32237   0.02896 
 C                    -0.52643   1.45504   0.12255 
 C                    -1.10299   2.74127  -0.11549 
 C                    -0.31431   3.833    -0.38455 
 C                    -1.31826   0.31625   0.41505 
 C                    -0.68643  -0.94029   0.59126 
 C                     0.74037  -1.04164   0.45918 
 C                     1.37297  -2.2995    0.61813 
 H                     2.45224  -2.3776    0.50821 
 C                     0.61846  -3.41465   0.91609 
 C                    -0.78616  -3.32897   1.08151 
 C                    -1.42013  -2.1206    0.92652 
 H                     1.71832   4.56128  -0.64408 
 H                     2.77747   2.36532  -0.29857 
 H                    -2.18714   2.83768  -0.08946 
 H                    -0.76839   4.80834  -0.56693 
 H                     1.11795  -4.37832   1.0372 
 H                    -1.35915  -4.2214    1.33821 
 H                    -2.49723  -2.04248   1.06359 
 N                     1.48124   0.08616   0.19133 
 C                    -2.7905    0.43578   0.53206 
 C                    -3.62567  -0.23348  -0.37526 
 C                    -3.36344   1.21579   1.55272 
 C                    -5.02388  -0.13314  -0.29503 
 C                    -4.75055   1.30862   1.65979 
 C                    -5.56761   0.64406   0.74133 
 H                    -5.19413   1.89863   2.46449 
 H                    -3.18806  -0.83723  -1.17293 
 H                    -2.72175   1.73      2.27155 
 C                     2.92103  -0.03153   0.08011 
 C                     3.50071  -0.27956  -1.16187 
 C                     3.7164    0.10517   1.22432 
 C                     4.88767  -0.39447  -1.27565 
 H                     2.86932  -0.38443  -2.04652 
 C                     5.09518  -0.00749   1.11797 
 H                     3.25079   0.29923   2.19261 
 C                     5.69733  -0.2587   -0.13273 
 H                     5.32554  -0.58881  -2.25357 
 H                     5.74089   0.09445   1.9913 
 O                     7.03406  -0.35108  -0.13382 
 C                     7.72278  -0.60216  -1.3475 
 H                     8.78946  -0.63357  -1.09528 
 H                     7.42498  -1.56998  -1.78554 
 H                     7.54738   0.20167  -2.08256 
 H                    -6.65256   0.73268   0.85255 
 B                    -5.90914  -0.90346  -1.3534 
 O                    -7.25422  -0.74808  -1.48314 
 O                    -5.26358  -1.77071  -2.17745 
 H                    -7.66223  -0.09129  -0.90831 
 H                    -5.86053  -2.19716  -2.80764 
 
 NAtoms=     52 NQM=       52 NQMF=       0 NMMI=      0 NMMIF=      0
                NMic=       0 NMicF=      0.
                    Isotopes and Nuclear Properties:
 (Nuclear quadrupole moments (NQMom) in fm**2, nuclear magnetic moments (NMagM)
  in nuclear magnetons)

  Atom         1           2           3           4           5           6           7           8           9          10
 IAtWgt=          12          12          12          12          12          12          12          12          12          12
 AtmWgt=  12.0000000  12.0000000  12.0000000  12.0000000  12.0000000  12.0000000  12.0000000  12.0000000  12.0000000  12.0000000
 NucSpn=           0           0           0           0           0           0           0           0           0           0
 AtZEff=   0.0000000   0.0000000   0.0000000   0.0000000   0.0000000   0.0000000   0.0000000   0.0000000   0.0000000   0.0000000
 NQMom=    0.0000000   0.0000000   0.0000000   0.0000000   0.0000000   0.0000000   0.0000000   0.0000000   0.0000000   0.0000000
 NMagM=    0.0000000   0.0000000   0.0000000   0.0000000   0.0000000   0.0000000   0.0000000   0.0000000   0.0000000   0.0000000
 AtZNuc=   6.0000000   6.0000000   6.0000000   6.0000000   6.0000000   6.0000000   6.0000000   6.0000000   6.0000000   6.0000000

  Atom        11          12          13          14          15          16          17          18          19          20
 IAtWgt=           1          12          12          12           1           1           1           1           1           1
 AtmWgt=   1.0078250  12.0000000  12.0000000  12.0000000   1.0078250   1.0078250   1.0078250   1.0078250   1.0078250   1.0078250
 NucSpn=           1           0           0           0           1           1           1           1           1           1
 AtZEff=   0.0000000   0.0000000   0.0000000   0.0000000   0.0000000   0.0000000   0.0000000   0.0000000   0.0000000   0.0000000
 NQMom=    0.0000000   0.0000000   0.0000000   0.0000000   0.0000000   0.0000000   0.0000000   0.0000000   0.0000000   0.0000000
 NMagM=    2.7928460   0.0000000   0.0000000   0.0000000   2.7928460   2.7928460   2.7928460   2.7928460   2.7928460   2.7928460
 AtZNuc=   1.0000000   6.0000000   6.0000000   6.0000000   1.0000000   1.0000000   1.0000000   1.0000000   1.0000000   1.0000000

  Atom        21          22          23          24          25          26          27          28          29          30
 IAtWgt=           1          14          12          12          12          12          12          12           1           1
 AtmWgt=   1.0078250  14.0030740  12.0000000  12.0000000  12.0000000  12.0000000  12.0000000  12.0000000   1.0078250   1.0078250
 NucSpn=           1           2           0           0           0           0           0           0           1           1
 AtZEff=   0.0000000   0.0000000   0.0000000   0.0000000   0.0000000   0.0000000   0.0000000   0.0000000   0.0000000   0.0000000
 NQMom=    0.0000000   2.0440000   0.0000000   0.0000000   0.0000000   0.0000000   0.0000000   0.0000000   0.0000000   0.0000000
 NMagM=    2.7928460   0.4037610   0.0000000   0.0000000   0.0000000   0.0000000   0.0000000   0.0000000   2.7928460   2.7928460
 AtZNuc=   1.0000000   7.0000000   6.0000000   6.0000000   6.0000000   6.0000000   6.0000000   6.0000000   1.0000000   1.0000000

  Atom        31          32          33          34          35          36          37          38          39          40
 IAtWgt=           1          12          12          12          12           1          12           1          12           1
 AtmWgt=   1.0078250  12.0000000  12.0000000  12.0000000  12.0000000   1.0078250  12.0000000   1.0078250  12.0000000   1.0078250
 NucSpn=           1           0           0           0           0           1           0           1           0           1
 AtZEff=   0.0000000   0.0000000   0.0000000   0.0000000   0.0000000   0.0000000   0.0000000   0.0000000   0.0000000   0.0000000
 NQMom=    0.0000000   0.0000000   0.0000000   0.0000000   0.0000000   0.0000000   0.0000000   0.0000000   0.0000000   0.0000000
 NMagM=    2.7928460   0.0000000   0.0000000   0.0000000   0.0000000   2.7928460   0.0000000   2.7928460   0.0000000   2.7928460
 AtZNuc=   1.0000000   6.0000000   6.0000000   6.0000000   6.0000000   1.0000000   6.0000000   1.0000000   6.0000000   1.0000000

  Atom        41          42          43          44          45          46          47          48          49          50
 IAtWgt=           1          16          12           1           1           1           1          11          16          16
 AtmWgt=   1.0078250  15.9949146  12.0000000   1.0078250   1.0078250   1.0078250   1.0078250  11.0093053  15.9949146  15.9949146
 NucSpn=           1           0           0           1           1           1           1           3           0           0
 AtZEff=   0.0000000   0.0000000   0.0000000   0.0000000   0.0000000   0.0000000   0.0000000   0.0000000   0.0000000   0.0000000
 NQMom=    0.0000000   0.0000000   0.0000000   0.0000000   0.0000000   0.0000000   0.0000000   4.0590000   0.0000000   0.0000000
 NMagM=    2.7928460   0.0000000   0.0000000   2.7928460   2.7928460   2.7928460   2.7928460   2.6886370   0.0000000   0.0000000
 AtZNuc=   1.0000000   8.0000000   6.0000000   1.0000000   1.0000000   1.0000000   1.0000000   5.0000000   8.0000000   8.0000000

  Atom        51          52
 IAtWgt=           1           1
 AtmWgt=   1.0078250   1.0078250
 NucSpn=           1           1
 AtZEff=   0.0000000   0.0000000
 NQMom=    0.0000000   0.0000000
 NMagM=    2.7928460   2.7928460
 AtZNuc=   1.0000000   1.0000000
 Leave Link  101 at Tue Feb 16 04:33:55 2021, MaxMem=  5242880000 cpu:         4.0
 (Enter /opt/nce/packages/global/g09/l103.exe)

 GradGradGradGradGradGradGradGradGradGradGradGradGradGradGradGradGradGrad
 Berny optimization.
 Initialization pass.
                           ----------------------------
                           !    Initial Parameters    !
                           ! (Angstroms and Degrees)  !
 --------------------------                            --------------------------
 ! Name  Definition              Value          Derivative Info.                !
 --------------------------------------------------------------------------------
 ! R1    R(1,2)                  1.3789         estimate D2E/DX2                !
 ! R2    R(1,6)                  1.417          estimate D2E/DX2                !
 ! R3    R(1,15)                 1.0922         estimate D2E/DX2                !
 ! R4    R(2,3)                  1.4172         estimate D2E/DX2                !
 ! R5    R(2,16)                 1.0877         estimate D2E/DX2                !
 ! R6    R(3,4)                  1.4361         estimate D2E/DX2                !
 ! R7    R(3,22)                 1.3754         estimate D2E/DX2                !
 ! R8    R(4,5)                  1.4295         estimate D2E/DX2                !
 ! R9    R(4,7)                  1.4175         estimate D2E/DX2                !
 ! R10   R(5,6)                  1.3734         estimate D2E/DX2                !
 ! R11   R(5,17)                 1.0887         estimate D2E/DX2                !
 ! R12   R(6,18)                 1.0912         estimate D2E/DX2                !
 ! R13   R(7,8)                  1.4174         estimate D2E/DX2                !
 ! R14   R(7,23)                 1.4817         estimate D2E/DX2                !
 ! R15   R(8,9)                  1.4365         estimate D2E/DX2                !
 ! R16   R(8,14)                 1.4296         estimate D2E/DX2                !
 ! R17   R(9,10)                 1.4169         estimate D2E/DX2                !
 ! R18   R(9,22)                 1.3757         estimate D2E/DX2                !
 ! R19   R(10,11)                1.0877         estimate D2E/DX2                !
 ! R20   R(10,12)                1.379          estimate D2E/DX2                !
 ! R21   R(12,13)                1.4169         estimate D2E/DX2                !
 ! R22   R(12,19)                1.0922         estimate D2E/DX2                !
 ! R23   R(13,14)                1.3733         estimate D2E/DX2                !
 ! R24   R(13,20)                1.0912         estimate D2E/DX2                !
 ! R25   R(14,21)                1.0886         estimate D2E/DX2                !
 ! R26   R(22,32)                1.4489         estimate D2E/DX2                !
 ! R27   R(23,24)                1.4031         estimate D2E/DX2                !
 ! R28   R(23,25)                1.4066         estimate D2E/DX2                !
 ! R29   R(24,26)                1.4041         estimate D2E/DX2                !
 ! R30   R(24,30)                1.0919         estimate D2E/DX2                !
 ! R31   R(25,27)                1.3943         estimate D2E/DX2                !
 ! R32   R(25,31)                1.0922         estimate D2E/DX2                !
 ! R33   R(26,28)                1.4049         estimate D2E/DX2                !
 ! R34   R(26,48)                1.5803         estimate D2E/DX2                !
 ! R35   R(27,28)                1.3974         estimate D2E/DX2                !
 ! R36   R(27,29)                1.092          estimate D2E/DX2                !
 ! R37   R(28,47)                1.0942         estimate D2E/DX2                !
 ! R38   R(32,33)                1.3929         estimate D2E/DX2                !
 ! R39   R(32,34)                1.4002         estimate D2E/DX2                !
 ! R40   R(33,35)                1.3964         estimate D2E/DX2                !
 ! R41   R(33,36)                1.0919         estimate D2E/DX2                !
 ! R42   R(34,37)                1.3875         estimate D2E/DX2                !
 ! R43   R(34,38)                1.0918         estimate D2E/DX2                !
 ! R44   R(35,39)                1.4072         estimate D2E/DX2                !
 ! R45   R(35,40)                1.089          estimate D2E/DX2                !
 ! R46   R(37,39)                1.4107         estimate D2E/DX2                !
 ! R47   R(37,41)                1.0909         estimate D2E/DX2                !
 ! R48   R(39,42)                1.3399         estimate D2E/DX2                !
 ! R49   R(42,43)                1.4179         estimate D2E/DX2                !
 ! R50   R(43,44)                1.0965         estimate D2E/DX2                !
 ! R51   R(43,45)                1.1033         estimate D2E/DX2                !
 ! R52   R(43,46)                1.1033         estimate D2E/DX2                !
 ! R53   R(48,49)                1.3602         estimate D2E/DX2                !
 ! R54   R(48,50)                1.3594         estimate D2E/DX2                !
 ! R55   R(49,51)                0.9635         estimate D2E/DX2                !
 ! R56   R(50,52)                0.9671         estimate D2E/DX2                !
 ! A1    A(2,1,6)              121.233          estimate D2E/DX2                !
 ! A2    A(2,1,15)             119.1704         estimate D2E/DX2                !
 ! A3    A(6,1,15)             119.5923         estimate D2E/DX2                !
 ! A4    A(1,2,3)              119.8712         estimate D2E/DX2                !
 ! A5    A(1,2,16)             120.4455         estimate D2E/DX2                !
 ! A6    A(3,2,16)             119.6828         estimate D2E/DX2                !
 ! A7    A(2,3,4)              119.7098         estimate D2E/DX2                !
 ! A8    A(2,3,22)             120.6273         estimate D2E/DX2                !
 ! A9    A(4,3,22)             119.6606         estimate D2E/DX2                !
 ! A10   A(3,4,5)              118.2297         estimate D2E/DX2                !
 ! A11   A(3,4,7)              119.6205         estimate D2E/DX2                !
 ! A12   A(5,4,7)              122.1346         estimate D2E/DX2                !
 ! A13   A(4,5,6)              121.0807         estimate D2E/DX2                !
 ! A14   A(4,5,17)             118.5109         estimate D2E/DX2                !
 ! A15   A(6,5,17)             120.4054         estimate D2E/DX2                !
 ! A16   A(1,6,5)              119.8289         estimate D2E/DX2                !
 ! A17   A(1,6,18)             119.886          estimate D2E/DX2                !
 ! A18   A(5,6,18)             120.2834         estimate D2E/DX2                !
 ! A19   A(4,7,8)              119.2631         estimate D2E/DX2                !
 ! A20   A(4,7,23)             120.432          estimate D2E/DX2                !
 ! A21   A(8,7,23)             120.3047         estimate D2E/DX2                !
 ! A22   A(7,8,9)              119.5947         estimate D2E/DX2                !
 ! A23   A(7,8,14)             122.1594         estimate D2E/DX2                !
 ! A24   A(9,8,14)             118.2332         estimate D2E/DX2                !
 ! A25   A(8,9,10)             119.7205         estimate D2E/DX2                !
 ! A26   A(8,9,22)             119.6681         estimate D2E/DX2                !
 ! A27   A(10,9,22)            120.6088         estimate D2E/DX2                !
 ! A28   A(9,10,11)            119.6976         estimate D2E/DX2                !
 ! A29   A(9,10,12)            119.8579         estimate D2E/DX2                !
 ! A30   A(11,10,12)           120.444          estimate D2E/DX2                !
 ! A31   A(10,12,13)           121.2463         estimate D2E/DX2                !
 ! A32   A(10,12,19)           119.1602         estimate D2E/DX2                !
 ! A33   A(13,12,19)           119.5898         estimate D2E/DX2                !
 ! A34   A(12,13,14)           119.8446         estimate D2E/DX2                !
 ! A35   A(12,13,20)           119.9052         estimate D2E/DX2                !
 ! A36   A(14,13,20)           120.2489         estimate D2E/DX2                !
 ! A37   A(8,14,13)            121.0631         estimate D2E/DX2                !
 ! A38   A(8,14,21)            118.5593         estimate D2E/DX2                !
 ! A39   A(13,14,21)           120.3766         estimate D2E/DX2                !
 ! A40   A(3,22,9)             122.1677         estimate D2E/DX2                !
 ! A41   A(3,22,32)            118.9167         estimate D2E/DX2                !
 ! A42   A(9,22,32)            118.9154         estimate D2E/DX2                !
 ! A43   A(7,23,24)            120.1251         estimate D2E/DX2                !
 ! A44   A(7,23,25)            120.449          estimate D2E/DX2                !
 ! A45   A(24,23,25)           119.4257         estimate D2E/DX2                !
 ! A46   A(23,24,26)           121.4466         estimate D2E/DX2                !
 ! A47   A(23,24,30)           119.8402         estimate D2E/DX2                !
 ! A48   A(26,24,30)           118.708          estimate D2E/DX2                !
 ! A49   A(23,25,27)           119.8589         estimate D2E/DX2                !
 ! A50   A(23,25,31)           119.9564         estimate D2E/DX2                !
 ! A51   A(27,25,31)           120.1723         estimate D2E/DX2                !
 ! A52   A(24,26,28)           117.8455         estimate D2E/DX2                !
 ! A53   A(24,26,48)           118.9958         estimate D2E/DX2                !
 ! A54   A(28,26,48)           123.1554         estimate D2E/DX2                !
 ! A55   A(25,27,28)           119.969          estimate D2E/DX2                !
 ! A56   A(25,27,29)           119.7799         estimate D2E/DX2                !
 ! A57   A(28,27,29)           120.2508         estimate D2E/DX2                !
 ! A58   A(26,28,27)           121.4422         estimate D2E/DX2                !
 ! A59   A(26,28,47)           120.2337         estimate D2E/DX2                !
 ! A60   A(27,28,47)           118.3207         estimate D2E/DX2                !
 ! A61   A(22,32,33)           119.7671         estimate D2E/DX2                !
 ! A62   A(22,32,34)           119.5925         estimate D2E/DX2                !
 ! A63   A(33,32,34)           120.6404         estimate D2E/DX2                !
 ! A64   A(32,33,35)           120.0455         estimate D2E/DX2                !
 ! A65   A(32,33,36)           119.926          estimate D2E/DX2                !
 ! A66   A(35,33,36)           120.0285         estimate D2E/DX2                !
 ! A67   A(32,34,37)           119.5991         estimate D2E/DX2                !
 ! A68   A(32,34,38)           119.99           estimate D2E/DX2                !
 ! A69   A(37,34,38)           120.4109         estimate D2E/DX2                !
 ! A70   A(33,35,39)           119.8261         estimate D2E/DX2                !
 ! A71   A(33,35,40)           119.1606         estimate D2E/DX2                !
 ! A72   A(39,35,40)           121.0133         estimate D2E/DX2                !
 ! A73   A(34,37,39)           120.4382         estimate D2E/DX2                !
 ! A74   A(34,37,41)           121.2827         estimate D2E/DX2                !
 ! A75   A(39,37,41)           118.2791         estimate D2E/DX2                !
 ! A76   A(35,39,37)           119.4508         estimate D2E/DX2                !
 ! A77   A(35,39,42)           124.5189         estimate D2E/DX2                !
 ! A78   A(37,39,42)           116.0303         estimate D2E/DX2                !
 ! A79   A(39,42,43)           119.8341         estimate D2E/DX2                !
 ! A80   A(42,43,44)           106.3018         estimate D2E/DX2                !
 ! A81   A(42,43,45)           111.351          estimate D2E/DX2                !
 ! A82   A(42,43,46)           111.3487         estimate D2E/DX2                !
 ! A83   A(44,43,45)           109.194          estimate D2E/DX2                !
 ! A84   A(44,43,46)           109.1939         estimate D2E/DX2                !
 ! A85   A(45,43,46)           109.3719         estimate D2E/DX2                !
 ! A86   A(26,48,49)           124.2055         estimate D2E/DX2                !
 ! A87   A(26,48,50)           116.8044         estimate D2E/DX2                !
 ! A88   A(49,48,50)           118.99           estimate D2E/DX2                !
 ! A89   A(48,49,51)           116.0861         estimate D2E/DX2                !
 ! A90   A(48,50,52)           112.5309         estimate D2E/DX2                !
 ! D1    D(6,1,2,3)             -0.6992         estimate D2E/DX2                !
 ! D2    D(6,1,2,16)           179.0549         estimate D2E/DX2                !
 ! D3    D(15,1,2,3)          -179.9467         estimate D2E/DX2                !
 ! D4    D(15,1,2,16)           -0.1926         estimate D2E/DX2                !
 ! D5    D(2,1,6,5)              1.1059         estimate D2E/DX2                !
 ! D6    D(2,1,6,18)          -178.4132         estimate D2E/DX2                !
 ! D7    D(15,1,6,5)          -179.6498         estimate D2E/DX2                !
 ! D8    D(15,1,6,18)            0.8311         estimate D2E/DX2                !
 ! D9    D(1,2,3,4)             -1.0941         estimate D2E/DX2                !
 ! D10   D(1,2,3,22)           178.3408         estimate D2E/DX2                !
 ! D11   D(16,2,3,4)           179.1498         estimate D2E/DX2                !
 ! D12   D(16,2,3,22)           -1.4152         estimate D2E/DX2                !
 ! D13   D(2,3,4,5)              2.4304         estimate D2E/DX2                !
 ! D14   D(2,3,4,7)           -178.9614         estimate D2E/DX2                !
 ! D15   D(22,3,4,5)          -177.01           estimate D2E/DX2                !
 ! D16   D(22,3,4,7)             1.5982         estimate D2E/DX2                !
 ! D17   D(2,3,22,9)           179.775          estimate D2E/DX2                !
 ! D18   D(2,3,22,32)           -0.0581         estimate D2E/DX2                !
 ! D19   D(4,3,22,9)            -0.7898         estimate D2E/DX2                !
 ! D20   D(4,3,22,32)          179.3771         estimate D2E/DX2                !
 ! D21   D(3,4,5,6)             -2.0566         estimate D2E/DX2                !
 ! D22   D(3,4,5,17)           177.3165         estimate D2E/DX2                !
 ! D23   D(7,4,5,6)            179.3722         estimate D2E/DX2                !
 ! D24   D(7,4,5,17)            -1.2547         estimate D2E/DX2                !
 ! D25   D(3,4,7,8)             -0.9059         estimate D2E/DX2                !
 ! D26   D(3,4,7,23)           179.2549         estimate D2E/DX2                !
 ! D27   D(5,4,7,8)            177.646          estimate D2E/DX2                !
 ! D28   D(5,4,7,23)            -2.1932         estimate D2E/DX2                !
 ! D29   D(4,5,6,1)              0.3192         estimate D2E/DX2                !
 ! D30   D(4,5,6,18)           179.8364         estimate D2E/DX2                !
 ! D31   D(17,5,6,1)          -179.042          estimate D2E/DX2                !
 ! D32   D(17,5,6,18)            0.4751         estimate D2E/DX2                !
 ! D33   D(4,7,8,9)             -0.5561         estimate D2E/DX2                !
 ! D34   D(4,7,8,14)           178.1214         estimate D2E/DX2                !
 ! D35   D(23,7,8,9)           179.2832         estimate D2E/DX2                !
 ! D36   D(23,7,8,14)           -2.0392         estimate D2E/DX2                !
 ! D37   D(4,7,23,24)          116.0962         estimate D2E/DX2                !
 ! D38   D(4,7,23,25)          -64.0792         estimate D2E/DX2                !
 ! D39   D(8,7,23,24)          -63.7412         estimate D2E/DX2                !
 ! D40   D(8,7,23,25)          116.0833         estimate D2E/DX2                !
 ! D41   D(7,8,9,10)          -179.2072         estimate D2E/DX2                !
 ! D42   D(7,8,9,22)             1.3758         estimate D2E/DX2                !
 ! D43   D(14,8,9,10)            2.0635         estimate D2E/DX2                !
 ! D44   D(14,8,9,22)         -177.3535         estimate D2E/DX2                !
 ! D45   D(7,8,14,13)          179.4746         estimate D2E/DX2                !
 ! D46   D(7,8,14,21)           -0.891          estimate D2E/DX2                !
 ! D47   D(9,8,14,13)           -1.8306         estimate D2E/DX2                !
 ! D48   D(9,8,14,21)          177.8038         estimate D2E/DX2                !
 ! D49   D(8,9,10,11)          179.3905         estimate D2E/DX2                !
 ! D50   D(8,9,10,12)           -0.8686         estimate D2E/DX2                !
 ! D51   D(22,9,10,11)          -1.1981         estimate D2E/DX2                !
 ! D52   D(22,9,10,12)         178.5427         estimate D2E/DX2                !
 ! D53   D(8,9,22,3)            -0.6961         estimate D2E/DX2                !
 ! D54   D(8,9,22,32)          179.137          estimate D2E/DX2                !
 ! D55   D(10,9,22,3)          179.8923         estimate D2E/DX2                !
 ! D56   D(10,9,22,32)          -0.2746         estimate D2E/DX2                !
 ! D57   D(9,10,12,13)          -0.6323         estimate D2E/DX2                !
 ! D58   D(9,10,12,19)        -179.935          estimate D2E/DX2                !
 ! D59   D(11,10,12,13)        179.1065         estimate D2E/DX2                !
 ! D60   D(11,10,12,19)         -0.1962         estimate D2E/DX2                !
 ! D61   D(10,12,13,14)          0.893          estimate D2E/DX2                !
 ! D62   D(10,12,13,20)       -178.6858         estimate D2E/DX2                !
 ! D63   D(19,12,13,14)       -179.8072         estimate D2E/DX2                !
 ! D64   D(19,12,13,20)          0.6139         estimate D2E/DX2                !
 ! D65   D(12,13,14,8)           0.3792         estimate D2E/DX2                !
 ! D66   D(12,13,14,21)       -179.2486         estimate D2E/DX2                !
 ! D67   D(20,13,14,8)         179.9566         estimate D2E/DX2                !
 ! D68   D(20,13,14,21)          0.3288         estimate D2E/DX2                !
 ! D69   D(3,22,32,33)         -89.2793         estimate D2E/DX2                !
 ! D70   D(3,22,32,34)          90.7362         estimate D2E/DX2                !
 ! D71   D(9,22,32,33)          90.8821         estimate D2E/DX2                !
 ! D72   D(9,22,32,34)         -89.1023         estimate D2E/DX2                !
 ! D73   D(7,23,24,26)        -179.6105         estimate D2E/DX2                !
 ! D74   D(7,23,24,30)          -0.4471         estimate D2E/DX2                !
 ! D75   D(25,23,24,26)          0.5632         estimate D2E/DX2                !
 ! D76   D(25,23,24,30)        179.7266         estimate D2E/DX2                !
 ! D77   D(7,23,25,27)        -179.3411         estimate D2E/DX2                !
 ! D78   D(7,23,25,31)          -0.6173         estimate D2E/DX2                !
 ! D79   D(24,23,25,27)          0.4847         estimate D2E/DX2                !
 ! D80   D(24,23,25,31)        179.2085         estimate D2E/DX2                !
 ! D81   D(23,24,26,28)         -1.0681         estimate D2E/DX2                !
 ! D82   D(23,24,26,48)        179.5768         estimate D2E/DX2                !
 ! D83   D(30,24,26,28)        179.7593         estimate D2E/DX2                !
 ! D84   D(30,24,26,48)          0.4042         estimate D2E/DX2                !
 ! D85   D(23,25,27,28)         -0.9911         estimate D2E/DX2                !
 ! D86   D(23,25,27,29)        178.8016         estimate D2E/DX2                !
 ! D87   D(31,25,27,28)       -179.7121         estimate D2E/DX2                !
 ! D88   D(31,25,27,29)          0.0806         estimate D2E/DX2                !
 ! D89   D(24,26,28,27)          0.5526         estimate D2E/DX2                !
 ! D90   D(24,26,28,47)       -178.7691         estimate D2E/DX2                !
 ! D91   D(48,26,28,27)        179.8788         estimate D2E/DX2                !
 ! D92   D(48,26,28,47)          0.557          estimate D2E/DX2                !
 ! D93   D(24,26,48,49)       -171.2398         estimate D2E/DX2                !
 ! D94   D(24,26,48,50)          8.6843         estimate D2E/DX2                !
 ! D95   D(28,26,48,49)          9.4414         estimate D2E/DX2                !
 ! D96   D(28,26,48,50)       -170.6345         estimate D2E/DX2                !
 ! D97   D(25,27,28,26)          0.4681         estimate D2E/DX2                !
 ! D98   D(25,27,28,47)        179.8025         estimate D2E/DX2                !
 ! D99   D(29,27,28,26)       -179.3236         estimate D2E/DX2                !
 ! D100  D(29,27,28,47)          0.0107         estimate D2E/DX2                !
 ! D101  D(22,32,33,35)       -179.9809         estimate D2E/DX2                !
 ! D102  D(22,32,33,36)         -0.0024         estimate D2E/DX2                !
 ! D103  D(34,32,33,35)          0.0034         estimate D2E/DX2                !
 ! D104  D(34,32,33,36)        179.9818         estimate D2E/DX2                !
 ! D105  D(22,32,34,37)       -179.999          estimate D2E/DX2                !
 ! D106  D(22,32,34,38)          0.0001         estimate D2E/DX2                !
 ! D107  D(33,32,34,37)          0.0167         estimate D2E/DX2                !
 ! D108  D(33,32,34,38)       -179.9842         estimate D2E/DX2                !
 ! D109  D(32,33,35,39)         -0.0156         estimate D2E/DX2                !
 ! D110  D(32,33,35,40)        179.9804         estimate D2E/DX2                !
 ! D111  D(36,33,35,39)       -179.9941         estimate D2E/DX2                !
 ! D112  D(36,33,35,40)          0.0019         estimate D2E/DX2                !
 ! D113  D(32,34,37,39)         -0.0245         estimate D2E/DX2                !
 ! D114  D(32,34,37,41)        179.9848         estimate D2E/DX2                !
 ! D115  D(38,34,37,39)        179.9764         estimate D2E/DX2                !
 ! D116  D(38,34,37,41)         -0.0143         estimate D2E/DX2                !
 ! D117  D(33,35,39,37)          0.0079         estimate D2E/DX2                !
 ! D118  D(33,35,39,42)       -179.9923         estimate D2E/DX2                !
 ! D119  D(40,35,39,37)       -179.988          estimate D2E/DX2                !
 ! D120  D(40,35,39,42)          0.0118         estimate D2E/DX2                !
 ! D121  D(34,37,39,35)          0.0123         estimate D2E/DX2                !
 ! D122  D(34,37,39,42)       -179.9876         estimate D2E/DX2                !
 ! D123  D(41,37,39,35)       -179.9967         estimate D2E/DX2                !
 ! D124  D(41,37,39,42)          0.0034         estimate D2E/DX2                !
 ! D125  D(35,39,42,43)         -0.0051         estimate D2E/DX2                !
 ! D126  D(37,39,42,43)        179.9947         estimate D2E/DX2                !
 ! D127  D(39,42,43,44)       -179.9922         estimate D2E/DX2                !
 ! D128  D(39,42,43,45)        -61.1693         estimate D2E/DX2                !
 ! D129  D(39,42,43,46)         61.1862         estimate D2E/DX2                !
 ! D130  D(26,48,49,51)          2.8703         estimate D2E/DX2                !
 ! D131  D(50,48,49,51)       -177.0522         estimate D2E/DX2                !
 ! D132  D(26,48,50,52)       -179.1381         estimate D2E/DX2                !
 ! D133  D(49,48,50,52)          0.7902         estimate D2E/DX2                !
 --------------------------------------------------------------------------------
 Trust Radius=3.00D-01 FncErr=1.00D-07 GrdErr=1.00D-06
 Number of steps in this run=    289 maximum allowed number of steps=    312.
 GradGradGradGradGradGradGradGradGradGradGradGradGradGradGradGradGradGrad

 Leave Link  103 at Tue Feb 16 04:33:55 2021, MaxMem=  5242880000 cpu:         0.3
 (Enter /opt/nce/packages/global/g09/l202.exe)
 Symmetry turned off by external request.
 Stoichiometry    C26H21BNO3(1+)
 Framework group  C1[X(C26H21BNO3)]
 Deg. of freedom   150
 Full point group                 C1      NOp   1
                          Input orientation:                          
 ---------------------------------------------------------------------
 Center     Atomic      Atomic             Coordinates (Angstroms)
 Number     Number       Type             X           Y           Z
 ---------------------------------------------------------------------
      1          6           0        1.094527    3.689406   -0.435484
      2          6           0        1.695760    2.463773   -0.241526
      3          6           0        0.900479    1.322369    0.028956
      4          6           0       -0.526434    1.455035    0.122554
      5          6           0       -1.102988    2.741265   -0.115489
      6          6           0       -0.314305    3.832996   -0.384553
      7          6           0       -1.318261    0.316251    0.415050
      8          6           0       -0.686432   -0.940287    0.591263
      9          6           0        0.740368   -1.041635    0.459175
     10          6           0        1.372970   -2.299502    0.618127
     11          1           0        2.452239   -2.377600    0.508205
     12          6           0        0.618459   -3.414651    0.916087
     13          6           0       -0.786156   -3.328965    1.081508
     14          6           0       -1.420126   -2.120599    0.926520
     15          1           0        1.718324    4.561277   -0.644081
     16          1           0        2.777470    2.365324   -0.298570
     17          1           0       -2.187135    2.837681   -0.089457
     18          1           0       -0.768387    4.808344   -0.566928
     19          1           0        1.117954   -4.378319    1.037197
     20          1           0       -1.359152   -4.221399    1.338210
     21          1           0       -2.497229   -2.042480    1.063586
     22          7           0        1.481241    0.086163    0.191326
     23          6           0       -2.790497    0.435780    0.532058
     24          6           0       -3.625670   -0.233483   -0.375261
     25          6           0       -3.363444    1.215792    1.552720
     26          6           0       -5.023878   -0.133136   -0.295032
     27          6           0       -4.750554    1.308618    1.659788
     28          6           0       -5.567607    0.644059    0.741331
     29          1           0       -5.194134    1.898630    2.464492
     30          1           0       -3.188060   -0.837234   -1.172929
     31          1           0       -2.721751    1.730002    2.271547
     32          6           0        2.921034   -0.031533    0.080113
     33          6           0        3.500706   -0.279564   -1.161868
     34          6           0        3.716395    0.105173    1.224317
     35          6           0        4.887668   -0.394466   -1.275653
     36          1           0        2.869318   -0.384429   -2.046522
     37          6           0        5.095177   -0.007488    1.117971
     38          1           0        3.250790    0.299225    2.192608
     39          6           0        5.697328   -0.258696   -0.132726
     40          1           0        5.325537   -0.588810   -2.253567
     41          1           0        5.740886    0.094447    1.991299
     42          8           0        7.034057   -0.351075   -0.133820
     43          6           0        7.722780   -0.602164   -1.347502
     44          1           0        8.789464   -0.633571   -1.095283
     45          1           0        7.424980   -1.569979   -1.785537
     46          1           0        7.547376    0.201673   -2.082556
     47          1           0       -6.652559    0.732682    0.852553
     48          5           0       -5.909141   -0.903456   -1.353396
     49          8           0       -7.254223   -0.748082   -1.483137
     50          8           0       -5.263575   -1.770713   -2.177452
     51          1           0       -7.662229   -0.091285   -0.908309
     52          1           0       -5.860532   -2.197160   -2.807644
 ---------------------------------------------------------------------
 Rotational constants (GHZ):      0.3129997      0.0721678      0.0647194
 Leave Link  202 at Tue Feb 16 04:33:55 2021, MaxMem=  5242880000 cpu:         0.6
 (Enter /opt/nce/packages/global/g09/l301.exe)
 Standard basis: def2TZVP (5D, 7F)
 Ernie: Thresh=  0.10000D-02 Tol=  0.10000D-05 Strict=F.
  1087 basis functions,  1749 primitive gaussians,  1242 cartesian basis functions
   106 alpha electrons      106 beta electrons
       nuclear repulsion energy      2773.9810363328 Hartrees.
 IExCor= 4134 DFT=T Ex+Corr=M06L ExCW=0 ScaHFX=  0.000000
 ScaDFX=  1.000000  1.000000  1.000000  1.000000 ScalE2=  1.000000  1.000000
 IRadAn=      5 IRanWt=     -1 IRanGd=            0 ICorTp=0 IEmpDi=  4
 NAtoms=   52 NActive=   52 NUniq=   52 SFac= 1.00D+00 NAtFMM=   60 NAOKFM=F Big=F
 Integral buffers will be    131072 words long.
 Raffenetti 2 integral format.
 Two-electron integral symmetry is turned off.
 ------------------------------------------------------------------------------
 Polarizable Continuum Model (PCM)
 =================================
 Model                : PCM (using non-symmetric T matrix).
 Atomic radii         : SMD-Coulomb.
 Polarization charges : Total charges.
 Charge compensation  : None.
 Solution method      : On-the-fly selection.
 Cavity type          : VdW (van der Waals Surface) (Alpha=1.000).
 Cavity algorithm     : GePol (No added spheres)
                        Default sphere list used, NSphG=   52.
                        Lebedev-Laikov grids with approx.  5.0 points / Ang**2.
                        Smoothing algorithm: York/Karplus (Gamma=1.0000).
                        Polarization charges: spherical gaussians, with
                                              point-specific exponents (IZeta= 3).
                        Self-potential: point-specific (ISelfS= 7).
                        Self-field    : sphere-specific E.n sum rule (ISelfD= 2).
 1st derivatives      : Analytical E(r).r(x)/FMM algorithm (CHGder, D1EAlg=3).
                        Cavity 1st derivative terms included.
 Solvent              : Acetonitrile, Eps=  35.688000 Eps(inf)=   1.806874
 ------------------------------------------------------------------------------
 GePol: Number of generator spheres                  =      52
 GePol: Total number of spheres                      =      52
 GePol: Number of exposed spheres                    =      50 ( 96.15%)
 GePol: Number of points                             =    3843
 GePol: Average weight of points                     =       0.12
 GePol: Minimum weight of points                     =   0.50D-09
 GePol: Maximum weight of points                     =    0.21559
 GePol: Number of points with low weight             =     248
 GePol: Fraction of low-weight points (<1% of avg)   =       6.45%
 GePol: Cavity surface area                          =    447.913 Ang**2
 GePol: Cavity volume                                =    446.218 Ang**3
 ------------------------------------------------------------------------------
 Atomic radii for non-electrostatic terms: SMD-CDS.
 ------------------------------------------------------------------------------
 PCM non-electrostatic energy =        -0.0087443975 Hartrees.
 Nuclear repulsion after PCM non-electrostatic terms =     2773.9722919353 Hartrees.
 Leave Link  301 at Tue Feb 16 04:33:56 2021, MaxMem=  5242880000 cpu:         2.5
 (Enter /opt/nce/packages/global/g09/l302.exe)
 NPDir=0 NMtPBC=     1 NCelOv=     1 NCel=       1 NClECP=     1 NCelD=      1
         NCelK=      1 NCelE2=     1 NClLst=     1 CellRange=     0.0.
 One-electron integrals computed using PRISM.
   1 Symmetry operations used in ECPInt.
 ECPInt:  NShTT=   90525 NPrTT=  279376 LenC2=   70913 LenP2D=  149762.
 LDataN:  DoStor=T MaxTD1= 6 Len=  172
 NBasis=  1087 RedAO= T EigKep=  5.20D-06  NBF=  1087
 NBsUse=  1087 1.00D-06 EigRej= -1.00D+00 NBFU=  1087
 Precomputing XC quadrature grid using
 IXCGrd= 4 IRadAn=           5 IRanWt=          -1 IRanGd=           0 AccXCQ= 0.00D+00.
 Generated NRdTot=       0 NPtTot=           0 NUsed=           0 NTot=          32
 NSgBfM=  1154  1154  1154  1154  1154 MxSgAt=    52 MxSgA2=    52.
 Leave Link  302 at Tue Feb 16 04:33:59 2021, MaxMem=  5242880000 cpu:        32.4
 (Enter /opt/nce/packages/global/g09/l303.exe)
 DipDrv:  MaxL=1.
 Leave Link  303 at Tue Feb 16 04:33:59 2021, MaxMem=  5242880000 cpu:         3.3
 (Enter /opt/nce/packages/global/g09/l401.exe)
 ExpMin= 6.06D-02 ExpMax= 2.70D+04 ExpMxC= 9.22D+02 IAcc=3 IRadAn=         5 AccDes= 0.00D+00
 Harris functional with IExCor= 1009 and IRadAn=       5 diagonalized for initial guess.
 HarFok:  IExCor= 1009 AccDes= 0.00D+00 IRadAn=         5 IDoV= 1 UseB2=F ITyADJ=14
 ICtDFT=  3500011 ScaDFX=  1.000000  1.000000  1.000000  1.000000
 FoFCou: FMM=F IPFlag=           0 FMFlag=      100000 FMFlg1=           0
         NFxFlg=           0 DoJE=T BraDBF=F KetDBF=T FulRan=T
         wScrn=  0.000000 ICntrl=     500 IOpCl=  0 I1Cent=   200000004 NGrid=           0
         NMat0=    1 NMatS0=      1 NMatT0=    0 NMatD0=    1 NMtDS0=    0 NMtDT0=    0
 Symmetry not used in FoFCou.
 Harris En= -1307.92725514371    
 JPrj=0 DoOrth=F DoCkMO=F.
 Leave Link  401 at Tue Feb 16 04:34:10 2021, MaxMem=  5242880000 cpu:       133.4
 (Enter /opt/nce/packages/global/g09/l502.exe)
 Closed shell SCF:
 Using DIIS extrapolation, IDIIS=  1040.
 Two-electron integral symmetry not used.
 IVT=     4668702 IEndB=     4668702 NGot=  5242880000 MDV=  5239771745
 LenX=  5239771745 LenY=  5238227939
 Requested convergence on RMS density matrix=1.00D-08 within 128 cycles.
 Requested convergence on MAX density matrix=1.00D-06.
 Requested convergence on             energy=1.00D-06.
 No special actions if energy rises.
 Fock matrices will be formed incrementally for  20 cycles.

 Cycle   1  Pass 1  IDiag  1:
 FoFJK:  IHMeth= 1 ICntrl=     500 DoSepK=F KAlg= 0 I1Cent=   0 FoldK=F
 IRaf= 670000000 NMat=   1 IRICut=       1 DoRegI=T DoRafI=F ISym2E= 0.
 FoFCou: FMM=F IPFlag=           0 FMFlag=      100000 FMFlg1=           0
         NFxFlg=           0 DoJE=T BraDBF=F KetDBF=F FulRan=T
         wScrn=  0.000000 ICntrl=     500 IOpCl=  0 I1Cent=           0 NGrid=           0
         NMat0=    1 NMatS0=      1 NMatT0=    0 NMatD0=    1 NMtDS0=    0 NMtDT0=    0
 Symmetry not used in FoFCou.
 Inv3:  Mode=1 IEnd=    44305947.
 Iteration    1 A*A^-1 deviation from unit magnitude is 1.09D-14 for   3839.
 Iteration    1 A*A^-1 deviation from orthogonality  is 3.82D-15 for   2177   1913.
 Iteration    1 A^-1*A deviation from unit magnitude is 1.11D-14 for   3839.
 Iteration    1 A^-1*A deviation from orthogonality  is 6.31D-11 for   2222   2210.
 E= -1308.37610227255    
 DIIS: error= 1.49D-02 at cycle   1 NSaved=   1.
 NSaved= 1 IEnMin= 1 EnMin= -1308.37610227255     IErMin= 1 ErrMin= 1.49D-02
 ErrMax= 1.49D-02  0.00D+00 EMaxC= 1.00D-01 BMatC= 7.88D-01 BMatP= 7.88D-01
 IDIUse=3 WtCom= 8.51D-01 WtEn= 1.49D-01
 Coeff-Com:  0.100D+01
 Coeff-En:   0.100D+01
 Coeff:      0.100D+01
 Gap=     0.064 Goal=   None    Shift=    0.000
 GapD=    0.064 DampG=0.500 DampE=0.500 DampFc=0.2500 IDamp=-1.
 Damping current iteration by 2.50D-01
 RMSDP=3.22D-03 MaxDP=5.07D-01              OVMax= 4.24D-01

 Cycle   2  Pass 1  IDiag  1:
 RMSU=  8.06D-04    CP:  1.00D+00
 E= -1308.58640757859     Delta-E=       -0.210305306045 Rises=F Damp=T
 DIIS: error= 8.67D-03 at cycle   2 NSaved=   2.
 NSaved= 2 IEnMin= 2 EnMin= -1308.58640757859     IErMin= 2 ErrMin= 8.67D-03
 ErrMax= 8.67D-03  0.00D+00 EMaxC= 1.00D-01 BMatC= 2.28D-01 BMatP= 7.88D-01
 IDIUse=3 WtCom= 9.13D-01 WtEn= 8.67D-02
 Coeff-Com: -0.713D+00 0.171D+01
 Coeff-En:   0.000D+00 0.100D+01
 Coeff:     -0.651D+00 0.165D+01
 Gap=     0.138 Goal=   None    Shift=    0.000
 RMSDP=1.81D-03 MaxDP=1.89D-01 DE=-2.10D-01 OVMax= 5.48D-01

 Cycle   3  Pass 1  IDiag  1:
 RMSU=  1.49D-03    CP:  9.81D-01  2.27D+00
 E= -1308.83456537484     Delta-E=       -0.248157796245 Rises=F Damp=F
 DIIS: error= 1.75D-02 at cycle   3 NSaved=   3.
 NSaved= 3 IEnMin= 3 EnMin= -1308.83456537484     IErMin= 2 ErrMin= 8.67D-03
 ErrMax= 1.75D-02  0.00D+00 EMaxC= 1.00D-01 BMatC= 1.36D-01 BMatP= 2.28D-01
 IDIUse=3 WtCom= 8.25D-01 WtEn= 1.75D-01
 Coeff-Com: -0.538D+00 0.103D+01 0.508D+00
 Coeff-En:   0.000D+00 0.000D+00 0.100D+01
 Coeff:     -0.444D+00 0.850D+00 0.594D+00
 Gap=     0.080 Goal=   None    Shift=    0.000
 RMSDP=6.37D-04 MaxDP=7.87D-02 DE=-2.48D-01 OVMax= 2.98D-01

 Cycle   4  Pass 1  IDiag  1:
 RMSU=  6.23D-04    CP:  9.88D-01  2.28D+00  9.15D-01
 E= -1308.88232870227     Delta-E=       -0.047763327434 Rises=F Damp=F
 DIIS: error= 8.98D-03 at cycle   4 NSaved=   4.
 NSaved= 4 IEnMin= 4 EnMin= -1308.88232870227     IErMin= 2 ErrMin= 8.67D-03
 ErrMax= 8.98D-03  0.00D+00 EMaxC= 1.00D-01 BMatC= 9.60D-02 BMatP= 1.36D-01
 IDIUse=3 WtCom= 9.10D-01 WtEn= 8.98D-02
 Coeff-Com: -0.196D+00 0.335D+00 0.455D+00 0.406D+00
 Coeff-En:   0.000D+00 0.000D+00 0.432D+00 0.568D+00
 Coeff:     -0.178D+00 0.305D+00 0.453D+00 0.420D+00
 Gap=     0.074 Goal=   None    Shift=    0.000
 RMSDP=3.10D-04 MaxDP=4.04D-02 DE=-4.78D-02 OVMax= 1.98D-01

 Cycle   5  Pass 1  IDiag  1:
 RMSU=  2.01D-04    CP:  9.88D-01  2.23D+00  9.18D-01  6.29D-01
 E= -1308.98117081287     Delta-E=       -0.098842110592 Rises=F Damp=F
 DIIS: error= 1.81D-03 at cycle   5 NSaved=   5.
 NSaved= 5 IEnMin= 5 EnMin= -1308.98117081287     IErMin= 5 ErrMin= 1.81D-03
 ErrMax= 1.81D-03  0.00D+00 EMaxC= 1.00D-01 BMatC= 4.60D-03 BMatP= 9.60D-02
 IDIUse=3 WtCom= 9.82D-01 WtEn= 1.81D-02
 Coeff-Com: -0.536D-01 0.769D-01 0.222D+00 0.257D+00 0.498D+00
 Coeff-En:   0.000D+00 0.000D+00 0.000D+00 0.000D+00 0.100D+01
 Coeff:     -0.526D-01 0.756D-01 0.218D+00 0.252D+00 0.507D+00
 Gap=     0.077 Goal=   None    Shift=    0.000
 RMSDP=1.38D-04 MaxDP=1.31D-02 DE=-9.88D-02 OVMax= 4.40D-02

 Cycle   6  Pass 1  IDiag  1:
 RMSU=  1.08D-04    CP:  9.85D-01  2.23D+00  8.91D-01  5.85D-01  6.56D-01
 E= -1308.98494394054     Delta-E=       -0.003773127678 Rises=F Damp=F
 DIIS: error= 1.18D-03 at cycle   6 NSaved=   6.
 NSaved= 6 IEnMin= 6 EnMin= -1308.98494394054     IErMin= 6 ErrMin= 1.18D-03
 ErrMax= 1.18D-03  0.00D+00 EMaxC= 1.00D-01 BMatC= 1.06D-03 BMatP= 4.60D-03
 IDIUse=3 WtCom= 9.88D-01 WtEn= 1.18D-02
 Coeff-Com: -0.138D-01 0.149D-01 0.671D-01 0.787D-01 0.338D+00 0.515D+00
 Coeff-En:   0.000D+00 0.000D+00 0.000D+00 0.000D+00 0.245D+00 0.755D+00
 Coeff:     -0.137D-01 0.147D-01 0.663D-01 0.778D-01 0.337D+00 0.518D+00
 Gap=     0.077 Goal=   None    Shift=    0.000
 RMSDP=4.36D-05 MaxDP=3.45D-03 DE=-3.77D-03 OVMax= 1.76D-02

 Cycle   7  Pass 1  IDiag  1:
 RMSU=  3.29D-05    CP:  9.86D-01  2.23D+00  8.89D-01  5.76D-01  7.59D-01
                    CP:  8.27D-01
 E= -1308.98604283286     Delta-E=       -0.001098892316 Rises=F Damp=F
 DIIS: error= 4.24D-04 at cycle   7 NSaved=   7.
 NSaved= 7 IEnMin= 7 EnMin= -1308.98604283286     IErMin= 7 ErrMin= 4.24D-04
 ErrMax= 4.24D-04  0.00D+00 EMaxC= 1.00D-01 BMatC= 1.60D-04 BMatP= 1.06D-03
 IDIUse=3 WtCom= 9.96D-01 WtEn= 4.24D-03
 Coeff-Com: -0.472D-02 0.453D-02 0.929D-02 0.672D-02 0.143D+00 0.344D+00
 Coeff-Com:  0.497D+00
 Coeff-En:   0.000D+00 0.000D+00 0.000D+00 0.000D+00 0.000D+00 0.983D-01
 Coeff-En:   0.902D+00
 Coeff:     -0.470D-02 0.452D-02 0.925D-02 0.669D-02 0.143D+00 0.343D+00
 Coeff:      0.498D+00
 Gap=     0.077 Goal=   None    Shift=    0.000
 RMSDP=1.42D-05 MaxDP=8.67D-04 DE=-1.10D-03 OVMax= 3.90D-03

 Cycle   8  Pass 1  IDiag  1:
 RMSU=  1.17D-05    CP:  9.85D-01  2.23D+00  8.88D-01  5.76D-01  7.68D-01
                    CP:  8.77D-01  8.55D-01
 E= -1308.98619046764     Delta-E=       -0.000147634785 Rises=F Damp=F
 DIIS: error= 5.82D-05 at cycle   8 NSaved=   8.
 NSaved= 8 IEnMin= 8 EnMin= -1308.98619046764     IErMin= 8 ErrMin= 5.82D-05
 ErrMax= 5.82D-05  0.00D+00 EMaxC= 1.00D-01 BMatC= 8.56D-06 BMatP= 1.60D-04
 IDIUse=1 WtCom= 1.00D+00 WtEn= 0.00D+00
 Coeff-Com: -0.248D-02 0.286D-02-0.329D-03-0.398D-02 0.455D-01 0.137D+00
 Coeff-Com:  0.260D+00 0.561D+00
 Coeff:     -0.248D-02 0.286D-02-0.329D-03-0.398D-02 0.455D-01 0.137D+00
 Coeff:      0.260D+00 0.561D+00
 Gap=     0.077 Goal=   None    Shift=    0.000
 RMSDP=5.46D-06 MaxDP=5.32D-04 DE=-1.48D-04 OVMax= 1.40D-03

 Cycle   9  Pass 1  IDiag  1:
 RMSU=  4.49D-06    CP:  9.86D-01  2.23D+00  8.87D-01  5.76D-01  7.68D-01
                    CP:  8.92D-01  8.99D-01  8.68D-01
 E= -1308.98619690421     Delta-E=       -0.000006436571 Rises=F Damp=F
 DIIS: error= 4.15D-05 at cycle   9 NSaved=   9.
 NSaved= 9 IEnMin= 9 EnMin= -1308.98619690421     IErMin= 9 ErrMin= 4.15D-05
 ErrMax= 4.15D-05  0.00D+00 EMaxC= 1.00D-01 BMatC= 2.08D-06 BMatP= 8.56D-06
 IDIUse=1 WtCom= 1.00D+00 WtEn= 0.00D+00
 Coeff-Com: -0.129D-02 0.167D-02-0.100D-02-0.324D-02 0.104D-01 0.415D-01
 Coeff-Com:  0.954D-01 0.360D+00 0.496D+00
 Coeff:     -0.129D-02 0.167D-02-0.100D-02-0.324D-02 0.104D-01 0.415D-01
 Coeff:      0.954D-01 0.360D+00 0.496D+00
 Gap=     0.077 Goal=   None    Shift=    0.000
 RMSDP=2.72D-06 MaxDP=2.50D-04 DE=-6.44D-06 OVMax= 7.01D-04

 Cycle  10  Pass 1  IDiag  1:
 RMSU=  1.59D-06    CP:  9.86D-01  2.23D+00  8.87D-01  5.75D-01  7.71D-01
                    CP:  8.97D-01  9.18D-01  9.73D-01  7.67D-01
 E= -1308.98619897211     Delta-E=       -0.000002067895 Rises=F Damp=F
 DIIS: error= 8.30D-06 at cycle  10 NSaved=  10.
 NSaved=10 IEnMin=10 EnMin= -1308.98619897211     IErMin=10 ErrMin= 8.30D-06
 ErrMax= 8.30D-06  0.00D+00 EMaxC= 1.00D-01 BMatC= 1.75D-07 BMatP= 2.08D-06
 IDIUse=1 WtCom= 1.00D+00 WtEn= 0.00D+00
 Coeff-Com: -0.438D-03 0.613D-03-0.301D-03-0.987D-03-0.226D-02-0.176D-02
 Coeff-Com:  0.499D-02 0.900D-01 0.257D+00 0.653D+00
 Coeff:     -0.438D-03 0.613D-03-0.301D-03-0.987D-03-0.226D-02-0.176D-02
 Coeff:      0.499D-02 0.900D-01 0.257D+00 0.653D+00
 Gap=     0.077 Goal=   None    Shift=    0.000
 RMSDP=1.33D-06 MaxDP=1.66D-04 DE=-2.07D-06 OVMax= 1.50D-04

 Cycle  11  Pass 1  IDiag  1:
 RMSU=  6.89D-07    CP:  9.86D-01  2.23D+00  8.87D-01  5.74D-01  7.71D-01
                    CP:  9.02D-01  9.32D-01  9.93D-01  8.59D-01  1.01D+00
 E= -1308.98619910232     Delta-E=       -0.000000130213 Rises=F Damp=F
 DIIS: error= 3.85D-06 at cycle  11 NSaved=  11.
 NSaved=11 IEnMin=11 EnMin= -1308.98619910232     IErMin=11 ErrMin= 3.85D-06
 ErrMax= 3.85D-06  0.00D+00 EMaxC= 1.00D-01 BMatC= 3.42D-08 BMatP= 1.75D-07
 IDIUse=1 WtCom= 1.00D+00 WtEn= 0.00D+00
 Coeff-Com: -0.108D-03 0.166D-03-0.291D-04-0.103D-03-0.297D-02-0.744D-02
 Coeff-Com: -0.113D-01-0.799D-03 0.790D-01 0.387D+00 0.557D+00
 Coeff:     -0.108D-03 0.166D-03-0.291D-04-0.103D-03-0.297D-02-0.744D-02
 Coeff:     -0.113D-01-0.799D-03 0.790D-01 0.387D+00 0.557D+00
 Gap=     0.077 Goal=   None    Shift=    0.000
 RMSDP=4.67D-07 MaxDP=3.99D-05 DE=-1.30D-07 OVMax= 4.07D-05

 Cycle  12  Pass 1  IDiag  1:
 RMSU=  2.46D-07    CP:  9.86D-01  2.23D+00  8.86D-01  5.74D-01  7.71D-01
                    CP:  9.03D-01  9.37D-01  1.01D+00  8.76D-01  1.11D+00
                    CP:  1.06D+00
 E= -1308.98619913496     Delta-E=       -0.000000032632 Rises=F Damp=F
 DIIS: error= 1.07D-06 at cycle  12 NSaved=  12.
 NSaved=12 IEnMin=12 EnMin= -1308.98619913496     IErMin=12 ErrMin= 1.07D-06
 ErrMax= 1.07D-06  0.00D+00 EMaxC= 1.00D-01 BMatC= 1.80D-09 BMatP= 3.42D-08
 IDIUse=1 WtCom= 1.00D+00 WtEn= 0.00D+00
 Coeff-Com: -0.380D-04 0.579D-04 0.142D-04 0.250D-04-0.118D-02-0.325D-02
 Coeff-Com: -0.525D-02-0.547D-02 0.200D-01 0.136D+00 0.260D+00 0.598D+00
 Coeff:     -0.380D-04 0.579D-04 0.142D-04 0.250D-04-0.118D-02-0.325D-02
 Coeff:     -0.525D-02-0.547D-02 0.200D-01 0.136D+00 0.260D+00 0.598D+00
 Gap=     0.077 Goal=   None    Shift=    0.000
 RMSDP=1.30D-07 MaxDP=1.69D-05 DE=-3.26D-08 OVMax= 9.77D-06

 Cycle  13  Pass 1  IDiag  1:
 RMSU=  6.59D-08    CP:  9.86D-01  2.23D+00  8.86D-01  5.74D-01  7.71D-01
                    CP:  9.04D-01  9.38D-01  1.01D+00  8.84D-01  1.13D+00
                    CP:  1.12D+00  1.09D+00
 E= -1308.98619913624     Delta-E=       -0.000000001284 Rises=F Damp=F
 DIIS: error= 3.82D-07 at cycle  13 NSaved=  13.
 NSaved=13 IEnMin=13 EnMin= -1308.98619913624     IErMin=13 ErrMin= 3.82D-07
 ErrMax= 3.82D-07  0.00D+00 EMaxC= 1.00D-01 BMatC= 4.01D-10 BMatP= 1.80D-09
 IDIUse=1 WtCom= 1.00D+00 WtEn= 0.00D+00
 Coeff-Com: -0.325D-05 0.456D-05 0.336D-05 0.253D-04-0.153D-03-0.504D-03
 Coeff-Com: -0.863D-03-0.297D-02-0.414D-02 0.225D-02 0.382D-01 0.338D+00
 Coeff-Com:  0.630D+00
 Coeff:     -0.325D-05 0.456D-05 0.336D-05 0.253D-04-0.153D-03-0.504D-03
 Coeff:     -0.863D-03-0.297D-02-0.414D-02 0.225D-02 0.382D-01 0.338D+00
 Coeff:      0.630D+00
 Gap=     0.077 Goal=   None    Shift=    0.000
 RMSDP=6.23D-08 MaxDP=9.31D-06 DE=-1.28D-09 OVMax= 4.71D-06

 Cycle  14  Pass 1  IDiag  1:
 RMSU=  2.72D-08    CP:  9.86D-01  2.23D+00  8.86D-01  5.74D-01  7.71D-01
                    CP:  9.04D-01  9.39D-01  1.01D+00  8.86D-01  1.14D+00
                    CP:  1.15D+00  1.15D+00  9.58D-01
 E= -1308.98619913667     Delta-E=       -0.000000000433 Rises=F Damp=F
 DIIS: error= 1.35D-07 at cycle  14 NSaved=  14.
 NSaved=14 IEnMin=14 EnMin= -1308.98619913667     IErMin=14 ErrMin= 1.35D-07
 ErrMax= 1.35D-07  0.00D+00 EMaxC= 1.00D-01 BMatC= 3.26D-11 BMatP= 4.01D-10
 IDIUse=1 WtCom= 1.00D+00 WtEn= 0.00D+00
 Coeff-Com:  0.773D-06-0.133D-05 0.181D-06 0.912D-05 0.226D-04 0.412D-04
 Coeff-Com:  0.470D-04-0.919D-03-0.374D-02-0.107D-01-0.500D-02 0.107D+00
 Coeff-Com:  0.312D+00 0.602D+00
 Coeff:      0.773D-06-0.133D-05 0.181D-06 0.912D-05 0.226D-04 0.412D-04
 Coeff:      0.470D-04-0.919D-03-0.374D-02-0.107D-01-0.500D-02 0.107D+00
 Coeff:      0.312D+00 0.602D+00
 Gap=     0.077 Goal=   None    Shift=    0.000
 RMSDP=1.66D-08 MaxDP=1.65D-06 DE=-4.33D-10 OVMax= 1.80D-06

 Cycle  15  Pass 1  IDiag  1:
 RMSU=  8.78D-09    CP:  9.86D-01  2.23D+00  8.86D-01  5.74D-01  7.71D-01
                    CP:  9.04D-01  9.39D-01  1.01D+00  8.86D-01  1.14D+00
                    CP:  1.16D+00  1.18D+00  1.02D+00  1.09D+00
 E= -1308.98619913664     Delta-E=        0.000000000029 Rises=F Damp=F
 DIIS: error= 6.47D-08 at cycle  15 NSaved=  15.
 NSaved=15 IEnMin=14 EnMin= -1308.98619913667     IErMin=15 ErrMin= 6.47D-08
 ErrMax= 6.47D-08  0.00D+00 EMaxC= 1.00D-01 BMatC= 4.71D-12 BMatP= 3.26D-11
 IDIUse=1 WtCom= 1.00D+00 WtEn= 0.00D+00
 Coeff-Com:  0.515D-06-0.830D-06-0.460D-07 0.163D-05 0.304D-04 0.881D-04
 Coeff-Com:  0.136D-03-0.113D-03-0.148D-02-0.596D-02-0.728D-02 0.168D-01
 Coeff-Com:  0.960D-01 0.326D+00 0.576D+00
 Coeff:      0.515D-06-0.830D-06-0.460D-07 0.163D-05 0.304D-04 0.881D-04
 Coeff:      0.136D-03-0.113D-03-0.148D-02-0.596D-02-0.728D-02 0.168D-01
 Coeff:      0.960D-01 0.326D+00 0.576D+00
 Gap=     0.077 Goal=   None    Shift=    0.000
 RMSDP=5.31D-09 MaxDP=4.52D-07 DE= 2.86D-11 OVMax= 7.89D-07

 Error on total polarization charges =  0.04533
 SCF Done:  E(RM06L) =  -1308.98619914     A.U. after   15 cycles
            NFock= 15  Conv=0.53D-08     -V/T= 2.0049
 KE= 1.302576562998D+03 PE=-8.569797360646D+03 EE= 3.184262306576D+03
 SMD-CDS (non-electrostatic) energy       (kcal/mol) =      -5.49
 (included in total energy above)
 Leave Link  502 at Tue Feb 16 04:51:49 2021, MaxMem=  5242880000 cpu:     12610.2
 (Enter /opt/nce/packages/global/g09/l601.exe)
 Copying SCF densities to generalized density rwf, IOpCl= 0 IROHF=0.

 **********************************************************************

            Population analysis using the SCF density.

 **********************************************************************

 Alpha  occ. eigenvalues --  -19.00711 -18.97487 -18.97188 -14.27552 -10.13681
 Alpha  occ. eigenvalues --  -10.13680 -10.12403 -10.11717 -10.10147 -10.09888
 Alpha  occ. eigenvalues --  -10.09795 -10.09791 -10.07905 -10.07875 -10.07870
 Alpha  occ. eigenvalues --  -10.07540 -10.07521 -10.07317 -10.07311 -10.06967
 Alpha  occ. eigenvalues --  -10.06942 -10.06927 -10.06925 -10.06694 -10.06369
 Alpha  occ. eigenvalues --  -10.06252 -10.06041 -10.06026 -10.05977 -10.04680
 Alpha  occ. eigenvalues --   -6.66892  -1.05247  -1.01267  -0.99003  -0.98233
 Alpha  occ. eigenvalues --   -0.85994  -0.84541  -0.83020  -0.82008  -0.79198
 Alpha  occ. eigenvalues --   -0.75181  -0.74136  -0.73637  -0.72783  -0.72226
 Alpha  occ. eigenvalues --   -0.71890  -0.70961  -0.66840  -0.64899  -0.62684
 Alpha  occ. eigenvalues --   -0.61519  -0.59137  -0.58299  -0.57887  -0.57551
 Alpha  occ. eigenvalues --   -0.55253  -0.53632  -0.53311  -0.52287  -0.51393
 Alpha  occ. eigenvalues --   -0.50612  -0.49669  -0.47752  -0.47037  -0.46464
 Alpha  occ. eigenvalues --   -0.45218  -0.44590  -0.44459  -0.43330  -0.43180
 Alpha  occ. eigenvalues --   -0.42084  -0.41894  -0.41708  -0.41312  -0.41213
 Alpha  occ. eigenvalues --   -0.40598  -0.39792  -0.39154  -0.38815  -0.38169
 Alpha  occ. eigenvalues --   -0.37404  -0.36339  -0.36229  -0.36023  -0.35636
 Alpha  occ. eigenvalues --   -0.34449  -0.34439  -0.34136  -0.33626  -0.33327
 Alpha  occ. eigenvalues --   -0.33135  -0.33013  -0.32360  -0.31131  -0.30292
 Alpha  occ. eigenvalues --   -0.30158  -0.29759  -0.28978  -0.28722  -0.26404
 Alpha  occ. eigenvalues --   -0.25474  -0.24758  -0.24353  -0.24253  -0.22187
 Alpha  occ. eigenvalues --   -0.21175
 Alpha virt. eigenvalues --   -0.13501  -0.06998  -0.06240  -0.05415  -0.04797
 Alpha virt. eigenvalues --   -0.03983  -0.03611  -0.02904   0.00337   0.03678
 Alpha virt. eigenvalues --    0.04813   0.04990   0.05430   0.06197   0.06443
 Alpha virt. eigenvalues --    0.06782   0.07091   0.07629   0.08125   0.08530
 Alpha virt. eigenvalues --    0.08867   0.09193   0.09290   0.09593   0.10043
 Alpha virt. eigenvalues --    0.10383   0.10929   0.11075   0.11259   0.11770
 Alpha virt. eigenvalues --    0.11948   0.12227   0.12477   0.12754   0.13273
 Alpha virt. eigenvalues --    0.13768   0.13891   0.14508   0.14903   0.16063
 Alpha virt. eigenvalues --    0.16401   0.16594   0.17162   0.17643   0.17997
 Alpha virt. eigenvalues --    0.18741   0.19046   0.19272   0.19710   0.20441
 Alpha virt. eigenvalues --    0.20970   0.21204   0.21388   0.21717   0.21836
 Alpha virt. eigenvalues --    0.22008   0.22249   0.22608   0.22723   0.22861
 Alpha virt. eigenvalues --    0.23463   0.23734   0.23868   0.24185   0.24402
 Alpha virt. eigenvalues --    0.24946   0.25163   0.25415   0.25815   0.26052
 Alpha virt. eigenvalues --    0.26259   0.26370   0.26815   0.26896   0.27218
 Alpha virt. eigenvalues --    0.27481   0.27959   0.28362   0.28658   0.29287
 Alpha virt. eigenvalues --    0.29609   0.29900   0.30351   0.30602   0.30808
 Alpha virt. eigenvalues --    0.31019   0.31475   0.31479   0.32016   0.32412
 Alpha virt. eigenvalues --    0.33003   0.33395   0.33453   0.33580   0.33641
 Alpha virt. eigenvalues --    0.33957   0.34083   0.34256   0.34602   0.34848
 Alpha virt. eigenvalues --    0.34966   0.35855   0.35918   0.36357   0.36433
 Alpha virt. eigenvalues --    0.36677   0.37101   0.37778   0.37925   0.38627
 Alpha virt. eigenvalues --    0.38961   0.39121   0.39243   0.39676   0.39715
 Alpha virt. eigenvalues --    0.39862   0.40158   0.40329   0.40363   0.40853
 Alpha virt. eigenvalues --    0.41508   0.41821   0.42211   0.42301   0.42710
 Alpha virt. eigenvalues --    0.42899   0.43309   0.43514   0.43945   0.44122
 Alpha virt. eigenvalues --    0.44480   0.44684   0.44911   0.45063   0.45526
 Alpha virt. eigenvalues --    0.45823   0.46045   0.46496   0.46710   0.47164
 Alpha virt. eigenvalues --    0.47375   0.47836   0.48195   0.48762   0.48922
 Alpha virt. eigenvalues --    0.49340   0.49806   0.50060   0.50467   0.50755
 Alpha virt. eigenvalues --    0.51550   0.51865   0.52457   0.52654   0.53471
 Alpha virt. eigenvalues --    0.53949   0.54158   0.54809   0.55041   0.55222
 Alpha virt. eigenvalues --    0.55743   0.57017   0.57101   0.57910   0.58571
 Alpha virt. eigenvalues --    0.58860   0.59083   0.59153   0.59788   0.60066
 Alpha virt. eigenvalues --    0.60826   0.60911   0.61149   0.62020   0.62132
 Alpha virt. eigenvalues --    0.63063   0.63182   0.63782   0.64051   0.64387
 Alpha virt. eigenvalues --    0.64494   0.64610   0.64836   0.65389   0.65529
 Alpha virt. eigenvalues --    0.66069   0.66464   0.66775   0.67139   0.67606
 Alpha virt. eigenvalues --    0.67661   0.68134   0.68486   0.68903   0.69001
 Alpha virt. eigenvalues --    0.69402   0.70188   0.70460   0.70976   0.71178
 Alpha virt. eigenvalues --    0.71981   0.72189   0.72678   0.72859   0.73317
 Alpha virt. eigenvalues --    0.73855   0.74113   0.74182   0.74916   0.75038
 Alpha virt. eigenvalues --    0.75217   0.75668   0.76235   0.77230   0.77467
 Alpha virt. eigenvalues --    0.78303   0.78888   0.79205   0.80419   0.80475
 Alpha virt. eigenvalues --    0.80856   0.81365   0.81536   0.81900   0.82407
 Alpha virt. eigenvalues --    0.82755   0.83412   0.83792   0.84553   0.85104
 Alpha virt. eigenvalues --    0.85696   0.86092   0.86435   0.86750   0.86934
 Alpha virt. eigenvalues --    0.87336   0.87652   0.88474   0.89009   0.89632
 Alpha virt. eigenvalues --    0.89930   0.90769   0.91449   0.92459   0.93048
 Alpha virt. eigenvalues --    0.93345   0.93822   0.94486   0.95321   0.95705
 Alpha virt. eigenvalues --    0.95746   0.97191   0.97397   0.97969   0.98814
 Alpha virt. eigenvalues --    0.99771   1.00116   1.00487   1.01551   1.02202
 Alpha virt. eigenvalues --    1.02899   1.03219   1.03682   1.04600   1.05311
 Alpha virt. eigenvalues --    1.06063   1.06641   1.07066   1.07753   1.08204
 Alpha virt. eigenvalues --    1.08512   1.09136   1.09338   1.09998   1.10573
 Alpha virt. eigenvalues --    1.11206   1.12097   1.12452   1.13140   1.13837
 Alpha virt. eigenvalues --    1.14972   1.15318   1.16326   1.16624   1.16695
 Alpha virt. eigenvalues --    1.17944   1.18077   1.18567   1.19887   1.20545
 Alpha virt. eigenvalues --    1.21140   1.21716   1.22250   1.22732   1.23133
 Alpha virt. eigenvalues --    1.23421   1.23894   1.24211   1.24551   1.25000
 Alpha virt. eigenvalues --    1.25767   1.26560   1.27179   1.27415   1.27782
 Alpha virt. eigenvalues --    1.27960   1.28571   1.29911   1.30033   1.30392
 Alpha virt. eigenvalues --    1.31065   1.31527   1.31776   1.32241   1.32615
 Alpha virt. eigenvalues --    1.33073   1.33929   1.34782   1.35998   1.36898
 Alpha virt. eigenvalues --    1.37729   1.38155   1.38601   1.39554   1.40193
 Alpha virt. eigenvalues --    1.41155   1.41776   1.42083   1.42816   1.43969
 Alpha virt. eigenvalues --    1.44306   1.44801   1.45034   1.46230   1.46804
 Alpha virt. eigenvalues --    1.47044   1.47700   1.48210   1.48407   1.49801
 Alpha virt. eigenvalues --    1.49971   1.50117   1.50816   1.51085   1.51804
 Alpha virt. eigenvalues --    1.52225   1.52719   1.52881   1.53255   1.53886
 Alpha virt. eigenvalues --    1.53928   1.54661   1.55364   1.55868   1.56537
 Alpha virt. eigenvalues --    1.56623   1.57461   1.57914   1.58207   1.58730
 Alpha virt. eigenvalues --    1.58775   1.59328   1.59701   1.60105   1.60472
 Alpha virt. eigenvalues --    1.60709   1.61475   1.62375   1.63109   1.63851
 Alpha virt. eigenvalues --    1.64100   1.64581   1.64994   1.65380   1.65866
 Alpha virt. eigenvalues --    1.66427   1.67083   1.67389   1.67690   1.68803
 Alpha virt. eigenvalues --    1.69121   1.69551   1.69916   1.70054   1.70883
 Alpha virt. eigenvalues --    1.71287   1.71766   1.72427   1.72822   1.73270
 Alpha virt. eigenvalues --    1.73973   1.74366   1.75014   1.75789   1.76276
 Alpha virt. eigenvalues --    1.76451   1.77084   1.77220   1.78043   1.78224
 Alpha virt. eigenvalues --    1.78910   1.79415   1.79683   1.80862   1.81526
 Alpha virt. eigenvalues --    1.82270   1.84018   1.84794   1.84983   1.85572
 Alpha virt. eigenvalues --    1.86844   1.87201   1.87808   1.88792   1.89650
 Alpha virt. eigenvalues --    1.89981   1.90337   1.90674   1.91120   1.91199
 Alpha virt. eigenvalues --    1.92323   1.92645   1.93352   1.94138   1.95413
 Alpha virt. eigenvalues --    1.95868   1.96317   1.96448   1.96974   1.98123
 Alpha virt. eigenvalues --    1.98467   1.98783   1.99425   2.01210   2.01979
 Alpha virt. eigenvalues --    2.02331   2.02974   2.04427   2.04947   2.05883
 Alpha virt. eigenvalues --    2.06771   2.07185   2.08091   2.08331   2.09050
 Alpha virt. eigenvalues --    2.09415   2.10138   2.10877   2.12330   2.12515
 Alpha virt. eigenvalues --    2.12834   2.13541   2.14255   2.14413   2.14894
 Alpha virt. eigenvalues --    2.16612   2.17298   2.17728   2.18328   2.18456
 Alpha virt. eigenvalues --    2.18839   2.18885   2.20200   2.20498   2.21705
 Alpha virt. eigenvalues --    2.22232   2.23211   2.23329   2.23647   2.23959
 Alpha virt. eigenvalues --    2.24148   2.25038   2.25397   2.26146   2.26791
 Alpha virt. eigenvalues --    2.27639   2.28494   2.29419   2.30434   2.30952
 Alpha virt. eigenvalues --    2.31502   2.32229   2.32705   2.34684   2.35320
 Alpha virt. eigenvalues --    2.36114   2.36430   2.36816   2.37569   2.38051
 Alpha virt. eigenvalues --    2.39494   2.40631   2.41424   2.41751   2.42553
 Alpha virt. eigenvalues --    2.43364   2.44914   2.45409   2.45865   2.47091
 Alpha virt. eigenvalues --    2.47296   2.49657   2.50127   2.51425   2.51514
 Alpha virt. eigenvalues --    2.51824   2.52335   2.53383   2.53947   2.55019
 Alpha virt. eigenvalues --    2.55165   2.56012   2.56768   2.56915   2.57103
 Alpha virt. eigenvalues --    2.57759   2.58416   2.59196   2.59972   2.61304
 Alpha virt. eigenvalues --    2.61815   2.62138   2.62678   2.63282   2.63416
 Alpha virt. eigenvalues --    2.64142   2.64429   2.64649   2.65230   2.65539
 Alpha virt. eigenvalues --    2.66546   2.66830   2.67450   2.67882   2.69023
 Alpha virt. eigenvalues --    2.69361   2.69975   2.70287   2.70334   2.71050
 Alpha virt. eigenvalues --    2.72034   2.72304   2.72754   2.73400   2.73625
 Alpha virt. eigenvalues --    2.74418   2.74856   2.74954   2.75200   2.75312
 Alpha virt. eigenvalues --    2.75594   2.76348   2.76522   2.76964   2.77329
 Alpha virt. eigenvalues --    2.78631   2.78965   2.79429   2.80372   2.80789
 Alpha virt. eigenvalues --    2.80926   2.81098   2.81507   2.81972   2.82343
 Alpha virt. eigenvalues --    2.82714   2.83409   2.83871   2.84362   2.84832
 Alpha virt. eigenvalues --    2.85134   2.85577   2.86504   2.86610   2.87194
 Alpha virt. eigenvalues --    2.87720   2.87813   2.88549   2.88928   2.89069
 Alpha virt. eigenvalues --    2.89685   2.90361   2.90612   2.90822   2.91492
 Alpha virt. eigenvalues --    2.92763   2.93026   2.93459   2.93836   2.94251
 Alpha virt. eigenvalues --    2.94831   2.95100   2.95603   2.96092   2.96302
 Alpha virt. eigenvalues --    2.96953   2.97680   2.97986   2.98119   2.99460
 Alpha virt. eigenvalues --    2.99704   3.00656   3.01141   3.02137   3.02276
 Alpha virt. eigenvalues --    3.02475   3.03281   3.03564   3.04414   3.04461
 Alpha virt. eigenvalues --    3.05620   3.06345   3.06874   3.07134   3.07948
 Alpha virt. eigenvalues --    3.08105   3.09360   3.09622   3.10269   3.10684
 Alpha virt. eigenvalues --    3.11162   3.11578   3.12071   3.12787   3.13794
 Alpha virt. eigenvalues --    3.14337   3.14842   3.14854   3.15432   3.15912
 Alpha virt. eigenvalues --    3.16168   3.16985   3.17547   3.17913   3.18257
 Alpha virt. eigenvalues --    3.18873   3.19307   3.19518   3.19685   3.19834
 Alpha virt. eigenvalues --    3.20141   3.21330   3.22413   3.22729   3.23046
 Alpha virt. eigenvalues --    3.23335   3.23985   3.24112   3.24732   3.25041
 Alpha virt. eigenvalues --    3.25340   3.26068   3.26726   3.27562   3.27732
 Alpha virt. eigenvalues --    3.28227   3.28714   3.29169   3.29489   3.30343
 Alpha virt. eigenvalues --    3.30833   3.31181   3.31877   3.32715   3.33335
 Alpha virt. eigenvalues --    3.33549   3.33719   3.33891   3.34070   3.34934
 Alpha virt. eigenvalues --    3.36251   3.36500   3.36637   3.36972   3.37459
 Alpha virt. eigenvalues --    3.37807   3.38293   3.38565   3.39607   3.39728
 Alpha virt. eigenvalues --    3.40415   3.41039   3.41187   3.41549   3.42009
 Alpha virt. eigenvalues --    3.42579   3.42951   3.43592   3.44138   3.44783
 Alpha virt. eigenvalues --    3.45133   3.45554   3.46318   3.46672   3.47282
 Alpha virt. eigenvalues --    3.47522   3.47769   3.48363   3.48821   3.49329
 Alpha virt. eigenvalues --    3.50139   3.50484   3.50747   3.51186   3.51886
 Alpha virt. eigenvalues --    3.52377   3.52641   3.53756   3.54069   3.54713
 Alpha virt. eigenvalues --    3.54781   3.55349   3.56428   3.56730   3.57172
 Alpha virt. eigenvalues --    3.57816   3.58010   3.58763   3.58890   3.59377
 Alpha virt. eigenvalues --    3.59788   3.60099   3.60555   3.60870   3.61175
 Alpha virt. eigenvalues --    3.62107   3.63006   3.63186   3.63392   3.63764
 Alpha virt. eigenvalues --    3.64470   3.65177   3.65680   3.66104   3.67526
 Alpha virt. eigenvalues --    3.68303   3.69887   3.70957   3.72083   3.72511
 Alpha virt. eigenvalues --    3.73208   3.73531   3.75018   3.75457   3.75804
 Alpha virt. eigenvalues --    3.76542   3.77117   3.79103   3.79695   3.80104
 Alpha virt. eigenvalues --    3.81828   3.83357   3.84395   3.84659   3.85020
 Alpha virt. eigenvalues --    3.87399   3.87779   3.89053   3.89930   3.91215
 Alpha virt. eigenvalues --    3.91560   3.92254   3.93093   3.93925   3.95096
 Alpha virt. eigenvalues --    3.95952   3.96876   3.98593   3.98674   3.98841
 Alpha virt. eigenvalues --    3.99383   4.00126   4.01363   4.01754   4.02332
 Alpha virt. eigenvalues --    4.02800   4.04230   4.05144   4.05664   4.07223
 Alpha virt. eigenvalues --    4.08362   4.08757   4.09102   4.10923   4.11106
 Alpha virt. eigenvalues --    4.12114   4.12985   4.14094   4.14943   4.16653
 Alpha virt. eigenvalues --    4.17020   4.18428   4.18846   4.19580   4.20552
 Alpha virt. eigenvalues --    4.20788   4.21684   4.22441   4.23252   4.24991
 Alpha virt. eigenvalues --    4.25183   4.26175   4.27092   4.27334   4.27793
 Alpha virt. eigenvalues --    4.28304   4.28978   4.29451   4.29816   4.30852
 Alpha virt. eigenvalues --    4.31156   4.31282   4.31790   4.32190   4.33158
 Alpha virt. eigenvalues --    4.33312   4.33532   4.34124   4.35316   4.36308
 Alpha virt. eigenvalues --    4.36981   4.37317   4.39421   4.40606   4.40903
 Alpha virt. eigenvalues --    4.42337   4.43141   4.44566   4.47787   4.48820
 Alpha virt. eigenvalues --    4.49525   4.50950   4.51219   4.52132   4.53054
 Alpha virt. eigenvalues --    4.55438   4.55819   4.56169   4.57716   4.60735
 Alpha virt. eigenvalues --    4.64574   4.65402   4.65982   4.66900   4.67645
 Alpha virt. eigenvalues --    4.69687   4.70991   4.71534   4.72804   4.73930
 Alpha virt. eigenvalues --    4.75028   4.75881   4.77052   4.77418   4.79421
 Alpha virt. eigenvalues --    4.81383   4.82979   4.83582   4.85550   4.86981
 Alpha virt. eigenvalues --    4.90672   4.92428   4.93393   4.96802   4.97868
 Alpha virt. eigenvalues --    4.99845   4.99867   5.01795   5.03860   5.05006
 Alpha virt. eigenvalues --    5.06326   5.07157   5.07897   5.09305   5.10993
 Alpha virt. eigenvalues --    5.12055   5.16049   5.16952   5.18312   5.18661
 Alpha virt. eigenvalues --    5.19707   5.24839   5.25271   5.27172   5.28562
 Alpha virt. eigenvalues --    5.31058   5.32743   5.33782   5.35498   5.37075
 Alpha virt. eigenvalues --    5.37856   5.37887   5.39794   5.43362   5.46472
 Alpha virt. eigenvalues --    5.46507   5.46820   5.47920   5.52822   5.53055
 Alpha virt. eigenvalues --    5.53474   5.56486   5.59853   5.60833   5.61226
 Alpha virt. eigenvalues --    5.62567   5.65679   5.67368   5.68523   5.69208
 Alpha virt. eigenvalues --    5.71650   5.71759   5.75492   5.78609   5.82931
 Alpha virt. eigenvalues --    5.86864   5.88136   5.88213   5.88626   5.88759
 Alpha virt. eigenvalues --    5.93306   5.94664   5.95219   5.98645   6.07575
 Alpha virt. eigenvalues --    6.14143   6.14264   6.22169   6.36638   6.44713
 Alpha virt. eigenvalues --    6.47673   6.49200   6.52263   6.55549   6.56656
 Alpha virt. eigenvalues --    6.63507   6.69807   6.77291   6.83003   6.89501
 Alpha virt. eigenvalues --    6.90653   6.92145   6.93109   7.00554   7.01596
 Alpha virt. eigenvalues --    7.09638   7.31410   7.40390   7.53822   7.59355
 Alpha virt. eigenvalues --   16.30618  22.31421  22.39633  22.42382  22.51730
 Alpha virt. eigenvalues --   22.55827  22.69701  22.70461  22.72520  22.72965
 Alpha virt. eigenvalues --   22.75843  22.77514  22.79164  22.81580  22.86409
 Alpha virt. eigenvalues --   22.88679  22.91097  22.99215  23.02608  23.05507
 Alpha virt. eigenvalues --   23.11173  23.18963  23.26784  23.37957  23.42044
 Alpha virt. eigenvalues --   23.47788  23.81060  33.46468  43.73496  43.83464
 Alpha virt. eigenvalues --   44.42797
          Condensed to atoms (all electrons):
 Mulliken charges:
               1
     1  C   -0.024774
     2  C   -0.193797
     3  C    0.300593
     4  C   -0.024241
     5  C   -0.114863
     6  C   -0.112909
     7  C    0.520912
     8  C   -0.037546
     9  C    0.307476
    10  C   -0.194389
    11  H    0.141223
    12  C   -0.024498
    13  C   -0.116568
    14  C   -0.112254
    15  H    0.114479
    16  H    0.141468
    17  H    0.163284
    18  H    0.106583
    19  H    0.114367
    20  H    0.106367
    21  H    0.167603
    22  N   -0.031761
    23  C    0.012574
    24  C   -0.362346
    25  C   -0.318456
    26  C   -0.074235
    27  C   -0.060642
    28  C   -0.186227
    29  H    0.098178
    30  H    0.135675
    31  H    0.119844
    32  C    0.103779
    33  C   -0.305570
    34  C   -0.284752
    35  C   -0.170057
    36  H    0.112310
    37  C   -0.106438
    38  H    0.108155
    39  C    0.597422
    40  H    0.124930
    41  H    0.103585
    42  O   -0.467202
    43  C   -0.000186
    44  H    0.095321
    45  H    0.086822
    46  H    0.086891
    47  H    0.092474
    48  B    0.690725
    49  O   -0.576571
    50  O   -0.582289
    51  H    0.365691
    52  H    0.363837
 Sum of Mulliken charges =   1.00000
 Mulliken charges with hydrogens summed into heavy atoms:
               1
     1  C    0.089706
     2  C   -0.052329
     3  C    0.300593
     4  C   -0.024241
     5  C    0.048421
     6  C   -0.006326
     7  C    0.520912
     8  C   -0.037546
     9  C    0.307476
    10  C   -0.053166
    12  C    0.089869
    13  C   -0.010201
[...]
 Alpha virt. eigenvalues --    0.54371   0.54783   0.54901   0.55485   0.55601
 Alpha virt. eigenvalues --    0.56427   0.57394   0.57639   0.58317   0.59003
 Alpha virt. eigenvalues --    0.59348   0.59490   0.59717   0.60334   0.60467
 Alpha virt. eigenvalues --    0.61469   0.61671   0.61851   0.62227   0.62878
 Alpha virt. eigenvalues --    0.63581   0.63623   0.63990   0.64470   0.64723
 Alpha virt. eigenvalues --    0.65109   0.65246   0.65493   0.65853   0.66107
 Alpha virt. eigenvalues --    0.66465   0.67055   0.67288   0.67708   0.68392
 Alpha virt. eigenvalues --    0.68404   0.68694   0.69254   0.69461   0.69569
 Alpha virt. eigenvalues --    0.70432   0.70735   0.70948   0.71463   0.71525
 Alpha virt. eigenvalues --    0.72433   0.72657   0.73037   0.73367   0.73841
 Alpha virt. eigenvalues --    0.74254   0.74497   0.74617   0.75240   0.75421
 Alpha virt. eigenvalues --    0.75692   0.76374   0.76684   0.77676   0.78059
 Alpha virt. eigenvalues --    0.78767   0.79482   0.79746   0.80600   0.80886
 Alpha virt. eigenvalues --    0.81484   0.82030   0.82115   0.82473   0.83017
 Alpha virt. eigenvalues --    0.83268   0.83938   0.84218   0.84958   0.85670
 Alpha virt. eigenvalues --    0.86191   0.86441   0.86776   0.87049   0.87452
 Alpha virt. eigenvalues --    0.87739   0.88013   0.89337   0.89497   0.89831
 Alpha virt. eigenvalues --    0.90660   0.91016   0.91780   0.92709   0.93326
 Alpha virt. eigenvalues --    0.93551   0.93933   0.94795   0.95537   0.96059
 Alpha virt. eigenvalues --    0.96218   0.97512   0.97935   0.98204   0.98927
 Alpha virt. eigenvalues --    0.99767   1.00002   1.00789   1.01875   1.02465
 Alpha virt. eigenvalues --    1.03194   1.03474   1.04111   1.04845   1.05413
 Alpha virt. eigenvalues --    1.06469   1.07021   1.07471   1.07930   1.08503
 Alpha virt. eigenvalues --    1.08827   1.09394   1.09491   1.10447   1.11083
 Alpha virt. eigenvalues --    1.11518   1.12619   1.12749   1.13687   1.14437
 Alpha virt. eigenvalues --    1.15239   1.15554   1.16666   1.17091   1.17238
 Alpha virt. eigenvalues --    1.18550   1.18985   1.19073   1.20496   1.21063
 Alpha virt. eigenvalues --    1.22056   1.22191   1.22443   1.23059   1.23832
 Alpha virt. eigenvalues --    1.24276   1.24551   1.25128   1.25306   1.25792
 Alpha virt. eigenvalues --    1.26653   1.27009   1.27746   1.27938   1.28299
 Alpha virt. eigenvalues --    1.28499   1.28808   1.30424   1.30476   1.30811
 Alpha virt. eigenvalues --    1.31635   1.32244   1.32468   1.32878   1.33165
 Alpha virt. eigenvalues --    1.33768   1.34299   1.35537   1.36724   1.37285
 Alpha virt. eigenvalues --    1.38476   1.38486   1.39219   1.40158   1.40371
 Alpha virt. eigenvalues --    1.41774   1.42396   1.42833   1.43285   1.44339
 Alpha virt. eigenvalues --    1.44728   1.45228   1.45428   1.46604   1.47006
 Alpha virt. eigenvalues --    1.47475   1.48302   1.48899   1.49027   1.50213
 Alpha virt. eigenvalues --    1.50387   1.50870   1.51308   1.51632   1.52186
 Alpha virt. eigenvalues --    1.52863   1.53156   1.53638   1.53764   1.54296
 Alpha virt. eigenvalues --    1.54652   1.55501   1.56004   1.56402   1.56650
 Alpha virt. eigenvalues --    1.57022   1.58091   1.58461   1.58655   1.59217
 Alpha virt. eigenvalues --    1.59321   1.59708   1.60296   1.60690   1.61000
 Alpha virt. eigenvalues --    1.61433   1.62221   1.62818   1.63532   1.64043
 Alpha virt. eigenvalues --    1.64166   1.65071   1.65718   1.66011   1.66622
 Alpha virt. eigenvalues --    1.67380   1.67702   1.68164   1.68721   1.69387
 Alpha virt. eigenvalues --    1.69742   1.70368   1.70587   1.70762   1.71653
 Alpha virt. eigenvalues --    1.72046   1.72610   1.72929   1.73620   1.73839
 Alpha virt. eigenvalues --    1.74917   1.75077   1.75684   1.76598   1.76858
 Alpha virt. eigenvalues --    1.77237   1.77721   1.78050   1.78781   1.78957
 Alpha virt. eigenvalues --    1.79534   1.80315   1.80479   1.81601   1.82368
 Alpha virt. eigenvalues --    1.83220   1.84935   1.85397   1.85587   1.85901
 Alpha virt. eigenvalues --    1.87311   1.87970   1.88347   1.89844   1.90525
 Alpha virt. eigenvalues --    1.90843   1.91196   1.91479   1.91870   1.92182
 Alpha virt. eigenvalues --    1.92920   1.93475   1.94325   1.94527   1.96505
 Alpha virt. eigenvalues --    1.96896   1.97177   1.97240   1.98115   1.99109
 Alpha virt. eigenvalues --    1.99537   1.99800   2.00318   2.02053   2.03200
 Alpha virt. eigenvalues --    2.03539   2.04102   2.05469   2.06293   2.07049
 Alpha virt. eigenvalues --    2.07595   2.08070   2.08762   2.08900   2.09857
 Alpha virt. eigenvalues --    2.10267   2.10852   2.11930   2.13213   2.13304
 Alpha virt. eigenvalues --    2.14068   2.14660   2.14938   2.15341   2.15861
 Alpha virt. eigenvalues --    2.17424   2.18362   2.18649   2.18799   2.19744
 Alpha virt. eigenvalues --    2.19999   2.20084   2.20770   2.21641   2.22499
 Alpha virt. eigenvalues --    2.23068   2.24194   2.24341   2.24874   2.25115
 Alpha virt. eigenvalues --    2.25285   2.25593   2.26329   2.27338   2.27968
 Alpha virt. eigenvalues --    2.28437   2.29311   2.31108   2.31654   2.32325
 Alpha virt. eigenvalues --    2.32647   2.32875   2.34074   2.35888   2.36214
 Alpha virt. eigenvalues --    2.36953   2.37741   2.38134   2.38776   2.39093
 Alpha virt. eigenvalues --    2.39977   2.41464   2.42390   2.43081   2.43351
 Alpha virt. eigenvalues --    2.44574   2.45934   2.46607   2.47071   2.48156
 Alpha virt. eigenvalues --    2.48644   2.50163   2.50537   2.51481   2.52292
 Alpha virt. eigenvalues --    2.52303   2.53038   2.53962   2.54791   2.55317
 Alpha virt. eigenvalues --    2.56075   2.56872   2.57333   2.57959   2.58077
 Alpha virt. eigenvalues --    2.58505   2.59168   2.59921   2.60471   2.62313
 Alpha virt. eigenvalues --    2.62497   2.62648   2.63609   2.64353   2.64428
 Alpha virt. eigenvalues --    2.65399   2.65750   2.66050   2.66378   2.66614
 Alpha virt. eigenvalues --    2.67843   2.67933   2.68919   2.69648   2.70171
 Alpha virt. eigenvalues --    2.70515   2.71308   2.71458   2.71477   2.72198
 Alpha virt. eigenvalues --    2.73004   2.73351   2.74229   2.74444   2.74964
 Alpha virt. eigenvalues --    2.75444   2.75475   2.76199   2.76420   2.76481
 Alpha virt. eigenvalues --    2.76684   2.77310   2.77552   2.77921   2.78102
 Alpha virt. eigenvalues --    2.79504   2.80377   2.80507   2.81141   2.81526
 Alpha virt. eigenvalues --    2.82090   2.82454   2.82505   2.82798   2.83325
 Alpha virt. eigenvalues --    2.83469   2.84100   2.84976   2.85483   2.85901
 Alpha virt. eigenvalues --    2.86096   2.86501   2.87610   2.88026   2.88330
 Alpha virt. eigenvalues --    2.88612   2.88965   2.89510   2.90056   2.90617
 Alpha virt. eigenvalues --    2.90921   2.91387   2.91797   2.92327   2.92947
 Alpha virt. eigenvalues --    2.93283   2.94331   2.94663   2.94906   2.95501
 Alpha virt. eigenvalues --    2.96001   2.96654   2.96884   2.97337   2.97474
 Alpha virt. eigenvalues --    2.98195   2.98597   2.98880   2.99139   3.00092
 Alpha virt. eigenvalues --    3.00746   3.01263   3.01489   3.02161   3.02962
 Alpha virt. eigenvalues --    3.03640   3.03947   3.04277   3.05419   3.05830
 Alpha virt. eigenvalues --    3.06332   3.07206   3.07753   3.07994   3.08556
 Alpha virt. eigenvalues --    3.08982   3.09529   3.10328   3.10560   3.11692
 Alpha virt. eigenvalues --    3.11876   3.12069   3.12829   3.13749   3.14090
 Alpha virt. eigenvalues --    3.14529   3.15242   3.15415   3.15639   3.16450
 Alpha virt. eigenvalues --    3.16840   3.17712   3.18069   3.18456   3.19064
 Alpha virt. eigenvalues --    3.19518   3.19702   3.20010   3.20189   3.20352
 Alpha virt. eigenvalues --    3.20736   3.21759   3.22950   3.23232   3.23493
 Alpha virt. eigenvalues --    3.24115   3.24493   3.25059   3.25505   3.26025
 Alpha virt. eigenvalues --    3.26559   3.27198   3.27316   3.28304   3.28683
 Alpha virt. eigenvalues --    3.28730   3.29514   3.30051   3.30304   3.31405
 Alpha virt. eigenvalues --    3.31642   3.31999   3.32564   3.33388   3.33807
 Alpha virt. eigenvalues --    3.34392   3.34723   3.34960   3.35141   3.35917
 Alpha virt. eigenvalues --    3.37348   3.37463   3.37811   3.38372   3.38892
 Alpha virt. eigenvalues --    3.39084   3.39183   3.39758   3.40672   3.41167
 Alpha virt. eigenvalues --    3.41182   3.42007   3.42579   3.42775   3.43223
 Alpha virt. eigenvalues --    3.43820   3.44038   3.44642   3.45287   3.45718
 Alpha virt. eigenvalues --    3.46218   3.46736   3.47363   3.47570   3.48017
 Alpha virt. eigenvalues --    3.48231   3.49102   3.49533   3.49966   3.50357
 Alpha virt. eigenvalues --    3.51177   3.51733   3.51915   3.52190   3.52973
 Alpha virt. eigenvalues --    3.53340   3.53624   3.55090   3.55310   3.55667
 Alpha virt. eigenvalues --    3.56233   3.56590   3.57729   3.57954   3.58139
 Alpha virt. eigenvalues --    3.59061   3.59510   3.60159   3.60418   3.60758
 Alpha virt. eigenvalues --    3.61164   3.61920   3.62173   3.62388   3.62933
 Alpha virt. eigenvalues --    3.63490   3.63951   3.64164   3.64726   3.64769
 Alpha virt. eigenvalues --    3.65810   3.66279   3.66650   3.67580   3.68723
 Alpha virt. eigenvalues --    3.70027   3.71674   3.72525   3.73169   3.73861
 Alpha virt. eigenvalues --    3.74946   3.75227   3.76111   3.76630   3.77291
 Alpha virt. eigenvalues --    3.78137   3.78463   3.80066   3.81470   3.82264
 Alpha virt. eigenvalues --    3.83858   3.84887   3.86250   3.86688   3.87226
 Alpha virt. eigenvalues --    3.89254   3.89624   3.90834   3.91568   3.92987
 Alpha virt. eigenvalues --    3.93641   3.94430   3.94979   3.96352   3.97429
 Alpha virt. eigenvalues --    3.98080   3.98412   4.00526   4.01253   4.01287
 Alpha virt. eigenvalues --    4.01687   4.02283   4.03349   4.03618   4.04825
 Alpha virt. eigenvalues --    4.04915   4.06211   4.07193   4.07724   4.09173
 Alpha virt. eigenvalues --    4.09453   4.11080   4.11201   4.12575   4.13044
 Alpha virt. eigenvalues --    4.14120   4.15794   4.16248   4.17197   4.18781
 Alpha virt. eigenvalues --    4.18842   4.20571   4.21036   4.21805   4.22342
 Alpha virt. eigenvalues --    4.22792   4.23958   4.24751   4.25442   4.27199
 Alpha virt. eigenvalues --    4.27659   4.28563   4.29322   4.29764   4.30284
 Alpha virt. eigenvalues --    4.30520   4.31335   4.31684   4.32275   4.33198
 Alpha virt. eigenvalues --    4.33479   4.33689   4.34214   4.34563   4.35614
 Alpha virt. eigenvalues --    4.35900   4.36061   4.36580   4.38243   4.39241
 Alpha virt. eigenvalues --    4.39869   4.39977   4.42300   4.43555   4.43692
 Alpha virt. eigenvalues --    4.44093   4.45935   4.47357   4.50888   4.51423
 Alpha virt. eigenvalues --    4.52205   4.53525   4.53814   4.54609   4.54795
 Alpha virt. eigenvalues --    4.57992   4.58560   4.59237   4.60961   4.63701
 Alpha virt. eigenvalues --    4.67553   4.68113   4.68878   4.70139   4.70750
 Alpha virt. eigenvalues --    4.72060   4.73796   4.74746   4.75616   4.75872
 Alpha virt. eigenvalues --    4.77865   4.78722   4.79488   4.80684   4.81772
 Alpha virt. eigenvalues --    4.84055   4.85327   4.86737   4.87848   4.89021
 Alpha virt. eigenvalues --    4.92627   4.94162   4.95173   4.98745   4.99197
 Alpha virt. eigenvalues --    5.01062   5.02556   5.03313   5.06109   5.07491
 Alpha virt. eigenvalues --    5.07674   5.10023   5.10400   5.11607   5.13188
 Alpha virt. eigenvalues --    5.14168   5.19375   5.19541   5.20529   5.22039
 Alpha virt. eigenvalues --    5.22799   5.27001   5.28701   5.30639   5.31010
 Alpha virt. eigenvalues --    5.31685   5.36089   5.37114   5.37920   5.38753
 Alpha virt. eigenvalues --    5.39492   5.40659   5.42696   5.45050   5.47802
 Alpha virt. eigenvalues --    5.48141   5.48424   5.49172   5.52995   5.54115
 Alpha virt. eigenvalues --    5.55555   5.58036   5.60104   5.61499   5.62794
 Alpha virt. eigenvalues --    5.64499   5.66832   5.68316   5.69202   5.70732
 Alpha virt. eigenvalues --    5.73032   5.73310   5.74721   5.78520   5.85874
 Alpha virt. eigenvalues --    5.87293   5.88503   5.88554   5.90841   5.91061
 Alpha virt. eigenvalues --    5.94279   5.97870   5.99068   6.00240   6.05122
 Alpha virt. eigenvalues --    6.13837   6.17355   6.23917   6.39405   6.44973
 Alpha virt. eigenvalues --    6.48636   6.49565   6.52248   6.54886   6.61015
 Alpha virt. eigenvalues --    6.63484   6.68870   6.78223   6.82722   6.89097
 Alpha virt. eigenvalues --    6.90575   6.92691   6.93855   7.00712   7.01626
 Alpha virt. eigenvalues --    7.09937   7.31617   7.40627   7.53241   7.59696
 Alpha virt. eigenvalues --   16.32083  22.32896  22.42159  22.46638  22.54217
 Alpha virt. eigenvalues --   22.60504  22.75351  22.76808  22.78415  22.79112
 Alpha virt. eigenvalues --   22.82362  22.84193  22.85144  22.88097  22.91153
 Alpha virt. eigenvalues --   22.95267  22.97123  23.06350  23.07888  23.12220
 Alpha virt. eigenvalues --   23.16667  23.24956  23.33369  23.45257  23.48355
 Alpha virt. eigenvalues --   23.55203  23.89117  33.49103  43.74349  43.83235
 Alpha virt. eigenvalues --   44.42020
          Condensed to atoms (all electrons):
 Mulliken charges:
               1
     1  C   -0.014531
     2  C   -0.188015
     3  C    0.306316
     4  C   -0.031220
     5  C   -0.111110
     6  C   -0.103884
     7  C    0.541334
     8  C   -0.049950
     9  C    0.313010
    10  C   -0.188532
    11  H    0.134477
    12  C   -0.012992
    13  C   -0.109144
    14  C   -0.103263
    15  H    0.106584
    16  H    0.134559
    17  H    0.160008
    18  H    0.098287
    19  H    0.106549
    20  H    0.098058
    21  H    0.164228
    22  N   -0.046851
    23  C    0.045214
    24  C   -0.390218
    25  C   -0.334553
    26  C   -0.040524
    27  C   -0.053817
    28  C   -0.177897
    29  H    0.090527
    30  H    0.131492
    31  H    0.115914
    32  C    0.113954
    33  C   -0.317005
    34  C   -0.285535
    35  C   -0.157066
    36  H    0.104786
    37  C   -0.100042
    38  H    0.100833
    39  C    0.611797
    40  H    0.119305
    41  H    0.096620
    42  O   -0.470531
    43  C    0.011426
    44  H    0.090925
    45  H    0.083032
    46  H    0.083227
    47  H    0.084789
    48  B    0.682379
    49  O   -0.576082
    50  O   -0.588349
    51  H    0.358839
    52  H    0.362645
 Sum of Mulliken charges =   1.00000
 Mulliken charges with hydrogens summed into heavy atoms:
               1
     1  C    0.092053
     2  C   -0.053456
     3  C    0.306316
     4  C   -0.031220
     5  C    0.048899
     6  C   -0.005597
     7  C    0.541334
     8  C   -0.049950
     9  C    0.313010
    10  C   -0.054055
    12  C    0.093556
    13  C   -0.011086
    14  C    0.060965
    22  N   -0.046851
    23  C    0.045214
    24  C   -0.258726
    25  C   -0.218640
    26  C   -0.040524
    27  C    0.036710
    28  C   -0.093107
    32  C    0.113954
    33  C   -0.212219
    34  C   -0.184702
    35  C   -0.037761
    37  C   -0.003422
    39  C    0.611797
    42  O   -0.470531
    43  C    0.268611
    48  B    0.682379
    49  O   -0.217243
    50  O   -0.225704
 Electronic spatial extent (au):  <R**2>=          15901.0201
 Charge=              1.0000 electrons
 Dipole moment (field-independent basis, Debye):
    X=             -2.2739    Y=              1.3794    Z=             -0.5241  Tot=              2.7108
 Quadrupole moment (field-independent basis, Debye-Ang):
   XX=            -94.5992   YY=           -140.3974   ZZ=           -162.8221
   XY=              8.3186   XZ=            -19.8498   YZ=             -0.0793
 Traceless Quadrupole moment (field-independent basis, Debye-Ang):
   XX=             38.0070   YY=             -7.7911   ZZ=            -30.2159
   XY=              8.3186   XZ=            -19.8498   YZ=             -0.0793
 Octapole moment (field-independent basis, Debye-Ang**2):
  XXX=            -40.3950  YYY=              3.2580  ZZZ=             26.9913  XYY=              6.7040
  XXY=              7.9896  XXZ=             70.0468  XZZ=            -21.5032  YZZ=            -12.4955
  YYZ=              1.4305  XYZ=            -13.3521
 Hexadecapole moment (field-independent basis, Debye-Ang**3):
 XXXX=         -12546.2397 YYYY=          -2681.4584 ZZZZ=          -1113.0233 XXXY=            441.0618
 XXXZ=           -948.7038 YYYX=            -93.3369 YYYZ=             95.8624 ZZZX=             94.8189
 ZZZY=           -105.7043 XXYY=          -3143.2613 XXZZ=          -2573.7078 YYZZ=           -720.1790
 XXYZ=           -207.1882 YYXZ=             21.7146 ZZXY=            -39.2577
 N-N= 2.790252801643D+03 E-N=-8.602850033688D+03  KE= 1.303555327965D+03
 Leave Link  601 at Tue Feb 16 18:50:29 2021, MaxMem=  5242880000 cpu:         6.5
 (Enter /opt/nce/packages/global/g09/l9999.exe)
 1\1\GINC-CN020\SP\RM06L TD-FC\Gen\C26H21B1N1O3(1+)\PNG4RJV\16-Feb-2021
 \0\\#p m06l chkbasis geom=allcheck Guess=Read int=ultrafine scrf=(SMD,
 solvent=Acetonitrile) td=(NStates=30)\\Title\\1,1\C,0,1.1057840914,3.6
 568358838,-0.4222022111\C,0,1.6964207952,2.438651075,-0.2263623989\C,0
 ,0.9033762392,1.3071608933,0.0347326557\C,0,-0.5149123742,1.4392785595
 ,0.1189246425\C,0,-1.078134284,2.7189516075,-0.1200193786\C,0,-0.29138
 29996,3.801062163,-0.381549677\C,0,-1.3041876166,0.3095829643,0.403982
 2985\C,0,-0.6788759105,-0.9378375461,0.5857431193\C,0,0.7392163387,-1.
 0419534228,0.4639172461\C,0,1.3648150404,-2.2909285259,0.6243958935\H,
 0,2.435835314,-2.3719302447,0.5173395282\C,0,0.6159593417,-3.397202383
 1,0.9190896585\C,0,-0.7772232048,-3.3092890351,1.0803016887\C,0,-1.404
 7729383,-2.1098667894,0.91979458\H,0,1.7284871513,4.5187486863,-0.6234
 624759\H,0,2.7701928892,2.3409159316,-0.2752334541\H,0,-2.1531468042,2
 .8234666309,-0.1019546727\H,0,-0.73932418,4.7682978339,-0.5639059353\H
 ,0,1.1110846415,-4.3517323511,1.0411466387\H,0,-1.3468971127,-4.191734
 9092,1.337602969\H,0,-2.4737901765,-2.0353168291,1.0567249714\N,0,1.48
 00950219,0.0775937981,0.2002772921\C,0,-2.7698978225,0.4314556124,0.51
 08702235\C,0,-3.6024715127,-0.2519389711,-0.3733616151\C,0,-3.34271826
 97,1.2350179687,1.4983760506\C,0,-4.9925782316,-0.1426113075,-0.305988
 1223\C,0,-4.7198068789,1.3357390663,1.5988360249\C,0,-5.5324977273,0.6
 590742623,0.7031379467\H,0,-5.1571859842,1.94675143,2.3778577349\H,0,-
 3.1553463506,-0.8700377734,-1.1435401269\H,0,-2.7035203449,1.765265909
 8,2.1937551155\C,0,2.9184152972,-0.0412482567,0.0938352104\C,0,3.49379
 91568,-0.2651245714,-1.142384502\C,0,3.7005649906,0.0750290458,1.23448
 55726\C,0,4.8713053697,-0.3751169688,-1.2532415587\H,0,2.8665783894,-0
 .3520880409,-2.0206413507\C,0,5.0711445678,-0.0334403834,1.1305043876\
 H,0,3.2321367237,0.2497459784,2.1947627599\C,0,5.6665609374,-0.2583301
 616,-0.1137053141\H,0,5.3145662173,-0.549448789,-2.2227570795\H,0,5.70
 13637307,0.0543256767,2.0055450895\O,0,7.011176286,-0.347458395,-0.115
 7389447\C,0,7.6557686234,-0.5709132348,-1.3613779804\H,0,8.7203659543,
 -0.6054699331,-1.1483744946\H,0,7.3470724271,-1.5192937747,-1.80665314
 2\H,0,7.4559642049,0.2396362592,-2.0655480525\H,0,-6.6083781747,0.7608
 43786,0.8025194087\B,0,-5.8879536065,-0.9028833973,-1.3371441101\O,0,-
 7.2501577957,-0.8051031572,-1.3903147209\O,0,-5.269346508,-1.714235708
 8,-2.2440365675\H,0,-7.6270358376,-0.2104158667,-0.7336354808\H,0,-5.8
 976790945,-2.1362762948,-2.8410463405\\Version=ES64L-G09RevE.01\State=
 1-A\HF=-1308.9908227\RMSD=9.133e-09\PG=C01 [X(C26H21B1N1O3)]\\@


 I DO NOT KNOW WHAT I MAY APPEAR TO THE WORLD; BUT TO MYSELF
 I SEEM TO HAVE BEEN ONLY LIKE A BOY PLAYING ON THE SEASHORE,
 AND DIVERTING MYSELF IN NOW AND THEN FINDING A SMOOTHER PEBBLE
 OR A PRETTIER SHELL THAN ORDINARY, WHILST THE GREAT OCEAN OF
 TRUTH LAY ALL UNDISCOVERED BEFORE ME.
                                          -- NEWTON (1642-1726)
 Job cpu time:       2 days  8 hours 38 minutes 19.4 seconds.
 File lengths (MBytes):  RWF=   4679 Int=      0 D2E=      0 Chk=   1053 Scr=      1
 Normal termination of Gaussian 09 at Tue Feb 16 18:50:31 2021.
