 Entering Gaussian System, Link 0=g09
 Input=/home/png4rjv/fotokatalizis/benchmark/OPCs/BOH-Acr_m_TDHF_def2TZVP.gjf
 Output=/home/png4rjv/fotokatalizis/benchmark/OPCs/BOH-Acr_m_TDHF_def2TZVP.log
 Initial command:
 /opt/nce/packages/global/g09/l1.exe "/home/png4rjv/fotokatalizis/benchmark/OPCs/BOH-Acr_m_TDHF_def2TZVP/Gau-3183.inp" -scrdir="/home/png4rjv/fotokatalizis/benchmark/OPCs/BOH-Acr_m_TDHF_def2TZVP/"
 Default is to use a total of  12 processors:
                               12 via shared-memory
                                1 via Linda
 Entering Link 1 = /opt/nce/packages/global/g09/l1.exe PID=      3184.
  
 Copyright (c) 1988,1990,1992,1993,1995,1998,2003,2009,2015,
            Gaussian, Inc.  All Rights Reserved.
  
 This is part of the Gaussian(R) 09 program.  It is based on
 the Gaussian(R) 03 system (copyright 2003, Gaussian, Inc.),
 the Gaussian(R) 98 system (copyright 1998, Gaussian, Inc.),
 the Gaussian(R) 94 system (copyright 1995, Gaussian, Inc.),
 the Gaussian 92(TM) system (copyright 1992, Gaussian, Inc.),
 the Gaussian 90(TM) system (copyright 1990, Gaussian, Inc.),
 the Gaussian 88(TM) system (copyright 1988, Gaussian, Inc.),
 the Gaussian 86(TM) system (copyright 1986, Carnegie Mellon
 University), and the Gaussian 82(TM) system (copyright 1983,
 Carnegie Mellon University). Gaussian is a federally registered
 trademark of Gaussian, Inc.
  
 This software contains proprietary and confidential information,
 including trade secrets, belonging to Gaussian, Inc.
  
 This software is provided under written license and may be
 used, copied, transmitted, or stored only in accord with that
 written license.
  
 The following legend is applicable only to US Government
 contracts under FAR:
  
                    RESTRICTED RIGHTS LEGEND
  
 Use, reproduction and disclosure by the US Government is
 subject to restrictions as set forth in subparagraphs (a)
 and (c) of the Commercial Computer Software - Restricted
 Rights clause in FAR 52.227-19.
  
 Gaussian, Inc.
 340 Quinnipiac St., Bldg. 40, Wallingford CT 06492
  
  
 ---------------------------------------------------------------
 Warning -- This program may not be used in any manner that
 competes with the business of Gaussian, Inc. or will provide
 assistance to any competitor of Gaussian, Inc.  The licensee
 of this program is prohibited from giving any competitor of
 Gaussian, Inc. access to this program.  By using this program,
 the user acknowledges that Gaussian, Inc. is engaged in the
 business of creating and licensing software in the field of
 computational chemistry and represents and warrants to the
 licensee that it is not a competitor of Gaussian, Inc. and that
 it will not use this program in any manner prohibited above.
 ---------------------------------------------------------------
  

 Cite this work as:
 Gaussian 09, Revision E.01,
 M. J. Frisch, G. W. Trucks, H. B. Schlegel, G. E. Scuseria, 
 M. A. Robb, J. R. Cheeseman, G. Scalmani, V. Barone, B. Mennucci, 
 G. A. Petersson, H. Nakatsuji, M. Caricato, X. Li, H. P. Hratchian, 
 A. F. Izmaylov, J. Bloino, G. Zheng, J. L. Sonnenberg, M. Hada, 
 M. Ehara, K. Toyota, R. Fukuda, J. Hasegawa, M. Ishida, T. Nakajima, 
 Y. Honda, O. Kitao, H. Nakai, T. Vreven, J. A. Montgomery, Jr., 
 J. E. Peralta, F. Ogliaro, M. Bearpark, J. J. Heyd, E. Brothers, 
 K. N. Kudin, V. N. Staroverov, T. Keith, R. Kobayashi, J. Normand, 
 K. Raghavachari, A. Rendell, J. C. Burant, S. S. Iyengar, J. Tomasi, 
 M. Cossi, N. Rega, J. M. Millam, M. Klene, J. E. Knox, J. B. Cross, 
 V. Bakken, C. Adamo, J. Jaramillo, R. Gomperts, R. E. Stratmann, 
 O. Yazyev, A. J. Austin, R. Cammi, C. Pomelli, J. W. Ochterski, 
 R. L. Martin, K. Morokuma, V. G. Zakrzewski, G. A. Voth, 
 P. Salvador, J. J. Dannenberg, S. Dapprich, A. D. Daniels, 
 O. Farkas, J. B. Foresman, J. V. Ortiz, J. Cioslowski, 
 and D. J. Fox, Gaussian, Inc., Wallingford CT, 2013.
 
 ******************************************
 Gaussian 09:  ES64L-G09RevE.01 30-Nov-2015
                31-Mar-2021 
 ******************************************
 %chk=cp.chk
 Default route:  MaxDisk=500GB
 ----------------------------------------------------------------------
 #p hf/def2TZVP opt freq=noraman nosymm int=ultrafine scrf=(SMD,solvent
 =Acetonitrile)
 ----------------------------------------------------------------------
 1/14=-1,18=20,19=15,38=1/1,3;
 2/9=110,12=2,15=1,17=6,18=5,40=1/2;
 3/5=44,7=101,11=9,16=1,25=1,30=1,70=32201,71=1,72=2,75=-5/1,2,3;
 4//1;
 5/5=2,38=5,53=2/2;
 6/7=2,8=2,9=2,10=2,28=1/1;
 7/30=1/1,2,3,16;
 1/14=-1,18=20,19=15/3(2);
 2/9=110,15=1/2;
 99//99;
 2/9=110,15=1/2;
 3/5=44,7=101,11=9,16=1,25=1,30=1,70=32205,71=1,72=2,75=-5/1,2,3;
 4/5=5,16=3,69=1/1;
 5/5=2,38=5,53=2/2;
 7/30=1/1,2,3,16;
 1/14=-1,18=20,19=15/3(-5);
 2/9=110,15=1/2;
 6/7=2,8=2,9=2,10=2,19=2,28=1/1;
 99/9=1/99;
 Leave Link    1 at Wed Mar 31 11:57:09 2021, MaxMem=           0 cpu:         0.9
 (Enter /opt/nce/packages/global/g09/l101.exe)
 -----
 Title
 -----
 Symbolic Z-matrix:
 Charge =  1 Multiplicity = 1
 C                     1.09453   3.68941  -0.43548 
 C                     1.69576   2.46377  -0.24153 
 C                     0.90048   1.32237   0.02896 
 C                    -0.52643   1.45504   0.12255 
 C                    -1.10299   2.74127  -0.11549 
 C                    -0.31431   3.833    -0.38455 
 C                    -1.31826   0.31625   0.41505 
 C                    -0.68643  -0.94029   0.59126 
 C                     0.74037  -1.04164   0.45918 
 C                     1.37297  -2.2995    0.61813 
 H                     2.45224  -2.3776    0.50821 
 C                     0.61846  -3.41465   0.91609 
 C                    -0.78616  -3.32897   1.08151 
 C                    -1.42013  -2.1206    0.92652 
 H                     1.71832   4.56128  -0.64408 
 H                     2.77747   2.36532  -0.29857 
 H                    -2.18714   2.83768  -0.08946 
 H                    -0.76839   4.80834  -0.56693 
 H                     1.11795  -4.37832   1.0372 
 H                    -1.35915  -4.2214    1.33821 
 H                    -2.49723  -2.04248   1.06359 
 N                     1.48124   0.08616   0.19133 
 C                    -2.7905    0.43578   0.53206 
 C                    -3.62567  -0.23348  -0.37526 
 C                    -3.36344   1.21579   1.55272 
 C                    -5.02388  -0.13314  -0.29503 
 C                    -4.75055   1.30862   1.65979 
 C                    -5.56761   0.64406   0.74133 
 H                    -5.19413   1.89863   2.46449 
 H                    -3.18806  -0.83723  -1.17293 
 H                    -2.72175   1.73      2.27155 
 C                     2.92103  -0.03153   0.08011 
 C                     3.50071  -0.27956  -1.16187 
 C                     3.7164    0.10517   1.22432 
 C                     4.88767  -0.39447  -1.27565 
 H                     2.86932  -0.38443  -2.04652 
 C                     5.09518  -0.00749   1.11797 
 H                     3.25079   0.29923   2.19261 
 C                     5.69733  -0.2587   -0.13273 
 H                     5.32554  -0.58881  -2.25357 
 H                     5.74089   0.09445   1.9913 
 O                     7.03406  -0.35108  -0.13382 
 C                     7.72278  -0.60216  -1.3475 
 H                     8.78946  -0.63357  -1.09528 
 H                     7.42498  -1.56998  -1.78554 
 H                     7.54738   0.20167  -2.08256 
 H                    -6.65256   0.73268   0.85255 
 B                    -5.90914  -0.90346  -1.3534 
 O                    -7.25422  -0.74808  -1.48314 
 O                    -5.26358  -1.77071  -2.17745 
 H                    -7.66223  -0.09129  -0.90831 
 H                    -5.86053  -2.19716  -2.80764 
 
 NAtoms=     52 NQM=       52 NQMF=       0 NMMI=      0 NMMIF=      0
                NMic=       0 NMicF=      0.
                    Isotopes and Nuclear Properties:
 (Nuclear quadrupole moments (NQMom) in fm**2, nuclear magnetic moments (NMagM)
  in nuclear magnetons)

  Atom         1           2           3           4           5           6           7           8           9          10
 IAtWgt=          12          12          12          12          12          12          12          12          12          12
 AtmWgt=  12.0000000  12.0000000  12.0000000  12.0000000  12.0000000  12.0000000  12.0000000  12.0000000  12.0000000  12.0000000
 NucSpn=           0           0           0           0           0           0           0           0           0           0
 AtZEff=   0.0000000   0.0000000   0.0000000   0.0000000   0.0000000   0.0000000   0.0000000   0.0000000   0.0000000   0.0000000
 NQMom=    0.0000000   0.0000000   0.0000000   0.0000000   0.0000000   0.0000000   0.0000000   0.0000000   0.0000000   0.0000000
 NMagM=    0.0000000   0.0000000   0.0000000   0.0000000   0.0000000   0.0000000   0.0000000   0.0000000   0.0000000   0.0000000
 AtZNuc=   6.0000000   6.0000000   6.0000000   6.0000000   6.0000000   6.0000000   6.0000000   6.0000000   6.0000000   6.0000000

  Atom        11          12          13          14          15          16          17          18          19          20
 IAtWgt=           1          12          12          12           1           1           1           1           1           1
 AtmWgt=   1.0078250  12.0000000  12.0000000  12.0000000   1.0078250   1.0078250   1.0078250   1.0078250   1.0078250   1.0078250
 NucSpn=           1           0           0           0           1           1           1           1           1           1
 AtZEff=   0.0000000   0.0000000   0.0000000   0.0000000   0.0000000   0.0000000   0.0000000   0.0000000   0.0000000   0.0000000
 NQMom=    0.0000000   0.0000000   0.0000000   0.0000000   0.0000000   0.0000000   0.0000000   0.0000000   0.0000000   0.0000000
 NMagM=    2.7928460   0.0000000   0.0000000   0.0000000   2.7928460   2.7928460   2.7928460   2.7928460   2.7928460   2.7928460
 AtZNuc=   1.0000000   6.0000000   6.0000000   6.0000000   1.0000000   1.0000000   1.0000000   1.0000000   1.0000000   1.0000000

  Atom        21          22          23          24          25          26          27          28          29          30
 IAtWgt=           1          14          12          12          12          12          12          12           1           1
 AtmWgt=   1.0078250  14.0030740  12.0000000  12.0000000  12.0000000  12.0000000  12.0000000  12.0000000   1.0078250   1.0078250
 NucSpn=           1           2           0           0           0           0           0           0           1           1
 AtZEff=   0.0000000   0.0000000   0.0000000   0.0000000   0.0000000   0.0000000   0.0000000   0.0000000   0.0000000   0.0000000
 NQMom=    0.0000000   2.0440000   0.0000000   0.0000000   0.0000000   0.0000000   0.0000000   0.0000000   0.0000000   0.0000000
 NMagM=    2.7928460   0.4037610   0.0000000   0.0000000   0.0000000   0.0000000   0.0000000   0.0000000   2.7928460   2.7928460
 AtZNuc=   1.0000000   7.0000000   6.0000000   6.0000000   6.0000000   6.0000000   6.0000000   6.0000000   1.0000000   1.0000000

  Atom        31          32          33          34          35          36          37          38          39          40
 IAtWgt=           1          12          12          12          12           1          12           1          12           1
 AtmWgt=   1.0078250  12.0000000  12.0000000  12.0000000  12.0000000   1.0078250  12.0000000   1.0078250  12.0000000   1.0078250
 NucSpn=           1           0           0           0           0           1           0           1           0           1
 AtZEff=   0.0000000   0.0000000   0.0000000   0.0000000   0.0000000   0.0000000   0.0000000   0.0000000   0.0000000   0.0000000
 NQMom=    0.0000000   0.0000000   0.0000000   0.0000000   0.0000000   0.0000000   0.0000000   0.0000000   0.0000000   0.0000000
 NMagM=    2.7928460   0.0000000   0.0000000   0.0000000   0.0000000   2.7928460   0.0000000   2.7928460   0.0000000   2.7928460
 AtZNuc=   1.0000000   6.0000000   6.0000000   6.0000000   6.0000000   1.0000000   6.0000000   1.0000000   6.0000000   1.0000000

  Atom        41          42          43          44          45          46          47          48          49          50
 IAtWgt=           1          16          12           1           1           1           1          11          16          16
 AtmWgt=   1.0078250  15.9949146  12.0000000   1.0078250   1.0078250   1.0078250   1.0078250  11.0093053  15.9949146  15.9949146
 NucSpn=           1           0           0           1           1           1           1           3           0           0
 AtZEff=   0.0000000   0.0000000   0.0000000   0.0000000   0.0000000   0.0000000   0.0000000   0.0000000   0.0000000   0.0000000
 NQMom=    0.0000000   0.0000000   0.0000000   0.0000000   0.0000000   0.0000000   0.0000000   4.0590000   0.0000000   0.0000000
 NMagM=    2.7928460   0.0000000   0.0000000   2.7928460   2.7928460   2.7928460   2.7928460   2.6886370   0.0000000   0.0000000
 AtZNuc=   1.0000000   8.0000000   6.0000000   1.0000000   1.0000000   1.0000000   1.0000000   5.0000000   8.0000000   8.0000000

  Atom        51          52
 IAtWgt=           1           1
 AtmWgt=   1.0078250   1.0078250
 NucSpn=           1           1
 AtZEff=   0.0000000   0.0000000
 NQMom=    0.0000000   0.0000000
 NMagM=    2.7928460   2.7928460
 AtZNuc=   1.0000000   1.0000000
 Leave Link  101 at Wed Mar 31 11:57:09 2021, MaxMem=  5242880000 cpu:         4.3
 (Enter /opt/nce/packages/global/g09/l103.exe)

 GradGradGradGradGradGradGradGradGradGradGradGradGradGradGradGradGradGrad
 Berny optimization.
 Initialization pass.
                           ----------------------------
                           !    Initial Parameters    !
                           ! (Angstroms and Degrees)  !
 --------------------------                            --------------------------
 ! Name  Definition              Value          Derivative Info.                !
 --------------------------------------------------------------------------------
 ! R1    R(1,2)                  1.3789         estimate D2E/DX2                !
 ! R2    R(1,6)                  1.417          estimate D2E/DX2                !
 ! R3    R(1,15)                 1.0922         estimate D2E/DX2                !
 ! R4    R(2,3)                  1.4172         estimate D2E/DX2                !
 ! R5    R(2,16)                 1.0877         estimate D2E/DX2                !
 ! R6    R(3,4)                  1.4361         estimate D2E/DX2                !
 ! R7    R(3,22)                 1.3754         estimate D2E/DX2                !
 ! R8    R(4,5)                  1.4295         estimate D2E/DX2                !
 ! R9    R(4,7)                  1.4175         estimate D2E/DX2                !
 ! R10   R(5,6)                  1.3734         estimate D2E/DX2                !
 ! R11   R(5,17)                 1.0887         estimate D2E/DX2                !
 ! R12   R(6,18)                 1.0912         estimate D2E/DX2                !
 ! R13   R(7,8)                  1.4174         estimate D2E/DX2                !
 ! R14   R(7,23)                 1.4817         estimate D2E/DX2                !
 ! R15   R(8,9)                  1.4365         estimate D2E/DX2                !
 ! R16   R(8,14)                 1.4296         estimate D2E/DX2                !
 ! R17   R(9,10)                 1.4169         estimate D2E/DX2                !
 ! R18   R(9,22)                 1.3757         estimate D2E/DX2                !
 ! R19   R(10,11)                1.0877         estimate D2E/DX2                !
 ! R20   R(10,12)                1.379          estimate D2E/DX2                !
 ! R21   R(12,13)                1.4169         estimate D2E/DX2                !
 ! R22   R(12,19)                1.0922         estimate D2E/DX2                !
 ! R23   R(13,14)                1.3733         estimate D2E/DX2                !
 ! R24   R(13,20)                1.0912         estimate D2E/DX2                !
 ! R25   R(14,21)                1.0886         estimate D2E/DX2                !
 ! R26   R(22,32)                1.4489         estimate D2E/DX2                !
 ! R27   R(23,24)                1.4031         estimate D2E/DX2                !
 ! R28   R(23,25)                1.4066         estimate D2E/DX2                !
 ! R29   R(24,26)                1.4041         estimate D2E/DX2                !
 ! R30   R(24,30)                1.0919         estimate D2E/DX2                !
 ! R31   R(25,27)                1.3943         estimate D2E/DX2                !
 ! R32   R(25,31)                1.0922         estimate D2E/DX2                !
 ! R33   R(26,28)                1.4049         estimate D2E/DX2                !
 ! R34   R(26,48)                1.5803         estimate D2E/DX2                !
 ! R35   R(27,28)                1.3974         estimate D2E/DX2                !
 ! R36   R(27,29)                1.092          estimate D2E/DX2                !
 ! R37   R(28,47)                1.0942         estimate D2E/DX2                !
 ! R38   R(32,33)                1.3929         estimate D2E/DX2                !
 ! R39   R(32,34)                1.4002         estimate D2E/DX2                !
 ! R40   R(33,35)                1.3964         estimate D2E/DX2                !
 ! R41   R(33,36)                1.0919         estimate D2E/DX2                !
 ! R42   R(34,37)                1.3875         estimate D2E/DX2                !
 ! R43   R(34,38)                1.0918         estimate D2E/DX2                !
 ! R44   R(35,39)                1.4072         estimate D2E/DX2                !
 ! R45   R(35,40)                1.089          estimate D2E/DX2                !
 ! R46   R(37,39)                1.4107         estimate D2E/DX2                !
 ! R47   R(37,41)                1.0909         estimate D2E/DX2                !
 ! R48   R(39,42)                1.3399         estimate D2E/DX2                !
 ! R49   R(42,43)                1.4179         estimate D2E/DX2                !
 ! R50   R(43,44)                1.0965         estimate D2E/DX2                !
 ! R51   R(43,45)                1.1033         estimate D2E/DX2                !
 ! R52   R(43,46)                1.1033         estimate D2E/DX2                !
 ! R53   R(48,49)                1.3602         estimate D2E/DX2                !
 ! R54   R(48,50)                1.3594         estimate D2E/DX2                !
 ! R55   R(49,51)                0.9635         estimate D2E/DX2                !
 ! R56   R(50,52)                0.9671         estimate D2E/DX2                !
 ! A1    A(2,1,6)              121.233          estimate D2E/DX2                !
 ! A2    A(2,1,15)             119.1704         estimate D2E/DX2                !
 ! A3    A(6,1,15)             119.5923         estimate D2E/DX2                !
 ! A4    A(1,2,3)              119.8712         estimate D2E/DX2                !
 ! A5    A(1,2,16)             120.4455         estimate D2E/DX2                !
 ! A6    A(3,2,16)             119.6828         estimate D2E/DX2                !
 ! A7    A(2,3,4)              119.7098         estimate D2E/DX2                !
 ! A8    A(2,3,22)             120.6273         estimate D2E/DX2                !
 ! A9    A(4,3,22)             119.6606         estimate D2E/DX2                !
 ! A10   A(3,4,5)              118.2297         estimate D2E/DX2                !
 ! A11   A(3,4,7)              119.6205         estimate D2E/DX2                !
 ! A12   A(5,4,7)              122.1346         estimate D2E/DX2                !
 ! A13   A(4,5,6)              121.0807         estimate D2E/DX2                !
 ! A14   A(4,5,17)             118.5109         estimate D2E/DX2                !
 ! A15   A(6,5,17)             120.4054         estimate D2E/DX2                !
 ! A16   A(1,6,5)              119.8289         estimate D2E/DX2                !
 ! A17   A(1,6,18)             119.886          estimate D2E/DX2                !
 ! A18   A(5,6,18)             120.2834         estimate D2E/DX2                !
 ! A19   A(4,7,8)              119.2631         estimate D2E/DX2                !
 ! A20   A(4,7,23)             120.432          estimate D2E/DX2                !
 ! A21   A(8,7,23)             120.3047         estimate D2E/DX2                !
 ! A22   A(7,8,9)              119.5947         estimate D2E/DX2                !
 ! A23   A(7,8,14)             122.1594         estimate D2E/DX2                !
 ! A24   A(9,8,14)             118.2332         estimate D2E/DX2                !
 ! A25   A(8,9,10)             119.7205         estimate D2E/DX2                !
 ! A26   A(8,9,22)             119.6681         estimate D2E/DX2                !
 ! A27   A(10,9,22)            120.6088         estimate D2E/DX2                !
 ! A28   A(9,10,11)            119.6976         estimate D2E/DX2                !
 ! A29   A(9,10,12)            119.8579         estimate D2E/DX2                !
 ! A30   A(11,10,12)           120.444          estimate D2E/DX2                !
 ! A31   A(10,12,13)           121.2463         estimate D2E/DX2                !
 ! A32   A(10,12,19)           119.1602         estimate D2E/DX2                !
 ! A33   A(13,12,19)           119.5898         estimate D2E/DX2                !
 ! A34   A(12,13,14)           119.8446         estimate D2E/DX2                !
 ! A35   A(12,13,20)           119.9052         estimate D2E/DX2                !
 ! A36   A(14,13,20)           120.2489         estimate D2E/DX2                !
 ! A37   A(8,14,13)            121.0631         estimate D2E/DX2                !
 ! A38   A(8,14,21)            118.5593         estimate D2E/DX2                !
 ! A39   A(13,14,21)           120.3766         estimate D2E/DX2                !
 ! A40   A(3,22,9)             122.1677         estimate D2E/DX2                !
 ! A41   A(3,22,32)            118.9167         estimate D2E/DX2                !
 ! A42   A(9,22,32)            118.9154         estimate D2E/DX2                !
 ! A43   A(7,23,24)            120.1251         estimate D2E/DX2                !
 ! A44   A(7,23,25)            120.449          estimate D2E/DX2                !
 ! A45   A(24,23,25)           119.4257         estimate D2E/DX2                !
 ! A46   A(23,24,26)           121.4466         estimate D2E/DX2                !
 ! A47   A(23,24,30)           119.8402         estimate D2E/DX2                !
 ! A48   A(26,24,30)           118.708          estimate D2E/DX2                !
 ! A49   A(23,25,27)           119.8589         estimate D2E/DX2                !
 ! A50   A(23,25,31)           119.9564         estimate D2E/DX2                !
 ! A51   A(27,25,31)           120.1723         estimate D2E/DX2                !
 ! A52   A(24,26,28)           117.8455         estimate D2E/DX2                !
 ! A53   A(24,26,48)           118.9958         estimate D2E/DX2                !
 ! A54   A(28,26,48)           123.1554         estimate D2E/DX2                !
 ! A55   A(25,27,28)           119.969          estimate D2E/DX2                !
 ! A56   A(25,27,29)           119.7799         estimate D2E/DX2                !
 ! A57   A(28,27,29)           120.2508         estimate D2E/DX2                !
 ! A58   A(26,28,27)           121.4422         estimate D2E/DX2                !
 ! A59   A(26,28,47)           120.2337         estimate D2E/DX2                !
 ! A60   A(27,28,47)           118.3207         estimate D2E/DX2                !
 ! A61   A(22,32,33)           119.7671         estimate D2E/DX2                !
 ! A62   A(22,32,34)           119.5925         estimate D2E/DX2                !
 ! A63   A(33,32,34)           120.6404         estimate D2E/DX2                !
 ! A64   A(32,33,35)           120.0455         estimate D2E/DX2                !
 ! A65   A(32,33,36)           119.926          estimate D2E/DX2                !
 ! A66   A(35,33,36)           120.0285         estimate D2E/DX2                !
 ! A67   A(32,34,37)           119.5991         estimate D2E/DX2                !
 ! A68   A(32,34,38)           119.99           estimate D2E/DX2                !
 ! A69   A(37,34,38)           120.4109         estimate D2E/DX2                !
 ! A70   A(33,35,39)           119.8261         estimate D2E/DX2                !
 ! A71   A(33,35,40)           119.1606         estimate D2E/DX2                !
 ! A72   A(39,35,40)           121.0133         estimate D2E/DX2                !
 ! A73   A(34,37,39)           120.4382         estimate D2E/DX2                !
 ! A74   A(34,37,41)           121.2827         estimate D2E/DX2                !
 ! A75   A(39,37,41)           118.2791         estimate D2E/DX2                !
 ! A76   A(35,39,37)           119.4508         estimate D2E/DX2                !
 ! A77   A(35,39,42)           124.5189         estimate D2E/DX2                !
 ! A78   A(37,39,42)           116.0303         estimate D2E/DX2                !
 ! A79   A(39,42,43)           119.8341         estimate D2E/DX2                !
 ! A80   A(42,43,44)           106.3018         estimate D2E/DX2                !
 ! A81   A(42,43,45)           111.351          estimate D2E/DX2                !
 ! A82   A(42,43,46)           111.3487         estimate D2E/DX2                !
 ! A83   A(44,43,45)           109.194          estimate D2E/DX2                !
 ! A84   A(44,43,46)           109.1939         estimate D2E/DX2                !
 ! A85   A(45,43,46)           109.3719         estimate D2E/DX2                !
 ! A86   A(26,48,49)           124.2055         estimate D2E/DX2                !
 ! A87   A(26,48,50)           116.8044         estimate D2E/DX2                !
 ! A88   A(49,48,50)           118.99           estimate D2E/DX2                !
 ! A89   A(48,49,51)           116.0861         estimate D2E/DX2                !
 ! A90   A(48,50,52)           112.5309         estimate D2E/DX2                !
 ! D1    D(6,1,2,3)             -0.6992         estimate D2E/DX2                !
 ! D2    D(6,1,2,16)           179.0549         estimate D2E/DX2                !
 ! D3    D(15,1,2,3)          -179.9467         estimate D2E/DX2                !
 ! D4    D(15,1,2,16)           -0.1926         estimate D2E/DX2                !
 ! D5    D(2,1,6,5)              1.1059         estimate D2E/DX2                !
 ! D6    D(2,1,6,18)          -178.4132         estimate D2E/DX2                !
 ! D7    D(15,1,6,5)          -179.6498         estimate D2E/DX2                !
 ! D8    D(15,1,6,18)            0.8311         estimate D2E/DX2                !
 ! D9    D(1,2,3,4)             -1.0941         estimate D2E/DX2                !
 ! D10   D(1,2,3,22)           178.3408         estimate D2E/DX2                !
 ! D11   D(16,2,3,4)           179.1498         estimate D2E/DX2                !
 ! D12   D(16,2,3,22)           -1.4152         estimate D2E/DX2                !
 ! D13   D(2,3,4,5)              2.4304         estimate D2E/DX2                !
 ! D14   D(2,3,4,7)           -178.9614         estimate D2E/DX2                !
 ! D15   D(22,3,4,5)          -177.01           estimate D2E/DX2                !
 ! D16   D(22,3,4,7)             1.5982         estimate D2E/DX2                !
 ! D17   D(2,3,22,9)           179.775          estimate D2E/DX2                !
 ! D18   D(2,3,22,32)           -0.0581         estimate D2E/DX2                !
 ! D19   D(4,3,22,9)            -0.7898         estimate D2E/DX2                !
 ! D20   D(4,3,22,32)          179.3771         estimate D2E/DX2                !
 ! D21   D(3,4,5,6)             -2.0566         estimate D2E/DX2                !
 ! D22   D(3,4,5,17)           177.3165         estimate D2E/DX2                !
 ! D23   D(7,4,5,6)            179.3722         estimate D2E/DX2                !
 ! D24   D(7,4,5,17)            -1.2547         estimate D2E/DX2                !
 ! D25   D(3,4,7,8)             -0.9059         estimate D2E/DX2                !
 ! D26   D(3,4,7,23)           179.2549         estimate D2E/DX2                !
 ! D27   D(5,4,7,8)            177.646          estimate D2E/DX2                !
 ! D28   D(5,4,7,23)            -2.1932         estimate D2E/DX2                !
 ! D29   D(4,5,6,1)              0.3192         estimate D2E/DX2                !
 ! D30   D(4,5,6,18)           179.8364         estimate D2E/DX2                !
 ! D31   D(17,5,6,1)          -179.042          estimate D2E/DX2                !
 ! D32   D(17,5,6,18)            0.4751         estimate D2E/DX2                !
 ! D33   D(4,7,8,9)             -0.5561         estimate D2E/DX2                !
 ! D34   D(4,7,8,14)           178.1214         estimate D2E/DX2                !
 ! D35   D(23,7,8,9)           179.2832         estimate D2E/DX2                !
 ! D36   D(23,7,8,14)           -2.0392         estimate D2E/DX2                !
 ! D37   D(4,7,23,24)          116.0962         estimate D2E/DX2                !
 ! D38   D(4,7,23,25)          -64.0792         estimate D2E/DX2                !
 ! D39   D(8,7,23,24)          -63.7412         estimate D2E/DX2                !
 ! D40   D(8,7,23,25)          116.0833         estimate D2E/DX2                !
 ! D41   D(7,8,9,10)          -179.2072         estimate D2E/DX2                !
 ! D42   D(7,8,9,22)             1.3758         estimate D2E/DX2                !
 ! D43   D(14,8,9,10)            2.0635         estimate D2E/DX2                !
 ! D44   D(14,8,9,22)         -177.3535         estimate D2E/DX2                !
 ! D45   D(7,8,14,13)          179.4746         estimate D2E/DX2                !
 ! D46   D(7,8,14,21)           -0.891          estimate D2E/DX2                !
 ! D47   D(9,8,14,13)           -1.8306         estimate D2E/DX2                !
 ! D48   D(9,8,14,21)          177.8038         estimate D2E/DX2                !
 ! D49   D(8,9,10,11)          179.3905         estimate D2E/DX2                !
 ! D50   D(8,9,10,12)           -0.8686         estimate D2E/DX2                !
 ! D51   D(22,9,10,11)          -1.1981         estimate D2E/DX2                !
 ! D52   D(22,9,10,12)         178.5427         estimate D2E/DX2                !
 ! D53   D(8,9,22,3)            -0.6961         estimate D2E/DX2                !
 ! D54   D(8,9,22,32)          179.137          estimate D2E/DX2                !
 ! D55   D(10,9,22,3)          179.8923         estimate D2E/DX2                !
 ! D56   D(10,9,22,32)          -0.2746         estimate D2E/DX2                !
 ! D57   D(9,10,12,13)          -0.6323         estimate D2E/DX2                !
 ! D58   D(9,10,12,19)        -179.935          estimate D2E/DX2                !
 ! D59   D(11,10,12,13)        179.1065         estimate D2E/DX2                !
 ! D60   D(11,10,12,19)         -0.1962         estimate D2E/DX2                !
 ! D61   D(10,12,13,14)          0.893          estimate D2E/DX2                !
 ! D62   D(10,12,13,20)       -178.6858         estimate D2E/DX2                !
 ! D63   D(19,12,13,14)       -179.8072         estimate D2E/DX2                !
 ! D64   D(19,12,13,20)          0.6139         estimate D2E/DX2                !
 ! D65   D(12,13,14,8)           0.3792         estimate D2E/DX2                !
 ! D66   D(12,13,14,21)       -179.2486         estimate D2E/DX2                !
 ! D67   D(20,13,14,8)         179.9566         estimate D2E/DX2                !
 ! D68   D(20,13,14,21)          0.3288         estimate D2E/DX2                !
 ! D69   D(3,22,32,33)         -89.2793         estimate D2E/DX2                !
 ! D70   D(3,22,32,34)          90.7362         estimate D2E/DX2                !
 ! D71   D(9,22,32,33)          90.8821         estimate D2E/DX2                !
 ! D72   D(9,22,32,34)         -89.1023         estimate D2E/DX2                !
 ! D73   D(7,23,24,26)        -179.6105         estimate D2E/DX2                !
 ! D74   D(7,23,24,30)          -0.4471         estimate D2E/DX2                !
 ! D75   D(25,23,24,26)          0.5632         estimate D2E/DX2                !
 ! D76   D(25,23,24,30)        179.7266         estimate D2E/DX2                !
 ! D77   D(7,23,25,27)        -179.3411         estimate D2E/DX2                !
 ! D78   D(7,23,25,31)          -0.6173         estimate D2E/DX2                !
 ! D79   D(24,23,25,27)          0.4847         estimate D2E/DX2                !
 ! D80   D(24,23,25,31)        179.2085         estimate D2E/DX2                !
 ! D81   D(23,24,26,28)         -1.0681         estimate D2E/DX2                !
 ! D82   D(23,24,26,48)        179.5768         estimate D2E/DX2                !
 ! D83   D(30,24,26,28)        179.7593         estimate D2E/DX2                !
 ! D84   D(30,24,26,48)          0.4042         estimate D2E/DX2                !
 ! D85   D(23,25,27,28)         -0.9911         estimate D2E/DX2                !
 ! D86   D(23,25,27,29)        178.8016         estimate D2E/DX2                !
 ! D87   D(31,25,27,28)       -179.7121         estimate D2E/DX2                !
 ! D88   D(31,25,27,29)          0.0806         estimate D2E/DX2                !
 ! D89   D(24,26,28,27)          0.5526         estimate D2E/DX2                !
 ! D90   D(24,26,28,47)       -178.7691         estimate D2E/DX2                !
 ! D91   D(48,26,28,27)        179.8788         estimate D2E/DX2                !
 ! D92   D(48,26,28,47)          0.557          estimate D2E/DX2                !
 ! D93   D(24,26,48,49)       -171.2398         estimate D2E/DX2                !
 ! D94   D(24,26,48,50)          8.6843         estimate D2E/DX2                !
 ! D95   D(28,26,48,49)          9.4414         estimate D2E/DX2                !
 ! D96   D(28,26,48,50)       -170.6345         estimate D2E/DX2                !
 ! D97   D(25,27,28,26)          0.4681         estimate D2E/DX2                !
 ! D98   D(25,27,28,47)        179.8025         estimate D2E/DX2                !
 ! D99   D(29,27,28,26)       -179.3236         estimate D2E/DX2                !
 ! D100  D(29,27,28,47)          0.0107         estimate D2E/DX2                !
 ! D101  D(22,32,33,35)       -179.9809         estimate D2E/DX2                !
 ! D102  D(22,32,33,36)         -0.0024         estimate D2E/DX2                !
 ! D103  D(34,32,33,35)          0.0034         estimate D2E/DX2                !
 ! D104  D(34,32,33,36)        179.9818         estimate D2E/DX2                !
 ! D105  D(22,32,34,37)       -179.999          estimate D2E/DX2                !
 ! D106  D(22,32,34,38)          0.0001         estimate D2E/DX2                !
 ! D107  D(33,32,34,37)          0.0167         estimate D2E/DX2                !
 ! D108  D(33,32,34,38)       -179.9842         estimate D2E/DX2                !
 ! D109  D(32,33,35,39)         -0.0156         estimate D2E/DX2                !
 ! D110  D(32,33,35,40)        179.9804         estimate D2E/DX2                !
 ! D111  D(36,33,35,39)       -179.9941         estimate D2E/DX2                !
 ! D112  D(36,33,35,40)          0.0019         estimate D2E/DX2                !
 ! D113  D(32,34,37,39)         -0.0245         estimate D2E/DX2                !
 ! D114  D(32,34,37,41)        179.9848         estimate D2E/DX2                !
 ! D115  D(38,34,37,39)        179.9764         estimate D2E/DX2                !
 ! D116  D(38,34,37,41)         -0.0143         estimate D2E/DX2                !
 ! D117  D(33,35,39,37)          0.0079         estimate D2E/DX2                !
 ! D118  D(33,35,39,42)       -179.9923         estimate D2E/DX2                !
 ! D119  D(40,35,39,37)       -179.988          estimate D2E/DX2                !
 ! D120  D(40,35,39,42)          0.0118         estimate D2E/DX2                !
 ! D121  D(34,37,39,35)          0.0123         estimate D2E/DX2                !
 ! D122  D(34,37,39,42)       -179.9876         estimate D2E/DX2                !
 ! D123  D(41,37,39,35)       -179.9967         estimate D2E/DX2                !
 ! D124  D(41,37,39,42)          0.0034         estimate D2E/DX2                !
 ! D125  D(35,39,42,43)         -0.0051         estimate D2E/DX2                !
 ! D126  D(37,39,42,43)        179.9947         estimate D2E/DX2                !
 ! D127  D(39,42,43,44)       -179.9922         estimate D2E/DX2                !
 ! D128  D(39,42,43,45)        -61.1693         estimate D2E/DX2                !
 ! D129  D(39,42,43,46)         61.1862         estimate D2E/DX2                !
 ! D130  D(26,48,49,51)          2.8703         estimate D2E/DX2                !
 ! D131  D(50,48,49,51)       -177.0522         estimate D2E/DX2                !
 ! D132  D(26,48,50,52)       -179.1381         estimate D2E/DX2                !
 ! D133  D(49,48,50,52)          0.7902         estimate D2E/DX2                !
 --------------------------------------------------------------------------------
 Trust Radius=3.00D-01 FncErr=1.00D-07 GrdErr=1.00D-07
 Number of steps in this run=    289 maximum allowed number of steps=    312.
 GradGradGradGradGradGradGradGradGradGradGradGradGradGradGradGradGradGrad

 Leave Link  103 at Wed Mar 31 11:57:09 2021, MaxMem=  5242880000 cpu:         0.2
 (Enter /opt/nce/packages/global/g09/l202.exe)
 Symmetry turned off by external request.
 Stoichiometry    C26H21BNO3(1+)
 Framework group  C1[X(C26H21BNO3)]
 Deg. of freedom   150
 Full point group                 C1      NOp   1
                          Input orientation:                          
 ---------------------------------------------------------------------
 Center     Atomic      Atomic             Coordinates (Angstroms)
 Number     Number       Type             X           Y           Z
 ---------------------------------------------------------------------
      1          6           0        1.094527    3.689406   -0.435484
      2          6           0        1.695760    2.463773   -0.241526
      3          6           0        0.900479    1.322369    0.028956
      4          6           0       -0.526434    1.455035    0.122554
      5          6           0       -1.102988    2.741265   -0.115489
      6          6           0       -0.314305    3.832996   -0.384553
      7          6           0       -1.318261    0.316251    0.415050
      8          6           0       -0.686432   -0.940287    0.591263
      9          6           0        0.740368   -1.041635    0.459175
     10          6           0        1.372970   -2.299502    0.618127
     11          1           0        2.452239   -2.377600    0.508205
     12          6           0        0.618459   -3.414651    0.916087
     13          6           0       -0.786156   -3.328965    1.081508
     14          6           0       -1.420126   -2.120599    0.926520
     15          1           0        1.718324    4.561277   -0.644081
     16          1           0        2.777470    2.365324   -0.298570
     17          1           0       -2.187135    2.837681   -0.089457
     18          1           0       -0.768387    4.808344   -0.566928
     19          1           0        1.117954   -4.378319    1.037197
     20          1           0       -1.359152   -4.221399    1.338210
     21          1           0       -2.497229   -2.042480    1.063586
     22          7           0        1.481241    0.086163    0.191326
     23          6           0       -2.790497    0.435780    0.532058
     24          6           0       -3.625670   -0.233483   -0.375261
     25          6           0       -3.363444    1.215792    1.552720
     26          6           0       -5.023878   -0.133136   -0.295032
     27          6           0       -4.750554    1.308618    1.659788
     28          6           0       -5.567607    0.644059    0.741331
     29          1           0       -5.194134    1.898630    2.464492
     30          1           0       -3.188060   -0.837234   -1.172929
     31          1           0       -2.721751    1.730002    2.271547
     32          6           0        2.921034   -0.031533    0.080113
     33          6           0        3.500706   -0.279564   -1.161868
     34          6           0        3.716395    0.105173    1.224317
     35          6           0        4.887668   -0.394466   -1.275653
     36          1           0        2.869318   -0.384429   -2.046522
     37          6           0        5.095177   -0.007488    1.117971
     38          1           0        3.250790    0.299225    2.192608
     39          6           0        5.697328   -0.258696   -0.132726
     40          1           0        5.325537   -0.588810   -2.253567
     41          1           0        5.740886    0.094447    1.991299
     42          8           0        7.034057   -0.351075   -0.133820
     43          6           0        7.722780   -0.602164   -1.347502
     44          1           0        8.789464   -0.633571   -1.095283
     45          1           0        7.424980   -1.569979   -1.785537
     46          1           0        7.547376    0.201673   -2.082556
     47          1           0       -6.652559    0.732682    0.852553
     48          5           0       -5.909141   -0.903456   -1.353396
     49          8           0       -7.254223   -0.748082   -1.483137
     50          8           0       -5.263575   -1.770713   -2.177452
     51          1           0       -7.662229   -0.091285   -0.908309
     52          1           0       -5.860532   -2.197160   -2.807644
 ---------------------------------------------------------------------
 Rotational constants (GHZ):      0.3129997      0.0721678      0.0647194
 Leave Link  202 at Wed Mar 31 11:57:09 2021, MaxMem=  5242880000 cpu:         0.1
 (Enter /opt/nce/packages/global/g09/l301.exe)
 Standard basis: def2TZVP (5D, 7F)
 Ernie: Thresh=  0.10000D-02 Tol=  0.10000D-05 Strict=F.
  1087 basis functions,  1749 primitive gaussians,  1242 cartesian basis functions
   106 alpha electrons      106 beta electrons
       nuclear repulsion energy      2773.9810363328 Hartrees.
 IExCor=    0 DFT=F Ex=HF Corr=None ExCW=0 ScaHFX=  1.000000
 ScaDFX=  1.000000  1.000000  1.000000  1.000000 ScalE2=  1.000000  1.000000
 IRadAn=      5 IRanWt=     -1 IRanGd=            0 ICorTp=0 IEmpDi=  4
 NAtoms=   52 NActive=   52 NUniq=   52 SFac= 1.00D+00 NAtFMM=   60 NAOKFM=F Big=F
 Integral buffers will be    131072 words long.
 Raffenetti 1 integral format.
 Two-electron integral symmetry is turned off.
 ------------------------------------------------------------------------------
 Polarizable Continuum Model (PCM)
 =================================
 Model                : PCM (using non-symmetric T matrix).
 Atomic radii         : SMD-Coulomb.
 Polarization charges : Total charges.
 Charge compensation  : None.
 Solution method      : On-the-fly selection.
 Cavity type          : VdW (van der Waals Surface) (Alpha=1.000).
 Cavity algorithm     : GePol (No added spheres)
                        Default sphere list used, NSphG=   52.
                        Lebedev-Laikov grids with approx.  5.0 points / Ang**2.
                        Smoothing algorithm: York/Karplus (Gamma=1.0000).
                        Polarization charges: spherical gaussians, with
                                              point-specific exponents (IZeta= 3).
                        Self-potential: point-specific (ISelfS= 7).
                        Self-field    : sphere-specific E.n sum rule (ISelfD= 2).
 1st derivatives      : Analytical E(r).r(x)/FMM algorithm (CHGder, D1EAlg=3).
                        Cavity 1st derivative terms included.
 Solvent              : Acetonitrile, Eps=  35.688000 Eps(inf)=   1.806874
 ------------------------------------------------------------------------------
 GePol: Number of generator spheres                  =      52
 GePol: Total number of spheres                      =      52
 GePol: Number of exposed spheres                    =      50 ( 96.15%)
 GePol: Number of points                             =    3843
 GePol: Average weight of points                     =       0.12
 GePol: Minimum weight of points                     =   0.50D-09
 GePol: Maximum weight of points                     =    0.21559
 GePol: Number of points with low weight             =     248
 GePol: Fraction of low-weight points (<1% of avg)   =       6.45%
 GePol: Cavity surface area                          =    447.913 Ang**2
 GePol: Cavity volume                                =    446.218 Ang**3
 ------------------------------------------------------------------------------
 Atomic radii for non-electrostatic terms: SMD-CDS.
 ------------------------------------------------------------------------------
 PCM non-electrostatic energy =        -0.0087443975 Hartrees.
 Nuclear repulsion after PCM non-electrostatic terms =     2773.9722919353 Hartrees.
 Leave Link  301 at Wed Mar 31 11:57:09 2021, MaxMem=  5242880000 cpu:         1.7
 (Enter /opt/nce/packages/global/g09/l302.exe)
 NPDir=0 NMtPBC=     1 NCelOv=     1 NCel=       1 NClECP=     1 NCelD=      1
         NCelK=      1 NCelE2=     1 NClLst=     1 CellRange=     0.0.
 One-electron integrals computed using PRISM.
   1 Symmetry operations used in ECPInt.
 ECPInt:  NShTT=   90525 NPrTT=  279376 LenC2=   70913 LenP2D=  149762.
 LDataN:  DoStor=T MaxTD1= 6 Len=  172
 NBasis=  1087 RedAO= T EigKep=  5.20D-06  NBF=  1087
 NBsUse=  1087 1.00D-06 EigRej= -1.00D+00 NBFU=  1087
 Leave Link  302 at Wed Mar 31 11:57:13 2021, MaxMem=  5242880000 cpu:        29.6
 (Enter /opt/nce/packages/global/g09/l303.exe)
 DipDrv:  MaxL=1.
 Leave Link  303 at Wed Mar 31 11:57:13 2021, MaxMem=  5242880000 cpu:         2.9
 (Enter /opt/nce/packages/global/g09/l401.exe)
 ExpMin= 6.06D-02 ExpMax= 2.70D+04 ExpMxC= 9.22D+02 IAcc=3 IRadAn=         5 AccDes= 0.00D+00
 Harris functional with IExCor=  205 and IRadAn=       5 diagonalized for initial guess.
 HarFok:  IExCor=  205 AccDes= 0.00D+00 IRadAn=         5 IDoV= 1 UseB2=F ITyADJ=14
 ICtDFT=  3500011 ScaDFX=  1.000000  1.000000  1.000000  1.000000
 FoFCou: FMM=F IPFlag=           0 FMFlag=      100000 FMFlg1=           0
         NFxFlg=           0 DoJE=T BraDBF=F KetDBF=T FulRan=T
         wScrn=  0.000000 ICntrl=     500 IOpCl=  0 I1Cent=   200000004 NGrid=           0
         NMat0=    1 NMatS0=      1 NMatT0=    0 NMatD0=    1 NMtDS0=    0 NMtDT0=    0
 Symmetry not used in FoFCou.
 Harris En= -1302.51708995006    
 JPrj=0 DoOrth=F DoCkMO=F.
 Leave Link  401 at Wed Mar 31 11:57:20 2021, MaxMem=  5242880000 cpu:        80.4
 (Enter /opt/nce/packages/global/g09/l502.exe)
 Closed shell SCF:
 Using DIIS extrapolation, IDIIS=  1040.
 Two-electron integral symmetry not used.
 IVT=     4668702 IEndB=     4668702 NGot=  5242880000 MDV=  5239771745
 LenX=  5239771745 LenY=  5238227939
 Requested convergence on RMS density matrix=1.00D-08 within 128 cycles.
 Requested convergence on MAX density matrix=1.00D-06.
 Requested convergence on             energy=1.00D-06.
 No special actions if energy rises.
 Fock matrices will be formed incrementally for  20 cycles.

 Cycle   1  Pass 1  IDiag  1:
 FoFJK:  IHMeth= 1 ICntrl=       0 DoSepK=F KAlg= 0 I1Cent=   0 FoldK=F
 IRaf= 670000000 NMat=   1 IRICut=       1 DoRegI=T DoRafI=F ISym2E= 0.
 FoFCou: FMM=F IPFlag=           0 FMFlag=      100000 FMFlg1=           0
         NFxFlg=           0 DoJE=F BraDBF=F KetDBF=F FulRan=T
         wScrn=  0.000000 ICntrl=       0 IOpCl=  0 I1Cent=           0 NGrid=           0
         NMat0=    1 NMatS0=      1 NMatT0=    0 NMatD0=    1 NMtDS0=    0 NMtDT0=    0
 Symmetry not used in FoFCou.
 Inv3:  Mode=1 IEnd=    44305947.
 Iteration    1 A*A^-1 deviation from unit magnitude is 1.11D-14 for   3839.
 Iteration    1 A*A^-1 deviation from orthogonality  is 4.14D-15 for   2177   1913.
 Iteration    1 A^-1*A deviation from unit magnitude is 1.09D-14 for   3839.
 Iteration    1 A^-1*A deviation from orthogonality  is 4.86D-11 for   2280   2210.
 E= -1299.82502120256    
 DIIS: error= 3.14D-02 at cycle   1 NSaved=   1.
 NSaved= 1 IEnMin= 1 EnMin= -1299.82502120256     IErMin= 1 ErrMin= 3.14D-02
 ErrMax= 3.14D-02  0.00D+00 EMaxC= 1.00D-01 BMatC= 2.54D+00 BMatP= 2.54D+00
 IDIUse=3 WtCom= 6.86D-01 WtEn= 3.14D-01
 Coeff-Com:  0.100D+01
 Coeff-En:   0.100D+01
 Coeff:      0.100D+01
 Gap=     0.322 Goal=   None    Shift=    0.000
 GapD=    0.322 DampG=1.000 DampE=0.500 DampFc=0.5000 IDamp=-1.
 Damping current iteration by 5.00D-01
 RMSDP=1.71D-03 MaxDP=9.93D-02              OVMax= 1.83D-01

 Cycle   2  Pass 1  IDiag  1:
 RMSU=  8.24D-04    CP:  9.58D-01
 E= -1300.44022085269     Delta-E=       -0.615199650126 Rises=F Damp=T
 DIIS: error= 1.42D-02 at cycle   2 NSaved=   2.
 NSaved= 2 IEnMin= 2 EnMin= -1300.44022085269     IErMin= 2 ErrMin= 1.42D-02
 ErrMax= 1.42D-02  0.00D+00 EMaxC= 1.00D-01 BMatC= 5.90D-01 BMatP= 2.54D+00
 IDIUse=3 WtCom= 8.58D-01 WtEn= 1.42D-01
 Coeff-Com: -0.735D+00 0.173D+01
 Coeff-En:   0.000D+00 0.100D+01
 Coeff:     -0.631D+00 0.163D+01
 Gap=     0.325 Goal=   None    Shift=    0.000
 RMSDP=1.01D-03 MaxDP=9.07D-02 DE=-6.15D-01 OVMax= 8.56D-02

 Cycle   3  Pass 1  IDiag  1:
 RMSU=  6.52D-04    CP:  9.15D-01  1.89D+00
 E= -1300.99556084963     Delta-E=       -0.555339996939 Rises=F Damp=F
 DIIS: error= 5.33D-03 at cycle   3 NSaved=   3.
 NSaved= 3 IEnMin= 3 EnMin= -1300.99556084963     IErMin= 3 ErrMin= 5.33D-03
 ErrMax= 5.33D-03  0.00D+00 EMaxC= 1.00D-01 BMatC= 2.60D-02 BMatP= 5.90D-01
 IDIUse=3 WtCom= 9.47D-01 WtEn= 5.33D-02
 Coeff-Com: -0.240D+00 0.447D+00 0.793D+00
 Coeff-En:   0.000D+00 0.000D+00 0.100D+01
 Coeff:     -0.227D+00 0.423D+00 0.804D+00
 Gap=     0.311 Goal=   None    Shift=    0.000
 RMSDP=1.76D-04 MaxDP=1.73D-02 DE=-5.55D-01 OVMax= 4.61D-02

 Cycle   4  Pass 1  IDiag  1:
 RMSU=  1.49D-04    CP:  9.12D-01  2.00D+00  9.55D-01
 E= -1301.01796572428     Delta-E=       -0.022404874652 Rises=F Damp=F
 DIIS: error= 1.11D-03 at cycle   4 NSaved=   4.
 NSaved= 4 IEnMin= 4 EnMin= -1301.01796572428     IErMin= 4 ErrMin= 1.11D-03
 ErrMax= 1.11D-03  0.00D+00 EMaxC= 1.00D-01 BMatC= 1.77D-03 BMatP= 2.60D-02
 IDIUse=3 WtCom= 9.89D-01 WtEn= 1.11D-02
 Coeff-Com: -0.418D-01 0.663D-01 0.245D+00 0.730D+00
 Coeff-En:   0.000D+00 0.000D+00 0.000D+00 0.100D+01
 Coeff:     -0.413D-01 0.656D-01 0.243D+00 0.733D+00
 Gap=     0.306 Goal=   None    Shift=    0.000
 RMSDP=4.82D-05 MaxDP=3.68D-03 DE=-2.24D-02 OVMax= 7.31D-03

 Cycle   5  Pass 1  IDiag  1:
 RMSU=  4.40D-05    CP:  9.11D-01  2.00D+00  9.83D-01  9.60D-01
 E= -1301.01978805026     Delta-E=       -0.001822325980 Rises=F Damp=F
 DIIS: error= 6.81D-04 at cycle   5 NSaved=   5.
 NSaved= 5 IEnMin= 5 EnMin= -1301.01978805026     IErMin= 5 ErrMin= 6.81D-04
 ErrMax= 6.81D-04  0.00D+00 EMaxC= 1.00D-01 BMatC= 1.10D-04 BMatP= 1.77D-03
 IDIUse=3 WtCom= 9.93D-01 WtEn= 6.81D-03
 Coeff-Com:  0.150D-01-0.290D-01-0.396D-01 0.209D-01 0.103D+01
 Coeff-En:   0.000D+00 0.000D+00 0.000D+00 0.000D+00 0.100D+01
 Coeff:      0.149D-01-0.288D-01-0.394D-01 0.208D-01 0.103D+01
 Gap=     0.309 Goal=   None    Shift=    0.000
 RMSDP=2.88D-05 MaxDP=2.81D-03 DE=-1.82D-03 OVMax= 1.05D-02

 Cycle   6  Pass 1  IDiag  1:
 RMSU=  1.79D-05    CP:  9.11D-01  2.00D+00  9.99D-01  1.05D+00  1.32D+00
 E= -1301.02017724107     Delta-E=       -0.000389190810 Rises=F Damp=F
 DIIS: error= 3.34D-04 at cycle   6 NSaved=   6.
 NSaved= 6 IEnMin= 6 EnMin= -1301.02017724107     IErMin= 6 ErrMin= 3.34D-04
 ErrMax= 3.34D-04  0.00D+00 EMaxC= 1.00D-01 BMatC= 4.51D-05 BMatP= 1.10D-04
 IDIUse=3 WtCom= 9.97D-01 WtEn= 3.34D-03
 Coeff-Com:  0.895D-02-0.152D-01-0.432D-01-0.140D+00 0.224D+00 0.965D+00
 Coeff-En:   0.000D+00 0.000D+00 0.000D+00 0.000D+00 0.000D+00 0.100D+01
 Coeff:      0.892D-02-0.151D-01-0.431D-01-0.139D+00 0.224D+00 0.965D+00
 Gap=     0.310 Goal=   None    Shift=    0.000
 RMSDP=1.74D-05 MaxDP=2.06D-03 DE=-3.89D-04 OVMax= 5.97D-03

 Cycle   7  Pass 1  IDiag  1:
 RMSU=  1.06D-05    CP:  9.12D-01  2.01D+00  1.01D+00  1.09D+00  1.52D+00
                    CP:  1.30D+00
 E= -1301.02033406408     Delta-E=       -0.000156823005 Rises=F Damp=F
 DIIS: error= 2.66D-04 at cycle   7 NSaved=   7.
 NSaved= 7 IEnMin= 7 EnMin= -1301.02033406408     IErMin= 7 ErrMin= 2.66D-04
 ErrMax= 2.66D-04  0.00D+00 EMaxC= 1.00D-01 BMatC= 1.01D-05 BMatP= 4.51D-05
 IDIUse=3 WtCom= 9.97D-01 WtEn= 2.66D-03
 Coeff-Com: -0.491D-02 0.920D-02 0.189D-01 0.538D-02-0.239D+00-0.272D+00
 Coeff-Com:  0.148D+01
 Coeff-En:   0.000D+00 0.000D+00 0.000D+00 0.000D+00 0.000D+00 0.000D+00
 Coeff-En:   0.100D+01
 Coeff:     -0.490D-02 0.917D-02 0.189D-01 0.537D-02-0.238D+00-0.271D+00
 Coeff:      0.148D+01
 Gap=     0.311 Goal=   None    Shift=    0.000
 RMSDP=1.25D-05 MaxDP=1.11D-03 DE=-1.57D-04 OVMax= 6.87D-03

 Cycle   8  Pass 1  IDiag  1:
 RMSU=  5.29D-06    CP:  9.12D-01  2.01D+00  1.01D+00  1.10D+00  1.63D+00
                    CP:  1.72D+00  1.62D+00
 E= -1301.02040779884     Delta-E=       -0.000073734769 Rises=F Damp=F
 DIIS: error= 1.13D-04 at cycle   8 NSaved=   8.
 NSaved= 8 IEnMin= 8 EnMin= -1301.02040779884     IErMin= 8 ErrMin= 1.13D-04
 ErrMax= 1.13D-04  0.00D+00 EMaxC= 1.00D-01 BMatC= 2.39D-06 BMatP= 1.01D-05
 IDIUse=3 WtCom= 9.99D-01 WtEn= 1.13D-03
 Coeff-Com: -0.267D-02 0.462D-02 0.129D-01 0.334D-01-0.398D-01-0.299D+00
 Coeff-Com:  0.295D-01 0.126D+01
 Coeff-En:   0.000D+00 0.000D+00 0.000D+00 0.000D+00 0.000D+00 0.000D+00
 Coeff-En:   0.000D+00 0.100D+01
 Coeff:     -0.267D-02 0.461D-02 0.129D-01 0.334D-01-0.398D-01-0.299D+00
 Coeff:      0.295D-01 0.126D+01
 Gap=     0.311 Goal=   None    Shift=    0.000
 RMSDP=6.86D-06 MaxDP=6.20D-04 DE=-7.37D-05 OVMax= 3.73D-03

 Cycle   9  Pass 1  IDiag  1:
 RMSU=  2.15D-06    CP:  9.12D-01  2.01D+00  1.01D+00  1.11D+00  1.66D+00
                    CP:  1.86D+00  2.07D+00  1.63D+00
 E= -1301.02042526172     Delta-E=       -0.000017462873 Rises=F Damp=F
 DIIS: error= 5.66D-05 at cycle   9 NSaved=   9.
 NSaved= 9 IEnMin= 9 EnMin= -1301.02042526172     IErMin= 9 ErrMin= 5.66D-05
 ErrMax= 5.66D-05  0.00D+00 EMaxC= 1.00D-01 BMatC= 3.75D-07 BMatP= 2.39D-06
 IDIUse=1 WtCom= 1.00D+00 WtEn= 0.00D+00
 Coeff-Com:  0.488D-03-0.951D-03-0.197D-02 0.470D-03 0.369D-01 0.122D-01
 Coeff-Com: -0.227D+00 0.929D-01 0.109D+01
 Coeff:      0.488D-03-0.951D-03-0.197D-02 0.470D-03 0.369D-01 0.122D-01
 Coeff:     -0.227D+00 0.929D-01 0.109D+01
 Gap=     0.311 Goal=   None    Shift=    0.000
 RMSDP=2.47D-06 MaxDP=1.31D-04 DE=-1.75D-05 OVMax= 1.45D-03

 Cycle  10  Pass 1  IDiag  1:
 RMSU=  9.93D-07    CP:  9.12D-01  2.01D+00  1.01D+00  1.11D+00  1.66D+00
                    CP:  1.89D+00  2.16D+00  1.93D+00  1.53D+00
 E= -1301.02042786592     Delta-E=       -0.000002604204 Rises=F Damp=F
 DIIS: error= 2.30D-05 at cycle  10 NSaved=  10.
 NSaved=10 IEnMin=10 EnMin= -1301.02042786592     IErMin=10 ErrMin= 2.30D-05
 ErrMax= 2.30D-05  0.00D+00 EMaxC= 1.00D-01 BMatC= 1.00D-07 BMatP= 3.75D-07
 IDIUse=1 WtCom= 1.00D+00 WtEn= 0.00D+00
 Coeff-Com:  0.718D-03-0.125D-02-0.345D-02-0.931D-02 0.104D-01 0.790D-01
 Coeff-Com:  0.506D-02-0.365D+00-0.282D-01 0.131D+01
 Coeff:      0.718D-03-0.125D-02-0.345D-02-0.931D-02 0.104D-01 0.790D-01
 Coeff:      0.506D-02-0.365D+00-0.282D-01 0.131D+01
 Gap=     0.311 Goal=   None    Shift=    0.000
 RMSDP=1.65D-06 MaxDP=9.09D-05 DE=-2.60D-06 OVMax= 8.22D-04

 Cycle  11  Pass 1  IDiag  1:
 RMSU=  5.34D-07    CP:  9.12D-01  2.01D+00  1.01D+00  1.11D+00  1.67D+00
                    CP:  1.89D+00  2.22D+00  2.08D+00  2.00D+00  1.61D+00
 E= -1301.02042859336     Delta-E=       -0.000000727443 Rises=F Damp=F
 DIIS: error= 8.72D-06 at cycle  11 NSaved=  11.
 NSaved=11 IEnMin=11 EnMin= -1301.02042859336     IErMin=11 ErrMin= 8.72D-06
 ErrMax= 8.72D-06  0.00D+00 EMaxC= 1.00D-01 BMatC= 1.22D-08 BMatP= 1.00D-07
 IDIUse=1 WtCom= 1.00D+00 WtEn= 0.00D+00
 Coeff-Com: -0.488D-05 0.254D-04 0.946D-04-0.820D-03-0.527D-02 0.279D-02
 Coeff-Com:  0.440D-01-0.436D-01-0.179D+00 0.618D-01 0.112D+01
 Coeff:     -0.488D-05 0.254D-04 0.946D-04-0.820D-03-0.527D-02 0.279D-02
 Coeff:      0.440D-01-0.436D-01-0.179D+00 0.618D-01 0.112D+01
 Gap=     0.311 Goal=   None    Shift=    0.000
 RMSDP=5.34D-07 MaxDP=3.20D-05 DE=-7.27D-07 OVMax= 2.42D-04

 Cycle  12  Pass 1  IDiag  1:
 RMSU=  1.52D-07    CP:  9.12D-01  2.01D+00  1.01D+00  1.11D+00  1.67D+00
                    CP:  1.89D+00  2.23D+00  2.10D+00  2.14D+00  1.89D+00
                    CP:  1.50D+00
 E= -1301.02042867305     Delta-E=       -0.000000079689 Rises=F Damp=F
 DIIS: error= 3.12D-06 at cycle  12 NSaved=  12.
 NSaved=12 IEnMin=12 EnMin= -1301.02042867305     IErMin=12 ErrMin= 3.12D-06
 ErrMax= 3.12D-06  0.00D+00 EMaxC= 1.00D-01 BMatC= 1.78D-09 BMatP= 1.22D-08
 IDIUse=1 WtCom= 1.00D+00 WtEn= 0.00D+00
 Coeff-Com: -0.914D-04 0.160D-03 0.503D-03 0.121D-02-0.165D-02-0.117D-01
 Coeff-Com:  0.188D-02 0.470D-01-0.275D-02-0.191D+00 0.700D-01 0.109D+01
 Coeff:     -0.914D-04 0.160D-03 0.503D-03 0.121D-02-0.165D-02-0.117D-01
 Coeff:      0.188D-02 0.470D-01-0.275D-02-0.191D+00 0.700D-01 0.109D+01
 Gap=     0.311 Goal=   None    Shift=    0.000
 RMSDP=2.17D-07 MaxDP=1.59D-05 DE=-7.97D-08 OVMax= 9.34D-05

 Cycle  13  Pass 1  IDiag  1:
 RMSU=  7.52D-08    CP:  9.12D-01  2.01D+00  1.01D+00  1.11D+00  1.67D+00
                    CP:  1.89D+00  2.23D+00  2.11D+00  2.16D+00  1.97D+00
                    CP:  1.75D+00  1.40D+00
 E= -1301.02042868326     Delta-E=       -0.000000010206 Rises=F Damp=F
 DIIS: error= 9.52D-07 at cycle  13 NSaved=  13.
 NSaved=13 IEnMin=13 EnMin= -1301.02042868326     IErMin=13 ErrMin= 9.52D-07
 ErrMax= 9.52D-07  0.00D+00 EMaxC= 1.00D-01 BMatC= 2.72D-10 BMatP= 1.78D-09
 IDIUse=1 WtCom= 1.00D+00 WtEn= 0.00D+00
 Coeff-Com:  0.131D-04-0.258D-04-0.622D-04-0.781D-04 0.104D-02 0.691D-03
 Coeff-Com: -0.585D-02-0.403D-03 0.246D-01 0.142D-01-0.167D+00-0.114D+00
 Coeff-Com:  0.125D+01
 Coeff:      0.131D-04-0.258D-04-0.622D-04-0.781D-04 0.104D-02 0.691D-03
 Coeff:     -0.585D-02-0.403D-03 0.246D-01 0.142D-01-0.167D+00-0.114D+00
 Coeff:      0.125D+01
 Gap=     0.311 Goal=   None    Shift=    0.000
 RMSDP=8.39D-08 MaxDP=7.04D-06 DE=-1.02D-08 OVMax= 3.23D-05

 Cycle  14  Pass 1  IDiag  1:
 RMSU=  2.49D-08    CP:  9.12D-01  2.01D+00  1.01D+00  1.11D+00  1.67D+00
                    CP:  1.89D+00  2.23D+00  2.11D+00  2.16D+00  1.98D+00
                    CP:  1.82D+00  1.65D+00  1.61D+00
 E= -1301.02042868482     Delta-E=       -0.000000001556 Rises=F Damp=F
 DIIS: error= 2.43D-07 at cycle  14 NSaved=  14.
 NSaved=14 IEnMin=14 EnMin= -1301.02042868482     IErMin=14 ErrMin= 2.43D-07
 ErrMax= 2.43D-07  0.00D+00 EMaxC= 1.00D-01 BMatC= 5.12D-11 BMatP= 2.72D-10
 IDIUse=1 WtCom= 1.00D+00 WtEn= 0.00D+00
 Coeff-Com:  0.178D-04-0.316D-04-0.928D-04-0.236D-03 0.472D-03 0.208D-02
 Coeff-Com: -0.920D-03-0.833D-02 0.385D-02 0.358D-01-0.324D-01-0.196D+00
 Coeff-Com:  0.167D+00 0.103D+01
 Coeff:      0.178D-04-0.316D-04-0.928D-04-0.236D-03 0.472D-03 0.208D-02
 Coeff:     -0.920D-03-0.833D-02 0.385D-02 0.358D-01-0.324D-01-0.196D+00
 Coeff:      0.167D+00 0.103D+01
 Gap=     0.311 Goal=   None    Shift=    0.000
 RMSDP=2.85D-08 MaxDP=2.99D-06 DE=-1.56D-09 OVMax= 7.24D-06

 Cycle  15  Pass 1  IDiag  1:
 RMSU=  9.66D-09    CP:  9.12D-01  2.01D+00  1.01D+00  1.11D+00  1.67D+00
                    CP:  1.89D+00  2.23D+00  2.11D+00  2.16D+00  1.98D+00
                    CP:  1.82D+00  1.72D+00  1.86D+00  1.45D+00
 E= -1301.02042868502     Delta-E=       -0.000000000205 Rises=F Damp=F
 DIIS: error= 1.52D-07 at cycle  15 NSaved=  15.
 NSaved=15 IEnMin=15 EnMin= -1301.02042868502     IErMin=15 ErrMin= 1.52D-07
 ErrMax= 1.52D-07  0.00D+00 EMaxC= 1.00D-01 BMatC= 9.16D-12 BMatP= 5.12D-11
 IDIUse=1 WtCom= 1.00D+00 WtEn= 0.00D+00
 Coeff-Com: -0.400D-05 0.754D-05 0.217D-04 0.370D-04-0.217D-03-0.355D-03
 Coeff-Com:  0.115D-02 0.780D-03-0.482D-02-0.643D-02 0.335D-01 0.379D-01
 Coeff-Com: -0.224D+00-0.154D+00 0.132D+01
 Coeff:     -0.400D-05 0.754D-05 0.217D-04 0.370D-04-0.217D-03-0.355D-03
 Coeff:      0.115D-02 0.780D-03-0.482D-02-0.643D-02 0.335D-01 0.379D-01
 Coeff:     -0.224D+00-0.154D+00 0.132D+01
 Gap=     0.311 Goal=   None    Shift=    0.000
 RMSDP=1.30D-08 MaxDP=9.18D-07 DE=-2.05D-10 OVMax= 5.02D-06

 Cycle  16  Pass 1  IDiag  1:
 RMSU=  4.76D-09    CP:  9.12D-01  2.01D+00  1.01D+00  1.11D+00  1.67D+00
                    CP:  1.89D+00  2.23D+00  2.11D+00  2.16D+00  1.98D+00
                    CP:  1.82D+00  1.72D+00  1.95D+00  1.74D+00  1.50D+00
 E= -1301.02042868504     Delta-E=       -0.000000000021 Rises=F Damp=F
 DIIS: error= 4.36D-08 at cycle  16 NSaved=  16.
 NSaved=16 IEnMin=16 EnMin= -1301.02042868504     IErMin=16 ErrMin= 4.36D-08
 ErrMax= 4.36D-08  0.00D+00 EMaxC= 1.00D-01 BMatC= 2.09D-12 BMatP= 9.16D-12
 IDIUse=1 WtCom= 1.00D+00 WtEn= 0.00D+00
 Coeff-Com: -0.297D-05 0.528D-05 0.158D-04 0.424D-04-0.841D-04-0.373D-03
 Coeff-Com:  0.123D-03 0.147D-02-0.429D-03-0.654D-02 0.469D-02 0.336D-01
 Coeff-Com: -0.138D-01-0.229D+00-0.225D-02 0.121D+01
 Coeff:     -0.297D-05 0.528D-05 0.158D-04 0.424D-04-0.841D-04-0.373D-03
 Coeff:      0.123D-03 0.147D-02-0.429D-03-0.654D-02 0.469D-02 0.336D-01
 Coeff:     -0.138D-01-0.229D+00-0.225D-02 0.121D+01
 Gap=     0.311 Goal=   None    Shift=    0.000
 RMSDP=5.03D-09 MaxDP=3.82D-07 DE=-2.14D-11 OVMax= 2.14D-06

 Error on total polarization charges =  0.05247
 SCF Done:  E(RHF) =  -1301.02042869     A.U. after   16 cycles
            NFock= 16  Conv=0.50D-08     -V/T= 2.0017
 KE= 1.298858011147D+03 PE=-8.561550579788D+03 EE= 3.187699848020D+03
 SMD-CDS (non-electrostatic) energy       (kcal/mol) =      -5.49
 (included in total energy above)
 Leave Link  502 at Wed Mar 31 12:28:34 2021, MaxMem=  5242880000 cpu:     22461.8
 (Enter /opt/nce/packages/global/g09/l601.exe)
 Copying SCF densities to generalized density rwf, IOpCl= 0 IROHF=0.

 **********************************************************************

            Population analysis using the SCF density.

 **********************************************************************

 Alpha  occ. eigenvalues --  -20.58964 -20.56689 -20.56270 -15.66186 -11.33385
 Alpha  occ. eigenvalues --  -11.33382 -11.32323 -11.31516 -11.28104 -11.27674
 Alpha  occ. eigenvalues --  -11.27589 -11.27586 -11.26843 -11.26841 -11.26324
 Alpha  occ. eigenvalues --  -11.26302 -11.26146 -11.25482 -11.25419 -11.25403
 Alpha  occ. eigenvalues --  -11.25129 -11.24932 -11.24924 -11.24913 -11.24598
 Alpha  occ. eigenvalues --  -11.24576 -11.24132 -11.23950 -11.23836 -11.22463
 Alpha  occ. eigenvalues --   -7.63880  -1.42311  -1.38390  -1.34679  -1.34402
 Alpha  occ. eigenvalues --   -1.19851  -1.17855  -1.16307  -1.14780  -1.11289
 Alpha  occ. eigenvalues --   -1.05757  -1.04322  -1.03999  -1.03177  -1.02463
 Alpha  occ. eigenvalues --   -1.02340  -1.00349  -0.94627  -0.92344  -0.89124
 Alpha  occ. eigenvalues --   -0.87746  -0.84969  -0.84002  -0.83439  -0.82962
 Alpha  occ. eigenvalues --   -0.79745  -0.77757  -0.76497  -0.76198  -0.73856
 Alpha  occ. eigenvalues --   -0.73737  -0.71611  -0.70042  -0.68983  -0.68446
 Alpha  occ. eigenvalues --   -0.66944  -0.66069  -0.65607  -0.65482  -0.64442
 Alpha  occ. eigenvalues --   -0.62887  -0.62470  -0.62371  -0.61723  -0.61672
 Alpha  occ. eigenvalues --   -0.60959  -0.60641  -0.59897  -0.58983  -0.57791
 Alpha  occ. eigenvalues --   -0.57517  -0.56522  -0.56168  -0.55490  -0.55005
 Alpha  occ. eigenvalues --   -0.53406  -0.52650  -0.52455  -0.52165  -0.51911
 Alpha  occ. eigenvalues --   -0.51713  -0.50532  -0.50329  -0.49268  -0.49007
 Alpha  occ. eigenvalues --   -0.47823  -0.47493  -0.47263  -0.42624  -0.37329
 Alpha  occ. eigenvalues --   -0.35293  -0.34896  -0.34741  -0.34016  -0.32472
 Alpha  occ. eigenvalues --   -0.31206
 Alpha virt. eigenvalues --   -0.00102   0.07639   0.08692   0.09944   0.10978
 Alpha virt. eigenvalues --    0.12051   0.12443   0.12920   0.13886   0.14660
 Alpha virt. eigenvalues --    0.15323   0.15809   0.16447   0.16800   0.16990
 Alpha virt. eigenvalues --    0.17511   0.17834   0.18077   0.18619   0.18837
 Alpha virt. eigenvalues --    0.19481   0.19642   0.20200   0.20794   0.21006
 Alpha virt. eigenvalues --    0.21422   0.22165   0.22527   0.22958   0.23264
 Alpha virt. eigenvalues --    0.23487   0.23839   0.24517   0.25377   0.25489
 Alpha virt. eigenvalues --    0.26275   0.26959   0.27775   0.27909   0.28363
 Alpha virt. eigenvalues --    0.29391   0.29800   0.30139   0.30292   0.31072
 Alpha virt. eigenvalues --    0.31716   0.32133   0.32391   0.32943   0.33077
 Alpha virt. eigenvalues --    0.33300   0.33633   0.34104   0.34374   0.34921
 Alpha virt. eigenvalues --    0.35412   0.35831   0.36273   0.36302   0.36521
 Alpha virt. eigenvalues --    0.36929   0.37301   0.37741   0.38569   0.38739
 Alpha virt. eigenvalues --    0.38814   0.39204   0.39742   0.39968   0.40761
 Alpha virt. eigenvalues --    0.40949   0.41270   0.41477   0.41841   0.42399
 Alpha virt. eigenvalues --    0.42883   0.43147   0.43280   0.43910   0.44045
 Alpha virt. eigenvalues --    0.44200   0.44802   0.45462   0.45554   0.46567
 Alpha virt. eigenvalues --    0.46840   0.47058   0.47705   0.48123   0.48200
 Alpha virt. eigenvalues --    0.48427   0.49263   0.49891   0.50018   0.50599
 Alpha virt. eigenvalues --    0.50906   0.51093   0.51410   0.51736   0.51893
 Alpha virt. eigenvalues --    0.52057   0.52391   0.52719   0.53321   0.54089
 Alpha virt. eigenvalues --    0.54199   0.54516   0.54879   0.55291   0.55522
 Alpha virt. eigenvalues --    0.55663   0.55728   0.56000   0.56543   0.56693
 Alpha virt. eigenvalues --    0.56835   0.57106   0.57328   0.57718   0.58031
 Alpha virt. eigenvalues --    0.58479   0.59007   0.59117   0.59619   0.60291
 Alpha virt. eigenvalues --    0.60718   0.60783   0.61106   0.61297   0.61621
 Alpha virt. eigenvalues --    0.62382   0.62714   0.62748   0.63241   0.63363
 Alpha virt. eigenvalues --    0.63485   0.64145   0.64297   0.64651   0.65109
 Alpha virt. eigenvalues --    0.65679   0.65752   0.66380   0.66552   0.66789
 Alpha virt. eigenvalues --    0.67114   0.67325   0.68203   0.68381   0.69141
 Alpha virt. eigenvalues --    0.69418   0.70414   0.71262   0.71380   0.71779
 Alpha virt. eigenvalues --    0.71886   0.72560   0.72765   0.73338   0.74115
 Alpha virt. eigenvalues --    0.75219   0.75410   0.75699   0.76193   0.76482
 Alpha virt. eigenvalues --    0.77213   0.77342   0.77718   0.78551   0.78603
 Alpha virt. eigenvalues --    0.79276   0.79955   0.80215   0.80523   0.80785
 Alpha virt. eigenvalues --    0.81462   0.81968   0.82349   0.83162   0.83503
 Alpha virt. eigenvalues --    0.83872   0.84040   0.84287   0.84737   0.85265
 Alpha virt. eigenvalues --    0.85370   0.86012   0.86684   0.87180   0.87622
 Alpha virt. eigenvalues --    0.88307   0.88682   0.89095   0.89539   0.89895
 Alpha virt. eigenvalues --    0.90071   0.90488   0.91254   0.91350   0.91634
 Alpha virt. eigenvalues --    0.92264   0.92856   0.92888   0.93304   0.93409
 Alpha virt. eigenvalues --    0.93906   0.94109   0.94589   0.95141   0.95426
 Alpha virt. eigenvalues --    0.95578   0.96515   0.97182   0.97606   0.97995
 Alpha virt. eigenvalues --    0.98710   0.99147   0.99627   0.99942   1.00279
 Alpha virt. eigenvalues --    1.01048   1.02130   1.02554   1.02867   1.03162
 Alpha virt. eigenvalues --    1.03385   1.04037   1.04806   1.05119   1.05600
 Alpha virt. eigenvalues --    1.06159   1.06651   1.06816   1.07751   1.07852
 Alpha virt. eigenvalues --    1.07987   1.08652   1.09076   1.09638   1.09905
 Alpha virt. eigenvalues --    1.10544   1.11115   1.12060   1.12563   1.12939
 Alpha virt. eigenvalues --    1.13338   1.14462   1.14820   1.15715   1.16277
 Alpha virt. eigenvalues --    1.16944   1.17455   1.17913   1.18345   1.19425
 Alpha virt. eigenvalues --    1.20173   1.21168   1.21669   1.22440   1.23097
 Alpha virt. eigenvalues --    1.24371   1.24485   1.24809   1.25009   1.25480
 Alpha virt. eigenvalues --    1.26194   1.27171   1.27570   1.28432   1.28684
 Alpha virt. eigenvalues --    1.29454   1.30138   1.30608   1.31802   1.32369
 Alpha virt. eigenvalues --    1.33165   1.33523   1.34775   1.35295   1.35675
 Alpha virt. eigenvalues --    1.36699   1.37244   1.38121   1.38710   1.39663
 Alpha virt. eigenvalues --    1.40146   1.40493   1.41314   1.41703   1.43207
 Alpha virt. eigenvalues --    1.43475   1.43950   1.44142   1.45134   1.45379
 Alpha virt. eigenvalues --    1.46191   1.46944   1.47243   1.47806   1.47826
 Alpha virt. eigenvalues --    1.48157   1.49379   1.49718   1.50333   1.50623
 Alpha virt. eigenvalues --    1.51278   1.51994   1.53046   1.53270   1.53678
 Alpha virt. eigenvalues --    1.53938   1.54680   1.54888   1.55266   1.56403
 Alpha virt. eigenvalues --    1.56447   1.56684   1.57848   1.58971   1.60470
 Alpha virt. eigenvalues --    1.60835   1.62144   1.63375   1.63869   1.64257
 Alpha virt. eigenvalues --    1.65318   1.66118   1.66797   1.66981   1.68424
 Alpha virt. eigenvalues --    1.69964   1.70426   1.71108   1.71919   1.72362
 Alpha virt. eigenvalues --    1.72726   1.73251   1.73265   1.73776   1.74147
 Alpha virt. eigenvalues --    1.74889   1.75832   1.76400   1.76791   1.77639
 Alpha virt. eigenvalues --    1.78176   1.78575   1.78680   1.78987   1.79365
 Alpha virt. eigenvalues --    1.80093   1.81048   1.81337   1.81684   1.81949
 Alpha virt. eigenvalues --    1.82598   1.83101   1.83907   1.84340   1.84622
 Alpha virt. eigenvalues --    1.84834   1.85553   1.85797   1.86179   1.86219
 Alpha virt. eigenvalues --    1.86877   1.87900   1.88087   1.88704   1.89845
 Alpha virt. eigenvalues --    1.89963   1.90696   1.90965   1.91574   1.91634
 Alpha virt. eigenvalues --    1.93109   1.93568   1.94025   1.94506   1.95105
 Alpha virt. eigenvalues --    1.95334   1.96295   1.96488   1.96846   1.97758
 Alpha virt. eigenvalues --    1.98163   1.98625   1.98973   1.99370   1.99642
 Alpha virt. eigenvalues --    2.00885   2.01495   2.01937   2.02304   2.02604
 Alpha virt. eigenvalues --    2.03193   2.03433   2.03882   2.04520   2.04795
 Alpha virt. eigenvalues --    2.05367   2.06025   2.07144   2.07396   2.07628
 Alpha virt. eigenvalues --    2.08194   2.09763   2.10002   2.11539   2.12029
 Alpha virt. eigenvalues --    2.13354   2.13848   2.14163   2.15235   2.16132
 Alpha virt. eigenvalues --    2.16370   2.16498   2.16733   2.17477   2.17520
 Alpha virt. eigenvalues --    2.17931   2.18722   2.19264   2.21034   2.21704
 Alpha virt. eigenvalues --    2.22792   2.23055   2.23266   2.23656   2.24159
 Alpha virt. eigenvalues --    2.24709   2.25754   2.26783   2.27631   2.28611
 Alpha virt. eigenvalues --    2.29312   2.29637   2.30566   2.30869   2.32113
 Alpha virt. eigenvalues --    2.32759   2.33579   2.34807   2.35167   2.35735
 Alpha virt. eigenvalues --    2.36193   2.37576   2.37666   2.37942   2.39492
 Alpha virt. eigenvalues --    2.39642   2.40023   2.40892   2.42015   2.42212
 Alpha virt. eigenvalues --    2.44059   2.44523   2.45409   2.45939   2.46502
 Alpha virt. eigenvalues --    2.47099   2.47350   2.48053   2.48515   2.48876
 Alpha virt. eigenvalues --    2.50496   2.51386   2.51545   2.52509   2.52951
 Alpha virt. eigenvalues --    2.54285   2.54808   2.55446   2.55841   2.57429
 Alpha virt. eigenvalues --    2.57467   2.57996   2.58513   2.58857   2.59616
 Alpha virt. eigenvalues --    2.59709   2.60830   2.61472   2.62166   2.62900
 Alpha virt. eigenvalues --    2.62931   2.63799   2.64578   2.64854   2.65732
 Alpha virt. eigenvalues --    2.65786   2.68395   2.69538   2.69932   2.70481
 Alpha virt. eigenvalues --    2.70881   2.71689   2.72105   2.72410   2.73148
 Alpha virt. eigenvalues --    2.73579   2.75846   2.76475   2.78047   2.78293
 Alpha virt. eigenvalues --    2.78463   2.79311   2.79684   2.81221   2.81443
 Alpha virt. eigenvalues --    2.82861   2.83162   2.83792   2.83894   2.84388
 Alpha virt. eigenvalues --    2.84888   2.85539   2.87023   2.87392   2.88013
 Alpha virt. eigenvalues --    2.88548   2.89405   2.90052   2.90294   2.91452
 Alpha virt. eigenvalues --    2.91649   2.91959   2.92209   2.92830   2.93035
 Alpha virt. eigenvalues --    2.93994   2.94739   2.95349   2.95700   2.96230
 Alpha virt. eigenvalues --    2.97383   2.97473   2.97778   2.98269   2.98560
 Alpha virt. eigenvalues --    2.99219   2.99379   3.00289   3.00799   3.00886
 Alpha virt. eigenvalues --    3.01034   3.01789   3.01991   3.02078   3.02822
 Alpha virt. eigenvalues --    3.03129   3.03633   3.03742   3.04446   3.05012
 Alpha virt. eigenvalues --    3.05233   3.06041   3.06378   3.06853   3.06905
 Alpha virt. eigenvalues --    3.07461   3.07773   3.08065   3.08614   3.08955
 Alpha virt. eigenvalues --    3.09449   3.09829   3.10388   3.10939   3.11441
 Alpha virt. eigenvalues --    3.12027   3.12520   3.13636   3.14052   3.14270
 Alpha virt. eigenvalues --    3.14561   3.14923   3.15392   3.15438   3.16185
 Alpha virt. eigenvalues --    3.16394   3.16752   3.17591   3.17780   3.18472
 Alpha virt. eigenvalues --    3.19424   3.19668   3.20115   3.20944   3.21991
 Alpha virt. eigenvalues --    3.22206   3.22632   3.22945   3.23705   3.24477
 Alpha virt. eigenvalues --    3.24867   3.25252   3.25581   3.26398   3.27375
 Alpha virt. eigenvalues --    3.28185   3.28346   3.29338   3.30372   3.30743
 Alpha virt. eigenvalues --    3.31047   3.31542   3.31930   3.32696   3.32917
 Alpha virt. eigenvalues --    3.33569   3.34363   3.34530   3.35752   3.36229
 Alpha virt. eigenvalues --    3.36489   3.37389   3.38224   3.38797   3.39405
 Alpha virt. eigenvalues --    3.39792   3.40084   3.40630   3.40915   3.41526
 Alpha virt. eigenvalues --    3.42071   3.42571   3.43390   3.43628   3.43764
 Alpha virt. eigenvalues --    3.44333   3.44546   3.45576   3.45926   3.46648
 Alpha virt. eigenvalues --    3.47132   3.47741   3.47871   3.48140   3.48588
 Alpha virt. eigenvalues --    3.49032   3.49648   3.50419   3.50755   3.50838
 Alpha virt. eigenvalues --    3.51732   3.51979   3.52368   3.52847   3.53275
 Alpha virt. eigenvalues --    3.53722   3.54389   3.54762   3.55356   3.56360
 Alpha virt. eigenvalues --    3.56569   3.57193   3.57629   3.57783   3.59010
 Alpha virt. eigenvalues --    3.59446   3.59863   3.60728   3.61273   3.61569
 Alpha virt. eigenvalues --    3.62041   3.62098   3.62495   3.62928   3.63562
 Alpha virt. eigenvalues --    3.63792   3.64677   3.65030   3.65431   3.65754
 Alpha virt. eigenvalues --    3.66243   3.66829   3.67486   3.67898   3.68199
 Alpha virt. eigenvalues --    3.68826   3.69192   3.69616   3.70157   3.70486
 Alpha virt. eigenvalues --    3.70964   3.71455   3.71721   3.72083   3.72491
 Alpha virt. eigenvalues --    3.73450   3.73736   3.74311   3.75170   3.75238
 Alpha virt. eigenvalues --    3.75760   3.76178   3.76576   3.77773   3.78402
 Alpha virt. eigenvalues --    3.78908   3.79196   3.79510   3.79729   3.80093
 Alpha virt. eigenvalues --    3.80650   3.80755   3.81664   3.82071   3.82588
 Alpha virt. eigenvalues --    3.82986   3.83749   3.84425   3.85012   3.85217
 Alpha virt. eigenvalues --    3.86135   3.86309   3.86765   3.86967   3.87649
 Alpha virt. eigenvalues --    3.87800   3.88224   3.88340   3.88609   3.89208
 Alpha virt. eigenvalues --    3.89870   3.90382   3.91185   3.91389   3.91944
 Alpha virt. eigenvalues --    3.92274   3.92914   3.93613   3.94012   3.94694
 Alpha virt. eigenvalues --    3.95593   3.97360   3.98189   3.99249   3.99728
 Alpha virt. eigenvalues --    4.00669   4.01820   4.02707   4.03047   4.03447
 Alpha virt. eigenvalues --    4.04434   4.06290   4.07079   4.07560   4.09476
 Alpha virt. eigenvalues --    4.10684   4.11708   4.12137   4.13257   4.14125
 Alpha virt. eigenvalues --    4.14426   4.15252   4.16413   4.18181   4.19728
 Alpha virt. eigenvalues --    4.20581   4.22209   4.22555   4.23120   4.23975
 Alpha virt. eigenvalues --    4.24889   4.26064   4.27630   4.28768   4.29587
 Alpha virt. eigenvalues --    4.31027   4.31421   4.32064   4.33307   4.34200
 Alpha virt. eigenvalues --    4.35370   4.35714   4.36448   4.37601   4.38264
 Alpha virt. eigenvalues --    4.39178   4.40390   4.41154   4.42114   4.42577
 Alpha virt. eigenvalues --    4.42989   4.44094   4.44362   4.44625   4.46036
 Alpha virt. eigenvalues --    4.47282   4.47479   4.48501   4.49233   4.49624
 Alpha virt. eigenvalues --    4.50383   4.51496   4.51612   4.52436   4.52571
 Alpha virt. eigenvalues --    4.53987   4.54908   4.55243   4.56046   4.56518
 Alpha virt. eigenvalues --    4.56611   4.56827   4.57225   4.57507   4.57978
 Alpha virt. eigenvalues --    4.58499   4.58990   4.59983   4.60527   4.60847
 Alpha virt. eigenvalues --    4.61298   4.63115   4.64136   4.65601   4.66887
 Alpha virt. eigenvalues --    4.68391   4.68794   4.69864   4.70288   4.71522
 Alpha virt. eigenvalues --    4.72350   4.74112   4.74402   4.75129   4.77089
 Alpha virt. eigenvalues --    4.78216   4.78750   4.80090   4.81850   4.83123
 Alpha virt. eigenvalues --    4.86030   4.86553   4.88813   4.90262   4.90778
 Alpha virt. eigenvalues --    4.92319   4.93303   4.94395   4.95776   4.96437
 Alpha virt. eigenvalues --    4.96857   4.97832   4.98521   5.00621   5.01547
 Alpha virt. eigenvalues --    5.02805   5.03448   5.05420   5.08082   5.08388
 Alpha virt. eigenvalues --    5.11224   5.14085   5.15287   5.15785   5.17175
 Alpha virt. eigenvalues --    5.19425   5.21370   5.22333   5.24014   5.24502
 Alpha virt. eigenvalues --    5.24791   5.25899   5.30214   5.31785   5.33814
 Alpha virt. eigenvalues --    5.34023   5.35242   5.36999   5.39771   5.42176
 Alpha virt. eigenvalues --    5.42923   5.43680   5.44629   5.49239   5.50262
 Alpha virt. eigenvalues --    5.51028   5.53066   5.56624   5.57272   5.58731
 Alpha virt. eigenvalues --    5.61774   5.62528   5.64037   5.65364   5.66068
 Alpha virt. eigenvalues --    5.67382   5.67814   5.69667   5.71642   5.73902
 Alpha virt. eigenvalues --    5.75338   5.75712   5.78874   5.79078   5.79649
 Alpha virt. eigenvalues --    5.83040   5.84086   5.85530   5.86959   5.90630
 Alpha virt. eigenvalues --    5.91465   5.92051   5.93290   5.94444   5.95090
 Alpha virt. eigenvalues --    5.99909   6.00793   6.06345   6.09179   6.10697
 Alpha virt. eigenvalues --    6.11994   6.16673   6.16945   6.18361   6.20507
 Alpha virt. eigenvalues --    6.22194   6.23173   6.24045   6.27904   6.40112
 Alpha virt. eigenvalues --    6.46177   6.46923   6.52644   6.67315   6.81054
 Alpha virt. eigenvalues --    6.83087   6.83673   6.84400   6.89177   6.91656
 Alpha virt. eigenvalues --    7.01912   7.02980   7.15492   7.20278   7.25641
 Alpha virt. eigenvalues --    7.26795   7.26991   7.30385   7.38470   7.39680
 Alpha virt. eigenvalues --    7.48616   7.70076   7.74786   7.85859   7.94469
 Alpha virt. eigenvalues --   17.12854  23.31919  23.40302  23.44791  23.52620
 Alpha virt. eigenvalues --   23.56535  23.70639  23.71720  23.73625  23.74420
 Alpha virt. eigenvalues --   23.77295  23.78875  23.80323  23.82824  23.87391
 Alpha virt. eigenvalues --   23.89679  23.91703  24.00451  24.03811  24.06996
 Alpha virt. eigenvalues --   24.12129  24.19654  24.26413  24.38930  24.43334
 Alpha virt. eigenvalues --   24.48568  24.81588  34.66507  45.11284  45.21264
 Alpha virt. eigenvalues --   45.81434
          Condensed to atoms (all electrons):
 Mulliken charges:
               1
     1  C   -0.058870
     2  C   -0.319323
     3  C    0.250169
     4  C    0.062407
     5  C   -0.272761
     6  C   -0.185278
     7  C    0.385868
     8  C    0.059290
     9  C    0.256541
    10  C   -0.319800
    11  H    0.192568
    12  C   -0.059032
    13  C   -0.186695
    14  C   -0.267950
    15  H    0.187399
    16  H    0.192782
    17  H    0.200457
    18  H    0.180366
    19  H    0.187320
    20  H    0.180255
    21  H    0.200378
    22  N    0.114716
    23  C    0.104721
    24  C   -0.333489
    25  C   -0.308492
    26  C   -0.071743
    27  C   -0.153729
    28  C   -0.222721
    29  H    0.174870
    30  H    0.179879
[...]
 Alpha virt. eigenvalues --    0.75480   0.75855   0.76389   0.76574   0.77072
 Alpha virt. eigenvalues --    0.77481   0.78188   0.78524   0.78890   0.79571
 Alpha virt. eigenvalues --    0.80538   0.80647   0.80928   0.81051   0.82060
 Alpha virt. eigenvalues --    0.82563   0.82620   0.83097   0.83172   0.83758
 Alpha virt. eigenvalues --    0.84297   0.84483   0.84968   0.85047   0.85743
 Alpha virt. eigenvalues --    0.86062   0.86151   0.87155   0.88247   0.88320
 Alpha virt. eigenvalues --    0.89308   0.89802   0.90206   0.90722   0.90930
 Alpha virt. eigenvalues --    0.91062   0.91781   0.92136   0.92165   0.92541
 Alpha virt. eigenvalues --    0.92753   0.93516   0.93841   0.94387   0.94465
 Alpha virt. eigenvalues --    0.94778   0.95326   0.96074   0.96120   0.96689
 Alpha virt. eigenvalues --    0.97102   0.97213   0.97915   0.98242   0.98537
 Alpha virt. eigenvalues --    0.98993   1.00248   1.00449   1.00873   1.01102
 Alpha virt. eigenvalues --    1.01949   1.02296   1.02705   1.03142   1.04201
 Alpha virt. eigenvalues --    1.04465   1.04623   1.05322   1.05865   1.06007
 Alpha virt. eigenvalues --    1.06846   1.07597   1.08139   1.08290   1.08582
 Alpha virt. eigenvalues --    1.08743   1.08961   1.09582   1.09706   1.10925
 Alpha virt. eigenvalues --    1.11604   1.12044   1.12188   1.13438   1.14054
 Alpha virt. eigenvalues --    1.14144   1.15307   1.15369   1.15907   1.17046
 Alpha virt. eigenvalues --    1.17548   1.18453   1.18718   1.19052   1.19810
 Alpha virt. eigenvalues --    1.20948   1.21281   1.22422   1.23517   1.24257
 Alpha virt. eigenvalues --    1.24397   1.25077   1.25403   1.25962   1.26817
 Alpha virt. eigenvalues --    1.27316   1.27434   1.28245   1.29355   1.29896
 Alpha virt. eigenvalues --    1.30540   1.30641   1.31348   1.31959   1.32632
 Alpha virt. eigenvalues --    1.33505   1.35065   1.35329   1.35686   1.36308
 Alpha virt. eigenvalues --    1.38409   1.38806   1.39017   1.39284   1.39757
 Alpha virt. eigenvalues --    1.40153   1.41203   1.41803   1.43418   1.43825
 Alpha virt. eigenvalues --    1.44252   1.45109   1.45402   1.46162   1.46529
 Alpha virt. eigenvalues --    1.46913   1.47034   1.47376   1.48241   1.49130
 Alpha virt. eigenvalues --    1.49580   1.49957   1.50262   1.51092   1.51306
 Alpha virt. eigenvalues --    1.51514   1.52800   1.52954   1.54362   1.54656
 Alpha virt. eigenvalues --    1.54944   1.55205   1.56322   1.57033   1.57044
 Alpha virt. eigenvalues --    1.58648   1.58756   1.59815   1.60041   1.62827
 Alpha virt. eigenvalues --    1.63203   1.63891   1.64160   1.65012   1.65685
 Alpha virt. eigenvalues --    1.67425   1.67712   1.68318   1.69666   1.70283
 Alpha virt. eigenvalues --    1.70858   1.71548   1.72595   1.72769   1.72919
 Alpha virt. eigenvalues --    1.73773   1.73922   1.74272   1.74722   1.74985
 Alpha virt. eigenvalues --    1.76785   1.77386   1.77714   1.77859   1.78204
 Alpha virt. eigenvalues --    1.79028   1.79277   1.79693   1.80275   1.81705
 Alpha virt. eigenvalues --    1.81825   1.82008   1.82377   1.82811   1.83845
 Alpha virt. eigenvalues --    1.84000   1.84388   1.84627   1.85395   1.85851
 Alpha virt. eigenvalues --    1.85978   1.86528   1.86903   1.86954   1.88336
 Alpha virt. eigenvalues --    1.88862   1.88952   1.89071   1.89788   1.90178
 Alpha virt. eigenvalues --    1.90607   1.90907   1.91247   1.91887   1.93023
 Alpha virt. eigenvalues --    1.93255   1.94774   1.95636   1.96196   1.96373
 Alpha virt. eigenvalues --    1.97078   1.97282   1.97809   1.98354   1.98635
 Alpha virt. eigenvalues --    1.99044   1.99493   1.99828   2.00355   2.00740
 Alpha virt. eigenvalues --    2.01127   2.02971   2.03189   2.03459   2.04156
 Alpha virt. eigenvalues --    2.04400   2.04534   2.04849   2.05654   2.06223
 Alpha virt. eigenvalues --    2.06350   2.06799   2.07500   2.08328   2.08984
 Alpha virt. eigenvalues --    2.09782   2.10610   2.11537   2.12197   2.13598
 Alpha virt. eigenvalues --    2.14194   2.14754   2.15283   2.16247   2.16543
 Alpha virt. eigenvalues --    2.17222   2.17321   2.17393   2.18018   2.19128
 Alpha virt. eigenvalues --    2.19961   2.20596   2.20870   2.21242   2.22866
 Alpha virt. eigenvalues --    2.24151   2.24339   2.24591   2.25020   2.25118
 Alpha virt. eigenvalues --    2.26096   2.27503   2.28102   2.29525   2.30487
 Alpha virt. eigenvalues --    2.31332   2.31372   2.31474   2.32050   2.32347
 Alpha virt. eigenvalues --    2.32771   2.34848   2.35225   2.35400   2.36078
 Alpha virt. eigenvalues --    2.36792   2.37387   2.38805   2.39088   2.40836
 Alpha virt. eigenvalues --    2.41127   2.41222   2.41882   2.43364   2.44576
 Alpha virt. eigenvalues --    2.45206   2.45490   2.46126   2.47471   2.48168
 Alpha virt. eigenvalues --    2.48668   2.48882   2.49228   2.49551   2.50727
 Alpha virt. eigenvalues --    2.52651   2.53599   2.53969   2.54461   2.54582
 Alpha virt. eigenvalues --    2.55502   2.55728   2.56515   2.58561   2.58890
 Alpha virt. eigenvalues --    2.59704   2.60095   2.60330   2.60709   2.60840
 Alpha virt. eigenvalues --    2.61537   2.62306   2.63071   2.63247   2.63390
 Alpha virt. eigenvalues --    2.64498   2.65144   2.66464   2.66588   2.68147
 Alpha virt. eigenvalues --    2.68416   2.69348   2.71440   2.71916   2.72337
 Alpha virt. eigenvalues --    2.72672   2.72927   2.73789   2.73900   2.74442
 Alpha virt. eigenvalues --    2.75706   2.76368   2.76858   2.78719   2.79838
 Alpha virt. eigenvalues --    2.80387   2.80890   2.82002   2.82582   2.82945
 Alpha virt. eigenvalues --    2.84012   2.84731   2.85270   2.85292   2.86906
 Alpha virt. eigenvalues --    2.87243   2.87761   2.88704   2.88965   2.89286
 Alpha virt. eigenvalues --    2.90031   2.90812   2.91714   2.92630   2.93422
 Alpha virt. eigenvalues --    2.93641   2.94127   2.94895   2.95222   2.95322
 Alpha virt. eigenvalues --    2.96308   2.96571   2.96862   2.97500   2.97637
 Alpha virt. eigenvalues --    2.98556   2.98981   2.99612   3.00335   3.01125
 Alpha virt. eigenvalues --    3.01419   3.01690   3.02202   3.03036   3.03071
 Alpha virt. eigenvalues --    3.03493   3.03866   3.04036   3.04140   3.04516
 Alpha virt. eigenvalues --    3.04934   3.05012   3.05401   3.05631   3.06241
 Alpha virt. eigenvalues --    3.07002   3.07643   3.07965   3.08665   3.08746
 Alpha virt. eigenvalues --    3.09146   3.09714   3.09856   3.10873   3.10935
 Alpha virt. eigenvalues --    3.11281   3.12063   3.12737   3.13057   3.13673
 Alpha virt. eigenvalues --    3.14274   3.14694   3.15755   3.16202   3.16764
 Alpha virt. eigenvalues --    3.16806   3.17191   3.17703   3.17989   3.18257
 Alpha virt. eigenvalues --    3.18540   3.18666   3.19373   3.19627   3.20566
 Alpha virt. eigenvalues --    3.20775   3.21014   3.21544   3.22481   3.23118
 Alpha virt. eigenvalues --    3.24428   3.25172   3.25385   3.25620   3.26002
 Alpha virt. eigenvalues --    3.26075   3.27328   3.27780   3.28638   3.29178
 Alpha virt. eigenvalues --    3.29786   3.30314   3.30921   3.31291   3.31456
 Alpha virt. eigenvalues --    3.32215   3.32484   3.33217   3.33921   3.34092
 Alpha virt. eigenvalues --    3.35365   3.35726   3.35856   3.36586   3.36688
 Alpha virt. eigenvalues --    3.37715   3.38049   3.38780   3.39572   3.40059
 Alpha virt. eigenvalues --    3.41009   3.41182   3.41434   3.42888   3.43048
 Alpha virt. eigenvalues --    3.43504   3.44065   3.44138   3.44519   3.44649
 Alpha virt. eigenvalues --    3.45420   3.45730   3.45967   3.46064   3.47465
 Alpha virt. eigenvalues --    3.48390   3.48931   3.49098   3.49389   3.50218
 Alpha virt. eigenvalues --    3.50359   3.50693   3.51575   3.52029   3.52329
 Alpha virt. eigenvalues --    3.52492   3.52651   3.53639   3.54081   3.54713
 Alpha virt. eigenvalues --    3.55425   3.55924   3.56565   3.57588   3.58338
 Alpha virt. eigenvalues --    3.58972   3.59120   3.59302   3.59790   3.60398
 Alpha virt. eigenvalues --    3.60729   3.61257   3.61631   3.61959   3.62521
 Alpha virt. eigenvalues --    3.63708   3.63817   3.64168   3.64463   3.65295
 Alpha virt. eigenvalues --    3.65713   3.66129   3.66660   3.67096   3.67562
 Alpha virt. eigenvalues --    3.67595   3.68753   3.68867   3.69602   3.69812
 Alpha virt. eigenvalues --    3.70367   3.71088   3.71172   3.72118   3.72227
 Alpha virt. eigenvalues --    3.72707   3.73226   3.73849   3.74361   3.74678
 Alpha virt. eigenvalues --    3.75058   3.75227   3.75396   3.75702   3.76600
 Alpha virt. eigenvalues --    3.76888   3.77784   3.78275   3.79918   3.80481
 Alpha virt. eigenvalues --    3.80962   3.81275   3.81397   3.81708   3.82589
 Alpha virt. eigenvalues --    3.82914   3.83065   3.83170   3.83449   3.85193
 Alpha virt. eigenvalues --    3.86002   3.86211   3.86830   3.87046   3.87563
 Alpha virt. eigenvalues --    3.87640   3.88478   3.88753   3.88949   3.89606
 Alpha virt. eigenvalues --    3.89981   3.90009   3.90503   3.91212   3.91493
 Alpha virt. eigenvalues --    3.92170   3.92517   3.93029   3.93275   3.93452
 Alpha virt. eigenvalues --    3.94569   3.95342   3.96141   3.96949   3.98451
 Alpha virt. eigenvalues --    3.98548   4.00085   4.00410   4.01416   4.02028
 Alpha virt. eigenvalues --    4.03121   4.03478   4.04482   4.04790   4.06807
 Alpha virt. eigenvalues --    4.07058   4.07223   4.08168   4.08918   4.10610
 Alpha virt. eigenvalues --    4.12573   4.14590   4.15727   4.16004   4.17006
 Alpha virt. eigenvalues --    4.18275   4.18775   4.20335   4.20840   4.22677
 Alpha virt. eigenvalues --    4.24939   4.24959   4.26113   4.26247   4.26842
 Alpha virt. eigenvalues --    4.27020   4.28922   4.30050   4.32594   4.33527
 Alpha virt. eigenvalues --    4.34668   4.35789   4.36820   4.37806   4.38235
 Alpha virt. eigenvalues --    4.38625   4.39814   4.39998   4.40981   4.42572
 Alpha virt. eigenvalues --    4.43053   4.44458   4.44765   4.45380   4.45529
 Alpha virt. eigenvalues --    4.46418   4.47423   4.48112   4.48289   4.49373
 Alpha virt. eigenvalues --    4.49929   4.50952   4.52056   4.54209   4.54302
 Alpha virt. eigenvalues --    4.54984   4.55337   4.55450   4.55592   4.56325
 Alpha virt. eigenvalues --    4.56721   4.57979   4.59064   4.59741   4.60220
 Alpha virt. eigenvalues --    4.60782   4.60927   4.61117   4.61434   4.61991
 Alpha virt. eigenvalues --    4.62516   4.62787   4.63819   4.64901   4.65875
 Alpha virt. eigenvalues --    4.66481   4.66632   4.67292   4.68055   4.71187
 Alpha virt. eigenvalues --    4.71348   4.72892   4.73466   4.75685   4.76376
 Alpha virt. eigenvalues --    4.77418   4.78339   4.78869   4.79554   4.79823
 Alpha virt. eigenvalues --    4.83061   4.83180   4.85203   4.87547   4.88497
 Alpha virt. eigenvalues --    4.89018   4.91420   4.92253   4.94182   4.95225
 Alpha virt. eigenvalues --    4.96512   4.96871   4.97831   5.00148   5.00212
 Alpha virt. eigenvalues --    5.01531   5.03767   5.04198   5.04433   5.05519
 Alpha virt. eigenvalues --    5.06713   5.08001   5.08603   5.10192   5.12187
 Alpha virt. eigenvalues --    5.13065   5.15524   5.18831   5.20032   5.22203
 Alpha virt. eigenvalues --    5.22446   5.24307   5.24777   5.27342   5.28581
 Alpha virt. eigenvalues --    5.28748   5.31634   5.33915   5.34142   5.36576
 Alpha virt. eigenvalues --    5.36703   5.38907   5.41066   5.43318   5.44557
 Alpha virt. eigenvalues --    5.46728   5.47188   5.47210   5.56562   5.57163
 Alpha virt. eigenvalues --    5.58075   5.58409   5.59565   5.62194   5.62540
 Alpha virt. eigenvalues --    5.63653   5.66245   5.67564   5.70224   5.71801
 Alpha virt. eigenvalues --    5.72085   5.72718   5.74000   5.74648   5.75419
 Alpha virt. eigenvalues --    5.76333   5.79821   5.80577   5.81624   5.82443
 Alpha virt. eigenvalues --    5.85587   5.86300   5.86389   5.89690   5.91425
 Alpha virt. eigenvalues --    5.94471   5.95025   5.96806   5.98164   6.00672
 Alpha virt. eigenvalues --    6.02511   6.05030   6.07651   6.12050   6.13331
 Alpha virt. eigenvalues --    6.15332   6.19995   6.21010   6.21992   6.24638
 Alpha virt. eigenvalues --    6.24787   6.25842   6.30422   6.31038   6.42799
 Alpha virt. eigenvalues --    6.49559   6.51940   6.56176   6.71658   6.87630
 Alpha virt. eigenvalues --    6.87654   6.88958   6.91300   6.92012   6.93864
 Alpha virt. eigenvalues --    7.01929   7.07812   7.16437   7.20324   7.25823
 Alpha virt. eigenvalues --    7.28191   7.29949   7.31368   7.39521   7.40113
 Alpha virt. eigenvalues --    7.49520   7.71822   7.76614   7.85970   7.95741
 Alpha virt. eigenvalues --   17.16389  23.42150  23.45846  23.55093  23.57270
 Alpha virt. eigenvalues --   23.63247  23.78140  23.78200  23.82157  23.84917
 Alpha virt. eigenvalues --   23.89463  23.91121  23.92045  23.93657  23.95908
 Alpha virt. eigenvalues --   23.96393  23.97743  24.11275  24.14189  24.20161
 Alpha virt. eigenvalues --   24.21204  24.27576  24.40130  24.52659  24.56412
 Alpha virt. eigenvalues --   24.60903  24.93979  34.71125  45.10781  45.21837
 Alpha virt. eigenvalues --   45.83407
          Condensed to atoms (all electrons):
 Mulliken charges:
               1
     1  C   -0.041637
     2  C   -0.334364
     3  C    0.257536
     4  C    0.077684
     5  C   -0.258124
     6  C   -0.177374
     7  C    0.406093
     8  C    0.076417
     9  C    0.258070
    10  C   -0.333699
    11  H    0.182760
    12  C   -0.041966
    13  C   -0.176985
    14  C   -0.258722
    15  H    0.179999
    16  H    0.182763
    17  H    0.189538
    18  H    0.174136
    19  H    0.179986
    20  H    0.174180
    21  H    0.189574
    22  N    0.119207
    23  C    0.090448
    24  C   -0.335795
    25  C   -0.271694
    26  C   -0.077435
    27  C   -0.168973
    28  C   -0.219338
    29  H    0.167097
    30  H    0.165094
    31  H    0.170611
    32  C    0.142081
    33  C   -0.264719
    34  C   -0.253218
    35  C   -0.249044
    36  H    0.172767
    37  C   -0.209496
    38  H    0.169597
    39  C    0.420477
    40  H    0.172188
    41  H    0.157263
    42  O   -0.381322
    43  C   -0.152574
    44  H    0.149057
    45  H    0.130359
    46  H    0.130483
    47  H    0.150361
    48  B    0.593960
    49  O   -0.579267
    50  O   -0.595808
    51  H    0.375902
    52  H    0.375865
 Sum of Mulliken charges =   1.00000
 Mulliken charges with hydrogens summed into heavy atoms:
               1
     1  C    0.138362
     2  C   -0.151601
     3  C    0.257536
     4  C    0.077684
     5  C   -0.068586
     6  C   -0.003239
     7  C    0.406093
     8  C    0.076417
     9  C    0.258070
    10  C   -0.150939
    12  C    0.138020
    13  C   -0.002805
    14  C   -0.069148
    22  N    0.119207
    23  C    0.090448
    24  C   -0.170700
    25  C   -0.101083
    26  C   -0.077435
    27  C   -0.001877
    28  C   -0.068977
    32  C    0.142081
    33  C   -0.091952
    34  C   -0.083621
    35  C   -0.076856
    37  C   -0.052232
    39  C    0.420477
    42  O   -0.381322
    43  C    0.257326
    48  B    0.593960
    49  O   -0.203365
    50  O   -0.219943
 Electronic spatial extent (au):  <R**2>=          15872.7526
 Charge=              1.0000 electrons
 Dipole moment (field-independent basis, Debye):
    X=             -1.8092    Y=              0.0560    Z=             -1.1791  Tot=              2.1603
 Quadrupole moment (field-independent basis, Debye-Ang):
   XX=           -101.0994   YY=           -145.3382   ZZ=           -163.1457
   XY=              0.3440   XZ=            -25.5211   YZ=             -0.0493
 Traceless Quadrupole moment (field-independent basis, Debye-Ang):
   XX=             35.4283   YY=             -8.8104   ZZ=            -26.6179
   XY=              0.3440   XZ=            -25.5211   YZ=             -0.0493
 Octapole moment (field-independent basis, Debye-Ang**2):
  XXX=             -9.3896  YYY=              0.0978  ZZZ=             35.2893  XYY=            -13.6862
  XXY=             -1.9569  XXZ=             56.0095  XZZ=            -10.6796  YZZ=             -1.1049
  YYZ=             -0.7424  XYZ=             -1.6172
 Hexadecapole moment (field-independent basis, Debye-Ang**3):
 XXXX=         -12866.9957 YYYY=          -2347.1519 ZZZZ=          -1215.9213 XXXY=             21.2652
 XXXZ=          -1199.4460 YYYX=            -10.1162 YYYZ=             18.1561 ZZZX=            124.8742
 ZZZY=            -18.4067 XXYY=          -3305.1657 XXZZ=          -2502.2603 YYZZ=           -837.5732
 XXYZ=            -20.2742 YYXZ=             19.0580 ZZXY=             -2.2332
 N-N= 2.794353580134D+03 E-N=-8.603566899224D+03  KE= 1.300704705326D+03
 Leave Link  601 at Thu Apr  1 08:56:15 2021, MaxMem=  5242880000 cpu:         7.0
 (Enter /opt/nce/packages/global/g09/l9999.exe)
 1\1\GINC-CN077\SP\RTD-FC\Gen\C26H21B1N1O3(1+)\PNG4RJV\01-Apr-2021\0\\#
 p hf chkbasis geom=allcheck Guess=Read int=ultrafine scrf=(SMD,solvent
 =Acetonitrile) td=(NStates=30)\\Title\\1,1\C,0,0.957809365,3.519999672
 7,-0.7594035687\C,0,1.5968161388,2.3577197077,-0.4871867974\C,0,0.8546
 244182,1.2223493609,-0.0818918004\C,0,-0.5489646652,1.325995881,0.0348
 29529\C,0,-1.1733342047,2.5741274197,-0.2664864505\C,0,-0.4473598736,3
 .6406475064,-0.6521257735\C,0,-1.2875192777,0.2105292099,0.4413606616\
 C,0,-0.6250991571,-0.9895084792,0.7171255682\C,0,0.7792235806,-1.05187
 52758,0.5823622053\C,0,1.4435424757,-2.2704542266,0.8608732038\H,0,2.5
 044934025,-2.3402353307,0.7634049219\C,0,0.7316134441,-3.3535861961,1.
 2522389525\C,0,-0.6747705508,-3.3084704606,1.3959533153\C,0,-1.3277393
 054,-2.1599615393,1.1357269566\H,0,1.535727772,4.3714460456,-1.0655852
 942\H,0,2.6590410102,2.3025354895,-0.5803796557\H,0,-2.2371704804,2.65
 0452172,-0.1814989529\H,0,-0.9221276822,4.5754949925,-0.8776188513\H,0
 ,1.2514221445,-4.269940665,1.4592406386\H,0,-1.208072238,-4.1844924861
 ,1.7095355809\H,0,-2.3913785332,-2.110677921,1.2409541929\N,0,1.474582
 1604,0.0466567606,0.1927563933\C,0,-2.7736774685,0.3008336041,0.584897
 2682\C,0,-3.5967148779,-0.0267954382,-0.4763168761\C,0,-3.3281706935,0
 .7106954375,1.7856742072\C,0,-4.9830827433,0.0451734846,-0.3666759524\
 C,0,-4.7007490581,0.7894312394,1.9151906913\C,0,-5.5168709191,0.459864
 9365,0.849307953\H,0,-5.1312517867,1.1072323567,2.8459993116\H,0,-3.15
 60292211,-0.3440423602,-1.4022422419\H,0,-2.6937202955,0.9661872841,2.
 6138194951\C,0,2.9146690282,-0.0346922046,0.0768027658\C,0,3.485891332
 4,-0.3938354841,-1.1176041547\C,0,3.7065108875,0.2532972638,1.17349502
 2\C,0,4.863758161,-0.470884354,-1.2379299276\H,0,2.8656886533,-0.61636
 12298,-1.965447545\C,0,5.0733113514,0.1795845582,1.0649760224\H,0,3.25
 3755491,0.533792453,2.1058726646\C,0,5.6638665342,-0.1832719678,-0.143
 8049617\H,0,5.2893482273,-0.7522513905,-2.1790203872\H,0,5.7005928547,
 0.4006288506,1.9071182261\O,0,6.9983588457,-0.2268268151,-0.1545494809
 \C,0,7.683291475,-0.5862953811,-1.3304321323\H,0,8.7344113906,-0.54588
 61745,-1.089269072\H,0,7.426221618,-1.5917955898,-1.6417482042\H,0,7.4
 738249064,0.109250199,-2.1343200078\H,0,-6.5804708479,0.5330778745,0.9
 855340557\B,0,-5.8858541504,-0.3440153201,-1.6053647521\O,0,-7.2423067
 89,-0.3365040543,-1.5924363052\O,0,-5.2691812553,-0.7110859828,-2.7550
 485067\H,0,-7.6559140007,-0.0850978533,-0.7826409381\H,0,-5.8660385933
 ,-0.9339555799,-3.4537422124\\Version=ES64L-G09RevE.01\State=1-A\HF=-1
 301.0356533\RMSD=5.759e-09\PG=C01 [X(C26H21B1N1O3)]\\@


 ... I FELL INTO A REVERIE ... THE ATOMS WERE GAMBOLING BEFORE MY EYES
 ... I SAW HOW TWO SMALL ONES UNITED TO FORM A PAIR;
 HOW THE LARGER ONES SEIZED TWO OF THE SMALLER ONES;
 HOW STILL LARGER ONES KEPT HOLD OF THREE OR FOUR
 SMALLER ONES ... I SAW HOW THE LARGER ONES FORMED A CHAIN ...
 THIS WAS THE ORIGIN OF THE STRUCTURE THEORY.

                                   -- C.F.KEKULE VON STRADONITZ
 Job cpu time:       2 days 18 hours 10 minutes 53.6 seconds.
 File lengths (MBytes):  RWF=   5867 Int=      0 D2E=      0 Chk=   1054 Scr=      1
 Normal termination of Gaussian 09 at Thu Apr  1 08:56:16 2021.
