
                                 *****************
                                 * O   R   C   A *
                                 *****************

                                            #,                                       
                                            ###                                      
                                            ####                                     
                                            #####                                    
                                            ######                                   
                                           ########,                                 
                                     ,,################,,,,,                         
                               ,,#################################,,                 
                          ,,##########################################,,             
                       ,#########################################, ''#####,          
                    ,#############################################,,   '####,        
                  ,##################################################,,,,####,       
                ,###########''''           ''''###############################       
              ,#####''   ,,,,##########,,,,          '''####'''          '####       
            ,##' ,,,,###########################,,,                        '##       
           ' ,,###''''                  '''############,,,                           
         ,,##''                                '''############,,,,        ,,,,,,###''
      ,#''                                            '''#######################'''  
     '                                                          ''''####''''         
             ,#######,   #######,   ,#######,      ##                                
            ,#'     '#,  ##    ##  ,#'     '#,    #''#        ######   ,####,        
            ##       ##  ##   ,#'  ##            #'  '#       #        #'  '#        
            ##       ##  #######   ##           ,######,      #####,   #    #        
            '#,     ,#'  ##    ##  '#,     ,#' ,#      #,         ##   #,  ,#        
             '#######'   ##     ##  '#######'  #'      '#     #####' # '####'        



                  #######################################################
                  #                        -***-                        #
                  #          Department of theory and spectroscopy      #
                  #    Directorship and core code : Frank Neese         #
                  #        Max Planck Institute fuer Kohlenforschung    #
                  #                Kaiser Wilhelm Platz 1               #
                  #                 D-45470 Muelheim/Ruhr               #
                  #                      Germany                        #
                  #                                                     #
                  #                  All rights reserved                #
                  #                        -***-                        #
                  #######################################################


                         Program Version 5.0.2 -  RELEASE  -


 With contributions from (in alphabetic order):
   Daniel Aravena         : Magnetic Suceptibility
   Michael Atanasov       : Ab Initio Ligand Field Theory (pilot matlab implementation)
   Alexander A. Auer      : GIAO ZORA, VPT2 properties, NMR spectrum
   Ute Becker             : Parallelization
   Giovanni Bistoni       : ED, misc. LED, open-shell LED, HFLD
   Martin Brehm           : Molecular dynamics
   Dmytro Bykov           : SCF Hessian
   Vijay G. Chilkuri      : MRCI spin determinant printing, contributions to CSF-ICE
   Dipayan Datta          : RHF DLPNO-CCSD density
   Achintya Kumar Dutta   : EOM-CC, STEOM-CC
   Dmitry Ganyushin       : Spin-Orbit,Spin-Spin,Magnetic field MRCI
   Miquel Garcia          : C-PCM and meta-GGA Hessian, CC/C-PCM, Gaussian charge scheme
   Yang Guo               : DLPNO-NEVPT2, F12-NEVPT2, CIM, IAO-localization
   Andreas Hansen         : Spin unrestricted coupled pair/coupled cluster methods
   Benjamin Helmich-Paris : MC-RPA, TRAH-SCF, COSX integrals
   Lee Huntington         : MR-EOM, pCC
   Robert Izsak           : Overlap fitted RIJCOSX, COSX-SCS-MP3, EOM
   Marcus Kettner         : VPT2
   Christian Kollmar      : KDIIS, OOCD, Brueckner-CCSD(T), CCSD density, CASPT2, CASPT2-K
   Simone Kossmann        : Meta GGA functionals, TD-DFT gradient, OOMP2, MP2 Hessian
   Martin Krupicka        : Initial AUTO-CI
   Lucas Lang             : DCDCAS
   Marvin Lechner         : AUTO-CI (C++ implementation), FIC-MRCC
   Dagmar Lenk            : GEPOL surface, SMD
   Dimitrios Liakos       : Extrapolation schemes; Compound Job, initial MDCI parallelization
   Dimitrios Manganas     : Further ROCIS development; embedding schemes
   Dimitrios Pantazis     : SARC Basis sets
   Anastasios Papadopoulos: AUTO-CI, single reference methods and gradients
   Taras Petrenko         : DFT Hessian,TD-DFT gradient, ASA, ECA, R-Raman, ABS, FL, XAS/XES, NRVS
   Peter Pinski           : DLPNO-MP2, DLPNO-MP2 Gradient
   Christoph Reimann      : Effective Core Potentials
   Marius Retegan         : Local ZFS, SOC
   Christoph Riplinger    : Optimizer, TS searches, QM/MM, DLPNO-CCSD(T), (RO)-DLPNO pert. Triples
   Tobias Risthaus        : Range-separated hybrids, TD-DFT gradient, RPA, STAB
   Michael Roemelt        : Original ROCIS implementation
   Masaaki Saitow         : Open-shell DLPNO-CCSD energy and density
   Barbara Sandhoefer     : DKH picture change effects
   Avijit Sen             : IP-ROCIS
   Kantharuban Sivalingam : CASSCF convergence, NEVPT2, FIC-MRCI
   Bernardo de Souza      : ESD, SOC TD-DFT
   Georgi Stoychev        : AutoAux, RI-MP2 NMR, DLPNO-MP2 response
   Willem Van den Heuvel  : Paramagnetic NMR
   Boris Wezisla          : Elementary symmetry handling
   Frank Wennmohs         : Technical directorship


 We gratefully acknowledge several colleagues who have allowed us to
 interface, adapt or use parts of their codes:
   Stefan Grimme, W. Hujo, H. Kruse, P. Pracht,  : VdW corrections, initial TS optimization,
                  C. Bannwarth, S. Ehlert          DFT functionals, gCP, sTDA/sTD-DF
   Ed Valeev, F. Pavosevic, A. Kumar             : LibInt (2-el integral package), F12 methods
   Garnet Chan, S. Sharma, J. Yang, R. Olivares  : DMRG
   Ulf Ekstrom                                   : XCFun DFT Library
   Mihaly Kallay                                 : mrcc  (arbitrary order and MRCC methods)
   Jiri Pittner, Ondrej Demel                    : Mk-CCSD
   Frank Weinhold                                : gennbo (NPA and NBO analysis)
   Christopher J. Cramer and Donald G. Truhlar   : smd solvation model
   Lars Goerigk                                  : TD-DFT with DH, B97 family of functionals
   V. Asgeirsson, H. Jonsson                     : NEB implementation
   FAccTs GmbH                                   : IRC, NEB, NEB-TS, DLPNO-Multilevel, CI-OPT
                                                   MM, QMMM, 2- and 3-layer-ONIOM, Crystal-QMMM,
                                                   LR-CPCM, SF, NACMEs, symmetry and pop. for TD-DFT,
                                                   nearIR, NL-DFT gradient (VV10), updates on ESD,
                                                   ML-optimized integration grids
   S Lehtola, MJT Oliveira, MAL Marques          : LibXC Library
   Liviu Ungur et al                             : ANISO software


 Your calculation uses the libint2 library for the computation of 2-el integrals
 For citations please refer to: http://libint.valeyev.net

 Your ORCA version has been built with support for libXC version: 5.1.0
 For citations please refer to: https://tddft.org/programs/libxc/

 This ORCA versions uses:
   CBLAS   interface :  Fast vector & matrix operations
   LAPACKE interface :  Fast linear algebra routines
   SCALAPACK package :  Parallel linear algebra routines
   Shared memory     :  Shared parallel matrices
   BLAS/LAPACK       :  OpenBLAS 0.3.15  USE64BITINT DYNAMIC_ARCH NO_AFFINITY Zen SINGLE_THREADED
        Core in use  :  Zen
   Copyright (c) 2011-2014, The OpenBLAS Project


Your calculation utilizes the SMD solvation module
Please cite in your paper:
A.V. Marenich, C.J. Cramer, D.G. Truhlar J. Phys. Chem. B, 113, (2009), 6378 

================================================================================

----- Orbital basis set information -----
Your calculation utilizes the basis: def2-TZVP
   F. Weigend and R. Ahlrichs, Phys. Chem. Chem. Phys. 7, 3297 (2005).

----- AuxJ basis set information -----
Your calculation utilizes the auxiliary basis: def2/J
   F. Weigend, Phys. Chem. Chem. Phys. 8, 1057 (2006).

----- AuxC basis set information -----
Your calculation utilizes the auxiliary basis: def2-TZVP/C
  H-La, Hf-Rn : A. Hellweg, C. Hattig, S. Hofener and W. Klopper, Theor. Chem. Acc. 117, 587 (2007).
        Ce-Lu : J. Chmela and M. E. Harding, Mol. Phys. (2018).

================================================================================
                                        WARNINGS
                       Please study these warnings very carefully!
================================================================================

INFO   : Checking CIS options ...
  ===> : (D) CORRECTION FOUND - SETTING MODE=3
  ===> : JK MODE FOUND - ACTIVATING RI-MP2 CODE
  ===> : MP2 AND CIS FOUND - CHECKING
WARNING: CIS(D) and MP2 runs must have the same orbital window
  ===> : adjusting orbital windows

WARNING: No MP2 level density has been requested!
         To caclulate MP2 level properties use
         %mp2 Density relaxed end
         or
         %mp2 Density unrelaxed end
         Otherwise for double-hybrid DFT only the energy is correct!

WARNING: The frozen-core approximation is turned on by default for 
         the MP2 part of double-hybrid DFT.

WARNING:  You are using a Range-Separated Double Hybrid functional with Doubles Correction 
          Changing Mode to RPA_AOINTS 


WARNING: CIS/ROCIS methods need fully converged wavefunctions
  ===> : Setting SCFConvForced true
         You can overwrite this default with %scf ConvForced false 


INFO   : the flag for use of the SHARK integral package has been found!

================================================================================
                                       INPUT FILE
================================================================================
NAME = BOH-Acr_m_M06L_def2TZVP_coords.inp
|  1> %maxcore 3200
|  2> %pal
|  3>  nprocs= 8
|  4> end
|  5> ! RI-wB2PLYP def2-TZVP def2/J def2-TZVP/C RIJCOSX CPCM TightSCF
|  6> %TDDFT DCORR 1
|  7>    NROOTS   30
|  8> 
|  9>    TDA      FALSE
| 10> END
| 11> 
| 12> %CPCM
| 13>    SMD          TRUE
| 14>    SMDsolvent   "ACETONITRILE"
| 15> END
| 16>    
| 17> 
| 18> * xyz 1 1
| 19> C                  -1.10789000    3.65794600    0.41552300
| 20> C                  -1.69725000    2.43847600    0.22388400
| 21> C                  -0.90318500    1.30743000   -0.03603200
| 22> C                   0.51474800    1.44127900   -0.12342700
| 23> C                   1.07669600    2.72230600    0.11122100
| 24> C                   0.28899300    3.80398200    0.37168000
| 25> C                   1.30499300    0.31196400   -0.40730200
| 26> C                   0.68102700   -0.93675500   -0.58472000
| 27> C                  -0.73667200   -1.04250900   -0.45976000
| 28> C                  -1.36088000   -2.29273000   -0.61589200
| 29> H                  -2.43156900   -2.37493100   -0.50646300
| 30> C                  -0.61110600   -3.39870200   -0.90937900
| 31> C                   0.78162600   -3.30928200   -1.07363300
| 32> C                   1.40785300   -2.10861100   -0.91735500
| 33> H                  -1.73136600    4.51950100    0.61592300
| 34> H                  -2.77078600    2.33939400    0.27517400
| 35> H                   2.15152600    2.82824600    0.09071700
| 36> H                   0.73597500    4.77227600    0.55074400
| 37> H                  -1.10516700   -4.35420600   -1.02807900
| 38> H                   1.35198700   -4.19158100   -1.32991500
| 39> H                   2.47648700   -2.03293800   -1.05663800
| 40> N                  -1.47855000    0.07667200   -0.19737600
| 41> C                   2.77031500    0.43557600   -0.51746300
| 42> C                   3.60561500   -0.24449700    0.36675800
| 43> C                   3.34003100    1.23748300   -1.50810600
| 44> C                   4.99543100   -0.13343600    0.29629500
| 45> C                   4.71677400    1.33983800   -1.61160800
| 46> C                   5.53220500    0.66649600   -0.71589600
| 47> H                   5.15173500    1.94952500   -2.39301800
| 48> H                   3.16090000   -0.86130500    1.13936300
| 49> H                   2.69869900    1.76514000   -2.20349100
| 50> C                  -2.91648700   -0.04387400   -0.08772400
| 51> C                  -3.48905800   -0.26548700    1.15020900
| 52> C                  -3.70110500    0.06852100   -1.22706700
| 53> C                  -4.86618500   -0.37708900    1.26413100
| 54> H                  -2.85994100   -0.34942700    2.02740300
| 55> C                  -5.07132100   -0.04156500   -1.12003900
| 56> H                  -3.23486300    0.24150900   -2.18872100
| 57> C                  -5.66390700   -0.26420000    0.12592700
| 58> H                  -5.30724100   -0.54963500    2.23497100
| 59> H                  -5.70343100    0.04318100   -1.99401200
| 60> O                  -7.00839100   -0.35516100    0.13090900
| 61> C                  -7.65015200   -0.57642400    1.37840000
| 62> H                  -8.71513000   -0.61296100    1.16764300
| 63> H                  -7.33925300   -1.52328000    1.82538300
| 64> H                  -7.45003400    0.23613200    2.08016400
| 65> H                   6.60774100    0.76949100   -0.81771100
| 66> B                   5.89393600   -0.88993800    1.32750200
| 67> O                   7.25611000   -0.79016500    1.37766700
| 68> O                   5.27828100   -1.69989600    2.23764400
| 69> H                   7.63084100   -0.19658400    0.71876200
| 70> H                   5.90840000   -2.11960400    2.83441500
| 71> *
| 72> 
| 73> 
| 74>                          ****END OF INPUT****
================================================================================

                       ****************************
                       * Single Point Calculation *
                       ****************************

---------------------------------
CARTESIAN COORDINATES (ANGSTROEM)
---------------------------------
  C     -1.107890    3.657946    0.415523
  C     -1.697250    2.438476    0.223884
  C     -0.903185    1.307430   -0.036032
  C      0.514748    1.441279   -0.123427
  C      1.076696    2.722306    0.111221
  C      0.288993    3.803982    0.371680
  C      1.304993    0.311964   -0.407302
  C      0.681027   -0.936755   -0.584720
  C     -0.736672   -1.042509   -0.459760
  C     -1.360880   -2.292730   -0.615892
  H     -2.431569   -2.374931   -0.506463
  C     -0.611106   -3.398702   -0.909379
  C      0.781626   -3.309282   -1.073633
  C      1.407853   -2.108611   -0.917355
  H     -1.731366    4.519501    0.615923
  H     -2.770786    2.339394    0.275174
  H      2.151526    2.828246    0.090717
  H      0.735975    4.772276    0.550744
  H     -1.105167   -4.354206   -1.028079
  H      1.351987   -4.191581   -1.329915
  H      2.476487   -2.032938   -1.056638
  N     -1.478550    0.076672   -0.197376
  C      2.770315    0.435576   -0.517463
  C      3.605615   -0.244497    0.366758
  C      3.340031    1.237483   -1.508106
  C      4.995431   -0.133436    0.296295
  C      4.716774    1.339838   -1.611608
  C      5.532205    0.666496   -0.715896
  H      5.151735    1.949525   -2.393018
  H      3.160900   -0.861305    1.139363
  H      2.698699    1.765140   -2.203491
  C     -2.916487   -0.043874   -0.087724
  C     -3.489058   -0.265487    1.150209
  C     -3.701105    0.068521   -1.227067
  C     -4.866185   -0.377089    1.264131
  H     -2.859941   -0.349427    2.027403
  C     -5.071321   -0.041565   -1.120039
  H     -3.234863    0.241509   -2.188721
  C     -5.663907   -0.264200    0.125927
  H     -5.307241   -0.549635    2.234971
  H     -5.703431    0.043181   -1.994012
  O     -7.008391   -0.355161    0.130909
  C     -7.650152   -0.576424    1.378400
  H     -8.715130   -0.612961    1.167643
  H     -7.339253   -1.523280    1.825383
  H     -7.450034    0.236132    2.080164
  H      6.607741    0.769491   -0.817711
  B      5.893936   -0.889938    1.327502
  O      7.256110   -0.790165    1.377667
  O      5.278281   -1.699896    2.237644
  H      7.630841   -0.196584    0.718762
  H      5.908400   -2.119604    2.834415

----------------------------
CARTESIAN COORDINATES (A.U.)
----------------------------
  NO LB      ZA    FRAG     MASS         X           Y           Z
   0 C     6.0000    0    12.011   -2.093609    6.912516    0.785225
   1 C     6.0000    0    12.011   -3.207338    4.608052    0.423079
   2 C     6.0000    0    12.011   -1.706772    2.470685   -0.068091
   3 C     6.0000    0    12.011    0.972733    2.723623   -0.233243
   4 C     6.0000    0    12.011    2.034661    5.144413    0.210177
   5 C     6.0000    0    12.011    0.546118    7.188484    0.702373
   6 C     6.0000    0    12.011    2.466079    0.589527   -0.769689
   7 C     6.0000    0    12.011    1.286955   -1.770210   -1.104961
   8 C     6.0000    0    12.011   -1.392108   -1.970057   -0.868820
   9 C     6.0000    0    12.011   -2.571691   -4.332632   -1.163867
  10 H     1.0000    0     1.008   -4.594999   -4.487969   -0.957076
  11 C     6.0000    0    12.011   -1.154823   -6.422616   -1.718477
  12 C     6.0000    0    12.011    1.477059   -6.253637   -2.028872
  13 C     6.0000    0    12.011    2.660457   -3.984697   -1.733550
  14 H     1.0000    0     1.008   -3.271808    8.540619    1.163926
  15 H     1.0000    0     1.008   -5.236027    4.420814    0.520003
  16 H     1.0000    0     1.008    4.065795    5.344610    0.171430
  17 H     1.0000    0     1.008    1.390791    9.018295    1.040755
  18 H     1.0000    0     1.008   -2.088463   -8.228257   -1.942788
  19 H     1.0000    0     1.008    2.554885   -7.920940   -2.513175
  20 H     1.0000    0     1.008    4.679882   -3.841696   -1.996756
  21 N     7.0000    0    14.007   -2.794055    0.144889   -0.372987
  22 C     6.0000    0    12.011    5.235137    0.823119   -0.977863
  23 C     6.0000    0    12.011    6.813625   -0.462032    0.693072
  24 C     6.0000    0    12.011    6.311744    2.338504   -2.849907
  25 C     6.0000    0    12.011    9.439997   -0.252157    0.559916
  26 C     6.0000    0    12.011    8.913411    2.531927   -3.045498
  27 C     6.0000    0    12.011   10.454352    1.259495   -1.352847
  28 H     1.0000    0     1.008    9.735368    3.684068   -4.522149
  29 H     1.0000    0     1.008    5.973235   -1.627631    2.153084
  30 H     1.0000    0     1.008    5.099802    3.335631   -4.163995
  31 C     6.0000    0    12.011   -5.511362   -0.082910   -0.165774
  32 C     6.0000    0    12.011   -6.593364   -0.501698    2.173580
  33 C     6.0000    0    12.011   -6.994075    0.129486   -2.318821
  34 C     6.0000    0    12.011   -9.195757   -0.712595    2.388861
  35 H     1.0000    0     1.008   -5.404505   -0.660321    3.831236
  36 C     6.0000    0    12.011   -9.583408   -0.078546   -2.116567
  37 H     1.0000    0     1.008   -6.113005    0.456386   -4.136083
  38 C     6.0000    0    12.011  -10.703233   -0.499266    0.237968
  39 H     1.0000    0     1.008  -10.029232   -1.038660    4.223483
  40 H     1.0000    0     1.008  -10.777923    0.081600   -3.768137
  41 O     8.0000    0    15.999  -13.243940   -0.671157    0.247382
  42 C     6.0000    0    12.011  -14.456692   -1.089283    2.604799
  43 H     1.0000    0     1.008  -16.469209   -1.158328    2.206525
  44 H     1.0000    0     1.008  -13.869178   -2.878582    3.449474
  45 H     1.0000    0     1.008  -14.078524    0.446225    3.930940
  46 H     1.0000    0     1.008   12.486821    1.454127   -1.545250
  47 B     5.0000    0    10.810   11.137925   -1.681739    2.508615
  48 O     8.0000    0    15.999   13.712061   -1.493195    2.603413
  49 O     8.0000    0    15.999    9.974506   -3.212338    4.228534
  50 H     1.0000    0     1.008   14.420200   -0.371490    1.358263
  51 H     1.0000    0     1.008   11.165258   -4.005471    5.356268

--------------------------------
INTERNAL COORDINATES (ANGSTROEM)
--------------------------------
 C      0   0   0     0.000000000000     0.00000000     0.00000000
 C      1   0   0     1.367910010498     0.00000000     0.00000000
 C      2   1   0     1.406186547154   119.97689744     0.00000000
 C      3   2   1     1.426915356044   119.80243959   358.84269212
 C      4   3   2     1.418405940955   117.92234234     2.44626275
 C      5   4   3     1.363208669231   121.28580874   358.00765350
 C      4   3   2     1.407275575314   119.67549019   181.13040997
 C      7   4   3     1.407163763334   119.24585507   359.24484746
 C      8   7   4     1.427119253853   119.68382331   359.29315751
 C      9   8   7     1.406081568590   119.81295925   180.98879725
 H     10   9   8     1.079401058533   119.78896884   179.07291938
 C     10   9   8     1.368016715917   119.95686680   358.88305480
 C     12  10   9     1.405232271456   121.11986538   359.32326749
 C     13  12  10     1.363155867483   119.86490242     1.13349736
 H      1   2   3     1.082201229255   119.17287590   180.07572453
 H      2   1   3     1.079318048640   120.24643396   179.75898514
 H      5   4   3     1.080232950116   118.66149622   177.36468675
 H      6   5   4     1.081411159021   120.21725373   179.83218476
 H     12  10   9     1.082207861613   119.15114468   180.08300263
 H     13  12  10     1.081408183456   119.90188847   181.53689123
 H     14  13  12     1.080326239140   120.08865248   180.87384969
 N      9   8   7     1.368135388440   119.65980880     1.41615019
 C      7   4   3     1.474647054772   120.38398285   179.25206112
 C     23   7   4     1.393582488470   120.48378361   117.53059795
 C     23   7   4     1.396067588175   120.44188251   297.63054334
 C     24  23   7     1.396025821375   121.72720333   180.78576561
 C     25  23   7     1.384417024627   120.08888173   180.51594509
 C     27  25  23     1.385863323589   120.05879806   358.77139693
 H     27  25  23     1.082363569966   119.68658240   178.92318382
 H     24  23   7     1.084039679216   118.94608374   359.69136434
 H     25  23   7     1.083184629737   119.58669492   359.53990457
 C     22   9   8     1.447141221578   119.02530214   179.33946842
 C     32  22   9     1.381820532594   119.53566605    91.96768128
 C     32  22   9     1.387933901019   119.52296565   271.78759930
 C     33  32  22     1.386330408891   119.87689725   179.75813561
 H     33  32  22     1.082729623186   119.83327208   359.86828929
 C     34  32  22     1.378791429780   119.44650667   180.24294577
 H     34  32  22     1.082628683540   119.91049965     0.22268421
 C     35  33  32     1.394493693503   119.64761683     0.00000000
 H     35  33  32     1.080200362364   119.49275410   180.04228136
 H     37  34  32     1.081930562164   120.77384488   179.96264211
 O     39  35  33     1.347566677423   124.21229145   180.11837150
 C     42  39  35     1.420228253265   117.68443708     0.18954568
 H     43  42  39     1.086246567729   106.13130757   179.73710800
 H     43  42  39     1.092240026380   111.46272299   298.55747655
 H     43  42  39     1.092138809289   111.45048862    60.92111805
 H     28  27  25     1.085242807645   118.44936781   180.33162442
 B     26  24  23     1.563008121501   120.03265970   178.69582975
 O     48  26  24     1.366744008595   124.18157242   183.31925819
 O     48  26  24     1.365071976473   117.89169908     3.18595139
 H     49  48  26     0.962765560740   114.06732541     0.59752550
 H     50  48  26     0.964023021440   112.10281503   180.34412700

---------------------------
INTERNAL COORDINATES (A.U.)
---------------------------
 C      0   0   0     0.000000000000     0.00000000     0.00000000
 C      1   0   0     2.584975295691     0.00000000     0.00000000
 C      2   1   0     2.657307467325   119.97689744     0.00000000
 C      3   2   1     2.696479239210   119.80243959   358.84269212
 C      4   3   2     2.680398775132   117.92234234     2.44626275
 C      5   4   3     2.576091048233   121.28580874   358.00765350
 C      4   3   2     2.659365432300   119.67549019   181.13040997
 C      7   4   3     2.659154138280   119.24585507   359.24484746
 C      8   7   4     2.696864550228   119.68382331   359.29315751
 C      9   8   7     2.657109086590   119.81295925   180.98879725
 H     10   9   8     2.039772389293   119.78896884   179.07291938
 C     10   9   8     2.585176939710   119.95686680   358.88305480
 C     12  10   9     2.655504147599   121.11986538   359.32326749
 C     13  12  10     2.575991267391   119.86490242     1.13349736
 H      1   2   3     2.045063945085   119.17287590   180.07572453
 H      2   1   3     2.039615523328   120.24643396   179.75898514
 H      5   4   3     2.041344436557   118.66149622   177.36468675
 H      6   5   4     2.043570928717   120.21725373   179.83218476
 H     12  10   9     2.045076478425   119.15114468   180.08300263
 H     13  12  10     2.043565305713   119.90188847   181.53689123
 H     14  13  12     2.041520727263   120.08865248   180.87384969
 N      9   8   7     2.585401198277   119.65980880     1.41615019
 C      7   4   3     2.786679077713   120.38398285   179.25206112
 C     23   7   4     2.633489248237   120.48378361   117.53059795
 C     23   7   4     2.638185406096   120.44188251   297.63054334
 C     24  23   7     2.638106478281   121.72720333   180.78576561
 C     25  23   7     2.616169031684   120.08888173   180.51594509
 C     27  25  23     2.618902140629   120.05879806   358.77139693
 H     27  25  23     2.045370724569   119.68658240   178.92318382
 H     24  23   7     2.048538112021   118.94608374   359.69136434
 H     25  23   7     2.046922302675   119.58669492   359.53990457
 C     22   9   8     2.734700585890   119.02530214   179.33946842
 C     32  22   9     2.611262372832   119.53566605    91.96768128
 C     32  22   9     2.622814964911   119.52296565   271.78759930
 C     33  32  22     2.619784803932   119.87689725   179.75813561
 H     33  32  22     2.046062464906   119.83327208   359.86828929
 C     34  32  22     2.605538198083   119.44650667   180.24294577
 H     34  32  22     2.045871716619   119.91049965     0.22268421
 C     35  33  32     2.635211176202   119.64761683     0.00000000
 H     35  33  32     2.041282854631   119.49275410   180.04228136
 H     37  34  32     2.044552458410   120.77384488   179.96264211
 O     39  35  33     2.546531967528   124.21229145   180.11837150
 C     42  39  35     2.683842446327   117.68443708     0.18954568
 H     43  42  39     2.052708526919   106.13130757   179.73710800
 H     43  42  39     2.064034522365   111.46272299   298.55747655
 H     43  42  39     2.063843249784   111.45048862    60.92111805
 H     28  27  25     2.050811695258   118.44936781   180.33162442
 B     26  24  23     2.953657294732   120.03265970   178.69582975
 O     48  26  24     2.582771871422   124.18157242   183.31925819
 O     48  26  24     2.579612188625   117.89169908     3.18595139
 H     49  48  26     1.819363240970   114.06732541     0.59752550
 H     50  48  26     1.821739497317   112.10281503   180.34412700

---------------------
BASIS SET INFORMATION
---------------------
There are 5 groups of distinct atoms

 Group   1 Type C   : 11s6p2d1f contracted to 5s3p2d1f pattern {62111/411/11/1}
 Group   2 Type H   : 5s1p contracted to 3s1p pattern {311/1}
 Group   3 Type N   : 11s6p2d1f contracted to 5s3p2d1f pattern {62111/411/11/1}
 Group   4 Type O   : 11s6p2d1f contracted to 5s3p2d1f pattern {62111/411/11/1}
 Group   5 Type B   : 11s6p2d1f contracted to 5s3p2d1f pattern {62111/411/11/1}

Atom   0C    basis set group =>   1
Atom   1C    basis set group =>   1
Atom   2C    basis set group =>   1
Atom   3C    basis set group =>   1
Atom   4C    basis set group =>   1
Atom   5C    basis set group =>   1
Atom   6C    basis set group =>   1
Atom   7C    basis set group =>   1
Atom   8C    basis set group =>   1
Atom   9C    basis set group =>   1
Atom  10H    basis set group =>   2
Atom  11C    basis set group =>   1
Atom  12C    basis set group =>   1
Atom  13C    basis set group =>   1
Atom  14H    basis set group =>   2
Atom  15H    basis set group =>   2
Atom  16H    basis set group =>   2
Atom  17H    basis set group =>   2
Atom  18H    basis set group =>   2
Atom  19H    basis set group =>   2
Atom  20H    basis set group =>   2
Atom  21N    basis set group =>   3
Atom  22C    basis set group =>   1
Atom  23C    basis set group =>   1
Atom  24C    basis set group =>   1
Atom  25C    basis set group =>   1
Atom  26C    basis set group =>   1
Atom  27C    basis set group =>   1
Atom  28H    basis set group =>   2
Atom  29H    basis set group =>   2
Atom  30H    basis set group =>   2
Atom  31C    basis set group =>   1
Atom  32C    basis set group =>   1
Atom  33C    basis set group =>   1
Atom  34C    basis set group =>   1
Atom  35H    basis set group =>   2
Atom  36C    basis set group =>   1
Atom  37H    basis set group =>   2
Atom  38C    basis set group =>   1
Atom  39H    basis set group =>   2
Atom  40H    basis set group =>   2
Atom  41O    basis set group =>   4
Atom  42C    basis set group =>   1
Atom  43H    basis set group =>   2
Atom  44H    basis set group =>   2
Atom  45H    basis set group =>   2
Atom  46H    basis set group =>   2
Atom  47B    basis set group =>   5
Atom  48O    basis set group =>   4
Atom  49O    basis set group =>   4
Atom  50H    basis set group =>   2
Atom  51H    basis set group =>   2
---------------------------------
AUXILIARY/J BASIS SET INFORMATION
---------------------------------
There are 5 groups of distinct atoms

 Group   1 Type C   : 12s5p4d2f1g contracted to 6s4p3d1f1g pattern {711111/2111/211/2/1}
 Group   2 Type H   : 5s2p1d contracted to 3s1p1d pattern {311/2/1}
 Group   3 Type N   : 12s5p4d2f1g contracted to 6s4p3d1f1g pattern {711111/2111/211/2/1}
 Group   4 Type O   : 12s5p4d2f1g contracted to 6s4p3d1f1g pattern {711111/2111/211/2/1}
 Group   5 Type B   : 12s5p4d2f1g contracted to 6s4p3d1f1g pattern {711111/2111/211/2/1}

Atom   0C    basis set group =>   1
Atom   1C    basis set group =>   1
Atom   2C    basis set group =>   1
Atom   3C    basis set group =>   1
Atom   4C    basis set group =>   1
Atom   5C    basis set group =>   1
Atom   6C    basis set group =>   1
Atom   7C    basis set group =>   1
Atom   8C    basis set group =>   1
Atom   9C    basis set group =>   1
Atom  10H    basis set group =>   2
Atom  11C    basis set group =>   1
Atom  12C    basis set group =>   1
Atom  13C    basis set group =>   1
Atom  14H    basis set group =>   2
Atom  15H    basis set group =>   2
Atom  16H    basis set group =>   2
Atom  17H    basis set group =>   2
Atom  18H    basis set group =>   2
Atom  19H    basis set group =>   2
Atom  20H    basis set group =>   2
Atom  21N    basis set group =>   3
Atom  22C    basis set group =>   1
Atom  23C    basis set group =>   1
Atom  24C    basis set group =>   1
Atom  25C    basis set group =>   1
Atom  26C    basis set group =>   1
Atom  27C    basis set group =>   1
Atom  28H    basis set group =>   2
Atom  29H    basis set group =>   2
Atom  30H    basis set group =>   2
Atom  31C    basis set group =>   1
Atom  32C    basis set group =>   1
Atom  33C    basis set group =>   1
Atom  34C    basis set group =>   1
Atom  35H    basis set group =>   2
Atom  36C    basis set group =>   1
Atom  37H    basis set group =>   2
Atom  38C    basis set group =>   1
Atom  39H    basis set group =>   2
Atom  40H    basis set group =>   2
Atom  41O    basis set group =>   4
Atom  42C    basis set group =>   1
Atom  43H    basis set group =>   2
Atom  44H    basis set group =>   2
Atom  45H    basis set group =>   2
Atom  46H    basis set group =>   2
Atom  47B    basis set group =>   5
Atom  48O    basis set group =>   4
Atom  49O    basis set group =>   4
Atom  50H    basis set group =>   2
Atom  51H    basis set group =>   2
---------------------------------
AUXILIARY/C BASIS SET INFORMATION
---------------------------------
There are 5 groups of distinct atoms

 Group   1 Type C   : 8s6p5d3f1g contracted to 8s6p4d3f1g pattern {11111111/111111/2111/111/1}
 Group   2 Type H   : 4s3p2d contracted to 4s2p1d pattern {1111/21/2}
 Group   3 Type N   : 8s6p5d3f1g contracted to 8s6p4d3f1g pattern {11111111/111111/2111/111/1}
 Group   4 Type O   : 8s6p5d3f1g contracted to 8s6p4d3f1g pattern {11111111/111111/2111/111/1}
 Group   5 Type B   : 8s6p5d3f1g contracted to 8s6p4d3f1g pattern {11111111/111111/2111/111/1}

Atom   0C    basis set group =>   1
Atom   1C    basis set group =>   1
Atom   2C    basis set group =>   1
Atom   3C    basis set group =>   1
Atom   4C    basis set group =>   1
Atom   5C    basis set group =>   1
Atom   6C    basis set group =>   1
Atom   7C    basis set group =>   1
Atom   8C    basis set group =>   1
Atom   9C    basis set group =>   1
Atom  10H    basis set group =>   2
Atom  11C    basis set group =>   1
Atom  12C    basis set group =>   1
Atom  13C    basis set group =>   1
Atom  14H    basis set group =>   2
Atom  15H    basis set group =>   2
Atom  16H    basis set group =>   2
Atom  17H    basis set group =>   2
Atom  18H    basis set group =>   2
Atom  19H    basis set group =>   2
Atom  20H    basis set group =>   2
Atom  21N    basis set group =>   3
Atom  22C    basis set group =>   1
Atom  23C    basis set group =>   1
Atom  24C    basis set group =>   1
Atom  25C    basis set group =>   1
Atom  26C    basis set group =>   1
Atom  27C    basis set group =>   1
Atom  28H    basis set group =>   2
Atom  29H    basis set group =>   2
Atom  30H    basis set group =>   2
Atom  31C    basis set group =>   1
Atom  32C    basis set group =>   1
Atom  33C    basis set group =>   1
Atom  34C    basis set group =>   1
Atom  35H    basis set group =>   2
Atom  36C    basis set group =>   1
Atom  37H    basis set group =>   2
Atom  38C    basis set group =>   1
Atom  39H    basis set group =>   2
Atom  40H    basis set group =>   2
Atom  41O    basis set group =>   4
Atom  42C    basis set group =>   1
Atom  43H    basis set group =>   2
Atom  44H    basis set group =>   2
Atom  45H    basis set group =>   2
Atom  46H    basis set group =>   2
Atom  47B    basis set group =>   5
Atom  48O    basis set group =>   4
Atom  49O    basis set group =>   4
Atom  50H    basis set group =>   2
Atom  51H    basis set group =>   2


           ************************************************************
           *        Program running with 8 parallel MPI-processes     *
           *              working on a common directory               *
           ************************************************************
------------------------------------------------------------------------------
                           ORCA GTO INTEGRAL CALCULATION
                           -- RI-GTO INTEGRALS CHOSEN --
------------------------------------------------------------------------------
------------------------------------------------------------------------------
                   ___                                                        
                  /   \      - P O W E R E D   B Y -                         
                 /     \                                                     
                 |  |  |   _    _      __       _____    __    __             
                 |  |  |  | |  | |    /  \     |  _  \  |  |  /  |          
                  \  \/   | |  | |   /    \    | | | |  |  | /  /          
                 / \  \   | |__| |  /  /\  \   | |_| |  |  |/  /          
                |  |  |   |  __  | /  /__\  \  |    /   |      \           
                |  |  |   | |  | | |   __   |  |    \   |  |\   \          
                \     /   | |  | | |  |  |  |  | |\  \  |  | \   \       
                 \___/    |_|  |_| |__|  |__|  |_| \__\ |__|  \__/        
                                                                              
                      - O R C A' S   B I G   F R I E N D -                    
                                      &                                       
                       - I N T E G R A L  F E E D E R -                       
                                                                              
 v1 FN, 2020, v2 2021                                                         
------------------------------------------------------------------------------


Reading SHARK input file BOH-Acr_m_M06L_def2TZVP_coords.SHARKINP.tmp ... ok
----------------------
SHARK INTEGRAL PACKAGE
----------------------

Number of atoms                             ...     52
Number of basis functions                   ...   1087
Number of shells                            ...    425
Maximum angular momentum                    ...      3
Integral batch strategy                     ... SHARK/LIBINT Hybrid
RI-J (if used) integral strategy            ... SPLIT-RIJ (Revised 2003 algorithm where possible)
Printlevel                                  ...      1
Contraction scheme used                     ... SEGMENTED contraction
Coulomb Range Separation                    ... NOT USED
Exchange Range Separation                   ... Long Range
   Mu parameter                             ...  0.300000
   Scaling (regular/separated)              ...  0.530000  0.470000
Finite Nucleus Model                        ... NOT USED
Auxiliary Coulomb fitting basis             ... AVAILABLE
   # of basis functions in Aux-J            ...   1750
   # of shells in Aux-J                     ...    570
   Maximum angular momentum in Aux-J        ...      4
Auxiliary J/K fitting basis                 ... NOT available
Auxiliary Correlation fitting basis         ... AVAILABLE
   # of basis functions in Aux-C            ...   2671
   # of shells in Aux-C                     ...    829
   Maximum angular momentum in Aux-C        ...      4
Auxiliary 'external' fitting basis          ... NOT available
Integral threshold                          ...     2.500000e-11
Primitive cut-off                           ...     2.500000e-12
Primitive pair pre-selection threshold      ...     2.500000e-12

Calculating pre-screening integrals         ... done (  0.1 sec) Dimension = 425
Organizing shell pair data                  ... done (  0.7 sec)
Shell pair information
Total number of shell pairs                 ...     90525
Shell pairs after pre-screening             ...     55238
Total number of primitive shell pairs       ...    279376
Primitive shell pairs kept                  ...    110316
          la=0 lb=0:  13827 shell pairs
          la=1 lb=0:  15979 shell pairs
          la=1 lb=1:   4613 shell pairs
          la=2 lb=0:   7866 shell pairs
          la=2 lb=1:   4618 shell pairs
          la=2 lb=2:   1164 shell pairs
          la=3 lb=0:   3673 shell pairs
          la=3 lb=1:   2180 shell pairs
          la=3 lb=2:   1053 shell pairs
          la=3 lb=3:    265 shell pairs

Calculating one electron integrals          ... done (  0.1 sec)
Calculating RI/J V-Matrix + Cholesky decomp.... done (  0.1 sec)
Calculating RI/C V-Matrix + Cholesky decomp.... done (  0.2 sec)
Calculating Nuclear repulsion               ... done (  0.0 sec) ENN=   2790.261668379358 Eh

SHARK setup successfully completed in   1.7 seconds

Maximum memory used throughout the entire GTOINT-calculation: 92.2 MB


           ************************************************************
           *        Program running with 8 parallel MPI-processes     *
           *              working on a common directory               *
           ************************************************************
-------------------------------------------------------------------------------
                                 ORCA SCF
-------------------------------------------------------------------------------

------------
SCF SETTINGS
------------
Hamiltonian:
 Density Functional     Method          .... DFT(GTOs)
 Exchange Functional    Exchange        .... WB88
 Correlation Functional Correlation     .... LYP
 LDA part of GGA corr.  LDAOpt          .... VWN-3
 Gradients option       PostSCFGGA      .... off
 Hybrid DFT is turned on
   Fraction HF Exchange ScalHFX         ....  0.530000
   Scaling of DF-GGA-X  ScalDFX         ....  0.000000
   Scaling of DF-GGA-C  ScalDFC         ....  0.730000
   Scaling of DF-LDA-C  ScalLDAC        ....  0.730000
   Perturbative correction              ....  0.270000
   Density functional embedding theory  .... OFF
 Long-range corrected/Screened/Range-Separated Hybrid DFT is turned on
   Amount of maximum screened exact exchange              ....  0.470000
   Range separation parameter mu (erf(mu*r12)/r12)        ....  0.300000
 RI-approximation to the Coulomb term is turned on
   Number of AuxJ basis functions       .... 1750
   RIJ-COSX (HFX calculated with COS-X)).... on


General Settings:
 Integral files         IntName         .... BOH-Acr_m_M06L_def2TZVP_coords
 Hartree-Fock type      HFTyp           .... RHF
 Total Charge           Charge          ....    1
 Multiplicity           Mult            ....    1
 Number of Electrons    NEL             ....  212
 Basis Dimension        Dim             .... 1087
 Nuclear Repulsion      ENuc            ....   2790.2616683794 Eh

Convergence Acceleration:
 DIIS                   CNVDIIS         .... on
   Start iteration      DIISMaxIt       ....    12
   Startup error        DIISStart       ....  0.200000
   # of expansion vecs  DIISMaxEq       ....     5
   Bias factor          DIISBfac        ....   1.050
   Max. coefficient     DIISMaxC        ....  10.000
 Trust-Rad. Augm. Hess. CNVTRAH         .... auto
   Auto Start mean grad. ratio tolernc. ....  1.125000
   Auto Start start iteration           ....    20
   Auto Start num. interpolation iter.  ....    10
   Max. Number of Micro iterations      ....    16
   Max. Number of Macro iterations      .... Maxiter - #DIIS iter
   Number of Davidson start vectors     ....     2
   Converg. threshold I  (grad. norm)   ....   1.000e-05
   Converg. threshold II (energy diff.) ....   1.000e-08
   Grad. Scal. Fac. for Micro threshold ....   0.100
   Minimum threshold for Micro iter.    ....   0.010
   NR start threshold (gradient norm)   ....   0.001
   Initial trust radius                 ....   0.400
   Minimum AH scaling param. (alpha)    ....   1.000
   Maximum AH scaling param. (alpha)    .... 1000.000
   Orbital update algorithm             .... Taylor
   White noise on init. David. guess    .... on
   Maximum white noise                  ....   0.010
   Quad. conv. algorithm                .... NR
 SOSCF                  CNVSOSCF        .... on
   Start iteration      SOSCFMaxIt      ....   150
   Startup grad/error   SOSCFStart      ....  0.003300
 Level Shifting         CNVShift        .... on
   Level shift para.    LevelShift      ....    0.2500
   Turn off err/grad.   ShiftErr        ....    0.0010
 Zerner damping         CNVZerner       .... off
 Static damping         CNVDamp         .... on
   Fraction old density DampFac         ....    0.7000
   Max. Damping (<1)    DampMax         ....    0.9800
   Min. Damping (>=0)   DampMin         ....    0.0000
   Turn off err/grad.   DampErr         ....    0.1000
 Fernandez-Rico         CNVRico         .... off

SCF Procedure:
 Maximum # iterations   MaxIter         ....   125
 SCF integral mode      SCFMode         .... Direct
   Integral package                     .... SHARK and LIBINT hybrid scheme
 Reset frequency        DirectResetFreq ....    20
 Integral Threshold     Thresh          ....  2.500e-11 Eh
 Primitive CutOff       TCut            ....  2.500e-12 Eh

Convergence Tolerance:
 Convergence Check Mode ConvCheckMode   .... Total+1el-Energy
 Convergence forced     ConvForced      .... 1
 Energy Change          TolE            ....  1.000e-08 Eh
 1-El. energy change                    ....  1.000e-05 Eh
 Orbital Gradient       TolG            ....  1.000e-05
 Orbital Rotation angle TolX            ....  1.000e-05
 DIIS Error             TolErr          ....  5.000e-07


Diagonalization of the overlap matrix:
Smallest eigenvalue                        ... 4.730e-06
Time for diagonalization                   ...    0.162 sec
Threshold for overlap eigenvalues          ... 1.000e-08
Number of eigenvalues below threshold      ... 0
Time for construction of square roots      ...    0.104 sec
Total time needed                          ...    0.269 sec

Time for model grid setup =    0.349 sec

------------------------------
INITIAL GUESS: MODEL POTENTIAL
------------------------------
Loading Hartree-Fock densities                     ... done
Calculating cut-offs                               ... done
Initializing the effective Hamiltonian             ... done
Setting up the integral package (SHARK)            ... done
Starting the Coulomb interaction                   ... done (   0.8 sec)
Reading the grid                                   ... done
Mapping shells                                     ... done
Starting the XC term evaluation                    ... done (   0.4 sec)
  promolecular density results
     # of electrons  =    212.988088447
     EX              =   -174.183627094
     EC              =     -2.438166393
     EX+EC           =   -176.621793487
Transforming the Hamiltonian                       ... done (   0.1 sec)
Diagonalizing the Hamiltonian                      ... done (   0.1 sec)
Back transforming the eigenvectors                 ... done (   0.0 sec)
Now organizing SCF variables                       ... done
                      ------------------
                      INITIAL GUESS DONE (   1.7 sec)
                      ------------------
-------------------
DFT GRID GENERATION
-------------------

General Integration Accuracy     IntAcc      ... 4.388
Radial Grid Type                 RadialGrid  ... OptM3 with GC (2021)
Angular Grid (max. ang.)         AngularGrid ... 4 (Lebedev-302)
Angular grid pruning method      GridPruning ... 4 (adaptive)
Weight generation scheme         WeightScheme... Becke
Basis function cutoff            BFCut       ... 1.0000e-11
Integration weight cutoff        WCut        ... 1.0000e-14
Angular grids for H and He will be reduced by one unit
Partially contracted basis set               ... off
Rotationally invariant grid construction     ... off

Total number of grid points                  ...   251101
Total number of batches                      ...     3950
Average number of points per batch           ...       63
Average number of grid points per atom       ...     4829
Time for grid setup =    1.472 sec

--------------------
COSX GRID GENERATION
--------------------

GRIDX 1
-------
General Integration Accuracy     IntAcc      ... 3.816
Radial Grid Type                 RadialGrid  ... OptM3 with GC (2021)
Angular Grid (max. ang.)         AngularGrid ... 1 (Lebedev-50)
Angular grid pruning method      GridPruning ... 4 (adaptive)
Weight generation scheme         WeightScheme... Becke
Basis function cutoff            BFCut       ... 1.0000e-11
Integration weight cutoff        WCut        ... 1.0000e-14
Angular grids for H and He will be reduced by one unit
Partially contracted basis set               ... on
Rotationally invariant grid construction     ... off

Total number of grid points                  ...    31884
Total number of batches                      ...      523
Average number of points per batch           ...       60
Average number of grid points per atom       ...      613
UseSFitting                                  ... on

GRIDX 2
-------
General Integration Accuracy     IntAcc      ... 4.020
Radial Grid Type                 RadialGrid  ... OptM3 with GC (2021)
Angular Grid (max. ang.)         AngularGrid ... 2 (Lebedev-110)
Angular grid pruning method      GridPruning ... 4 (adaptive)
Weight generation scheme         WeightScheme... Becke
Basis function cutoff            BFCut       ... 1.0000e-11
Integration weight cutoff        WCut        ... 1.0000e-14
Angular grids for H and He will be reduced by one unit
Partially contracted basis set               ... on
Rotationally invariant grid construction     ... off

Total number of grid points                  ...    69335
Total number of batches                      ...     1111
Average number of points per batch           ...       62
Average number of grid points per atom       ...     1333
UseSFitting                                  ... on

GRIDX 3
-------
General Integration Accuracy     IntAcc      ... 4.338
Radial Grid Type                 RadialGrid  ... OptM3 with GC (2021)
Angular Grid (max. ang.)         AngularGrid ... 3 (Lebedev-194)
Angular grid pruning method      GridPruning ... 4 (adaptive)
Weight generation scheme         WeightScheme... Becke
Basis function cutoff            BFCut       ... 1.0000e-11
Integration weight cutoff        WCut        ... 1.0000e-14
Angular grids for H and He will be reduced by one unit
Partially contracted basis set               ... on
Rotationally invariant grid construction     ... off

Total number of grid points                  ...   151504
Total number of batches                      ...     2393
Average number of points per batch           ...       63
Average number of grid points per atom       ...     2914
UseSFitting                                  ... on

Time for X-Grid setup             =    1.973 sec


--------------------
CPCM SOLVATION MODEL
--------------------
CPCM parameters:
  Epsilon                                         ...      35.6880
  Refrac                                          ...       1.3442
  Rsolv                                           ...       1.3000
  Surface type                                    ... GAUSSIAN VDW
  Epsilon function type                           ...         CPCM
Solvent:                                     ... ACETONITRILE
SMD-CDS solvent descriptors:
  Soln                                       ...    1.3442
  Soln25                                     ...    1.3416
  Sola                                       ...    0.0700
  Solb                                       ...    0.3200
  Solg                                       ...   41.2500
  Solc                                       ...    0.0000
  Solh                                       ...    0.0000
Radii:
 Radius for C  used is    3.4960 Bohr (=   1.8500 Ang.)
 Radius for H  used is    2.2677 Bohr (=   1.2000 Ang.)
 Radius for N  used is    3.5716 Bohr (=   1.8900 Ang.)
 Radius for O  used is    4.0969 Bohr (=   2.1680 Ang.)
 Radius for B  used is    3.6283 Bohr (=   1.9200 Ang.)
Calculating surface                               ...        done! (  0.0s)
GEPOL surface points                              ...         2792
GEPOL Volume                                      ...    2961.0348
GEPOL Surface-area                                ...    1569.7104
Calculating surface distance matrix               ...        done! (  0.0s)
Performing Cholesky decomposition & store         ...        done! (  0.2s)
Overall time for CPCM initialization              ...                 0.3s
--------------
SCF ITERATIONS
--------------
ITER       Energy         Delta-E        Max-DP      RMS-DP      [F,P]     Damp
               ***  Starting incremental Fock matrix formation  ***
  0  -1304.3478361547   0.000000000000 0.05095290  0.00057289  0.2981929 0.7000
  1  -1304.6398208952  -0.291984740544 0.04066854  0.00048462  0.1632380 0.7000
                               ***Turning on DIIS***
  2  -1304.8063088344  -0.166487939222 0.09260658  0.00111256  0.0764541 0.0000
  3  -1305.1127314666  -0.306422632134 0.04049114  0.00028230  0.0655983 0.0000
  4  -1305.1380211650  -0.025289698399 0.00975922  0.00009522  0.0094334 0.0000
  5  -1305.1390856628  -0.001064497825 0.00525467  0.00004657  0.0046077 0.0000
                      *** Initiating the SOSCF procedure ***
                           *** Shutting down DIIS ***
                      *** Re-Reading the Fockian *** 
                      *** Removing any level shift *** 
ITER      Energy       Delta-E        Grad      Rot      Max-DP    RMS-DP
  6  -1305.13934445  -0.0002587877  0.001809  0.001809  0.002180  0.000023
               *** Restarting incremental Fock matrix formation ***
  7  -1305.13923222   0.0001122339  0.001211  0.004219  0.015022  0.000163
  8  -1305.13927906  -0.0000468433  0.000671  0.006206  0.007430  0.000085
  9  -1305.13930119  -0.0000221258  0.000230  0.000407  0.006752  0.000073
 10  -1305.13930421  -0.0000030277  0.000087  0.000154  0.000406  0.000006
 11  -1305.13930476  -0.0000005444  0.000038  0.000272  0.000350  0.000004
 12  -1305.13930490  -0.0000001469  0.000017  0.000157  0.000241  0.000002
 13  -1305.13930494  -0.0000000326  0.000008  0.000034  0.000140  0.000001
 14  -1305.13930495  -0.0000000128  0.000003  0.000008  0.000159  0.000002
                  ***Gradient check signals convergence***
              ***Rediagonalizing the Fockian in SOSCF/NRSCF***

               *****************************************************
               *                     SUCCESS                       *
               *           SCF CONVERGED AFTER  15 CYCLES          *
               *****************************************************

Old exchange energy                            =   -109.753196735 Eh
New exchange energy                            =   -109.753193087 Eh
Exchange energy change after final integration =      0.000003648 Eh
Total energy after final integration           =  -1305.139301281 Eh
Final COS-X integration done in                =    72.877 sec

SMD CDS free energy correction energy :                -5.65951     Kcal/mol
Total Energy after SMD CDS correction =             -1305.148320281 Eh

----------------
TOTAL SCF ENERGY
----------------

Total Energy       :        -1305.14832028 Eh          -35514.89134 eV

Components:
Nuclear Repulsion  :         2790.26166838 Eh           75926.88004 eV
Electronic Energy  :        -4095.40998866 Eh         -111441.77138 eV
One Electron Energy:        -7297.08699539 Eh         -198563.83193 eV
Two Electron Energy:         3201.67700673 Eh           87122.06055 eV
Max COSX asymmetry :            0.00000510 Eh               0.00014 eV
CPCM Dielectric    :           -0.08344745 Eh              -2.27072 eV
SMD CDS (Gcds)     :           -0.00901900 Eh              -0.24542 eV

Virial components:
Potential Energy   :        -2605.93934715 Eh          -70911.21469 eV
Kinetic Energy     :         1300.79102686 Eh           35396.32336 eV
Virial Ratio       :            2.00334973


DFT components:
N(Alpha)           :      106.000138034436 electrons
N(Beta)            :      106.000138034436 electrons
N(Total)           :      212.000276068871 electrons
E(X)               :      -66.774210889993 Eh       
E(C)               :       -5.305106786099 Eh       
E(XC)              :      -72.079317676092 Eh       
DFET-embed. en.    :        0.000000000000 Eh       
CPCM Solvation Model Properties:
Surface-charge          :           -1.05331431
Charge-correction       :            0.00520212 Eh               0.14156 eV
Free-energy (cav+disp)  :           -0.00901900 Eh              -0.24542 eV

---------------
SCF CONVERGENCE
---------------

  Last Energy change         ...    2.0395e-08  Tolerance :   1.0000e-08
  Last MAX-Density change    ...    2.4425e-15  Tolerance :   1.0000e-07
  Last RMS-Density change    ...    1.1824e-17  Tolerance :   5.0000e-09
  Last Orbital Gradient      ...    8.6677e-07  Tolerance :   1.0000e-05
  Last Orbital Rotation      ...    3.6262e-06  Tolerance :   1.0000e-05

             **** THE GBW FILE WAS UPDATED (BOH-Acr_m_M06L_def2TZVP_coords.gbw) ****
             **** DENSITY BOH-Acr_m_M06L_def2TZVP_coords.scfp WAS UPDATED ****
             **** ENERGY FILE WAS UPDATED (BOH-Acr_m_M06L_def2TZVP_coords.en.tmp) ****
             **** THE GBW FILE WAS UPDATED (BOH-Acr_m_M06L_def2TZVP_coords.gbw) ****
             **** DENSITY BOH-Acr_m_M06L_def2TZVP_coords.scfp WAS UPDATED ****
----------------
ORBITAL ENERGIES
----------------

  NO   OCC          E(Eh)            E(eV) 
   0   2.0000     -19.832552      -539.6712 
   1   2.0000     -19.810373      -539.0676 
   2   2.0000     -19.805534      -538.9360 
   3   2.0000     -15.012467      -408.5100 
   4   2.0000     -10.782857      -293.4165 
   5   2.0000     -10.782825      -293.4156 
   6   2.0000     -10.770339      -293.0758 
   7   2.0000     -10.765234      -292.9369 
   8   2.0000     -10.737824      -292.1910 
   9   2.0000     -10.733145      -292.0637 
  10   2.0000     -10.733119      -292.0630 
  11   2.0000     -10.726962      -291.8955 
  12   2.0000     -10.717625      -291.6414 
  13   2.0000     -10.717590      -291.6405 
  14   2.0000     -10.716594      -291.6133 
  15   2.0000     -10.713666      -291.5337 
  16   2.0000     -10.713564      -291.5309 
  17   2.0000     -10.707108      -291.3552 
  18   2.0000     -10.706220      -291.3311 
  19   2.0000     -10.706047      -291.3264 
  20   2.0000     -10.705488      -291.3111 
  21   2.0000     -10.705444      -291.3099 
  22   2.0000     -10.704653      -291.2884 
  23   2.0000     -10.702393      -291.2269 
  24   2.0000     -10.701246      -291.1957 
  25   2.0000     -10.701143      -291.1929 
  26   2.0000     -10.695395      -291.0365 
  27   2.0000     -10.695155      -291.0300 
  28   2.0000     -10.693956      -290.9973 
  29   2.0000     -10.682850      -290.6951 
  30   2.0000      -7.212532      -196.2630 
  31   2.0000      -1.302204       -35.4348 
  32   2.0000      -1.266131       -34.4532 
  33   2.0000      -1.251460       -34.0539 
  34   2.0000      -1.228059       -33.4172 
  35   2.0000      -1.115836       -30.3634 
  36   2.0000      -1.098674       -29.8964 
  37   2.0000      -1.083142       -29.4738 
  38   2.0000      -1.069611       -29.1056 
  39   2.0000      -1.037925       -28.2434 
  40   2.0000      -0.988026       -26.8855 
  41   2.0000      -0.974678       -26.5223 
  42   2.0000      -0.970276       -26.4026 
  43   2.0000      -0.962160       -26.1817 
  44   2.0000      -0.954364       -25.9696 
  45   2.0000      -0.952882       -25.9292 
  46   2.0000      -0.936387       -25.4804 
  47   2.0000      -0.887477       -24.1495 
  48   2.0000      -0.867225       -23.5984 
  49   2.0000      -0.841637       -22.9021 
  50   2.0000      -0.828985       -22.5578 
  51   2.0000      -0.801947       -21.8221 
  52   2.0000      -0.793296       -21.5867 
  53   2.0000      -0.786173       -21.3929 
  54   2.0000      -0.782215       -21.2851 
  55   2.0000      -0.755246       -20.5513 
  56   2.0000      -0.736117       -20.0308 
  57   2.0000      -0.734743       -19.9934 
  58   2.0000      -0.720583       -19.6081 
  59   2.0000      -0.710626       -19.3371 
  60   2.0000      -0.703550       -19.1446 
  61   2.0000      -0.682617       -18.5749 
  62   2.0000      -0.669887       -18.2286 
  63   2.0000      -0.662579       -18.0297 
  64   2.0000      -0.650995       -17.7145 
  65   2.0000      -0.639321       -17.3968 
  66   2.0000      -0.633631       -17.2420 
  67   2.0000      -0.630474       -17.1561 
  68   2.0000      -0.622785       -16.9468 
  69   2.0000      -0.619482       -16.8570 
  70   2.0000      -0.602759       -16.4019 
  71   2.0000      -0.600198       -16.3322 
  72   2.0000      -0.597902       -16.2697 
  73   2.0000      -0.593788       -16.1578 
  74   2.0000      -0.590580       -16.0705 
  75   2.0000      -0.586021       -15.9464 
  76   2.0000      -0.577319       -15.7097 
  77   2.0000      -0.575766       -15.6674 
  78   2.0000      -0.565929       -15.3997 
  79   2.0000      -0.553424       -15.0594 
  80   2.0000      -0.549487       -14.9523 
  81   2.0000      -0.542669       -14.7668 
  82   2.0000      -0.531032       -14.4501 
  83   2.0000      -0.526182       -14.3181 
  84   2.0000      -0.524943       -14.2844 
  85   2.0000      -0.524114       -14.2619 
  86   2.0000      -0.521591       -14.1932 
  87   2.0000      -0.512048       -13.9335 
  88   2.0000      -0.506536       -13.7836 
  89   2.0000      -0.499167       -13.5830 
  90   2.0000      -0.496838       -13.5196 
  91   2.0000      -0.494576       -13.4581 
  92   2.0000      -0.481544       -13.1035 
  93   2.0000      -0.472213       -12.8496 
  94   2.0000      -0.471163       -12.8210 
  95   2.0000      -0.464026       -12.6268 
  96   2.0000      -0.460636       -12.5345 
  97   2.0000      -0.458588       -12.4788 
  98   2.0000      -0.435602       -11.8533 
  99   2.0000      -0.386751       -10.5240 
 100   2.0000      -0.366300        -9.9675 
 101   2.0000      -0.362498        -9.8641 
 102   2.0000      -0.361783        -9.8446 
 103   2.0000      -0.356185        -9.6923 
 104   2.0000      -0.334548        -9.1035 
 105   2.0000      -0.324527        -8.8308 
 106   0.0000      -0.036664        -0.9977 
 107   0.0000       0.040176         1.0932 
 108   0.0000       0.049747         1.3537 
 109   0.0000       0.062996         1.7142 
 110   0.0000       0.071332         1.9410 
 111   0.0000       0.082525         2.2456 
 112   0.0000       0.090506         2.4628 
 113   0.0000       0.098395         2.6775 
 114   0.0000       0.100730         2.7410 
 115   0.0000       0.120490         3.2787 
 116   0.0000       0.127537         3.4705 
 117   0.0000       0.132405         3.6029 
 118   0.0000       0.138564         3.7705 
 119   0.0000       0.142263         3.8712 
 120   0.0000       0.142970         3.8904 
 121   0.0000       0.145445         3.9578 
 122   0.0000       0.151644         4.1265 
 123   0.0000       0.155100         4.2205 
 124   0.0000       0.158882         4.3234 
 125   0.0000       0.159942         4.3522 
 126   0.0000       0.168822         4.5939 
 127   0.0000       0.171045         4.6544 
 128   0.0000       0.175480         4.7751 
 129   0.0000       0.181598         4.9415 
 130   0.0000       0.185165         5.0386 
 131   0.0000       0.189298         5.1510 
 132   0.0000       0.194357         5.2887 
 133   0.0000       0.197377         5.3709 
 134   0.0000       0.202523         5.5109 
 135   0.0000       0.205809         5.6003 
 136   0.0000       0.207406         5.6438 
 137   0.0000       0.211162         5.7460 
 138   0.0000       0.216919         5.9027 
 139   0.0000       0.223447         6.0803 
 140   0.0000       0.228480         6.2173 
 141   0.0000       0.230182         6.2636 
 142   0.0000       0.242292         6.5931 
 143   0.0000       0.245189         6.6719 
 144   0.0000       0.250009         6.8031 
 145   0.0000       0.253041         6.8856 
 146   0.0000       0.255369         6.9489 
 147   0.0000       0.261226         7.1083 
 148   0.0000       0.267015         7.2658 
 149   0.0000       0.269177         7.3247 
 150   0.0000       0.276440         7.5223 
 151   0.0000       0.284449         7.7403 
 152   0.0000       0.286147         7.7865 
 153   0.0000       0.289738         7.8842 
 154   0.0000       0.293999         8.0001 
 155   0.0000       0.295166         8.0319 
 156   0.0000       0.298309         8.1174 
 157   0.0000       0.301730         8.2105 
 158   0.0000       0.303930         8.2704 
 159   0.0000       0.307921         8.3789 
 160   0.0000       0.313501         8.5308 
 161   0.0000       0.317288         8.6338 
 162   0.0000       0.320898         8.7321 
 163   0.0000       0.325495         8.8572 
 164   0.0000       0.327889         8.9223 
 165   0.0000       0.329265         8.9598 
 166   0.0000       0.332043         9.0354 
 167   0.0000       0.333764         9.0822 
 168   0.0000       0.338804         9.2193 
 169   0.0000       0.342660         9.3242 
 170   0.0000       0.346048         9.4164 
 171   0.0000       0.347842         9.4653 
 172   0.0000       0.352398         9.5892 
 173   0.0000       0.356172         9.6919 
 174   0.0000       0.360884         9.8202 
 175   0.0000       0.366015         9.9598 
 176   0.0000       0.368397        10.0246 
 177   0.0000       0.374212        10.1828 
 178   0.0000       0.375607        10.2208 
 179   0.0000       0.376817        10.2537 
 180   0.0000       0.382594        10.4109 
 181   0.0000       0.386258        10.5106 
 182   0.0000       0.389571        10.6008 
 183   0.0000       0.394905        10.7459 
 184   0.0000       0.397520        10.8171 
 185   0.0000       0.401547        10.9267 
 186   0.0000       0.403541        10.9809 
 187   0.0000       0.404841        11.0163 
 188   0.0000       0.409188        11.1346 
 189   0.0000       0.413148        11.2423 
 190   0.0000       0.421836        11.4787 
 191   0.0000       0.423832        11.5331 
 192   0.0000       0.429076        11.6758 
 193   0.0000       0.432842        11.7782 
 194   0.0000       0.435817        11.8592 
 195   0.0000       0.438932        11.9440 
 196   0.0000       0.441771        12.0212 
 197   0.0000       0.451366        12.2823 
 198   0.0000       0.453025        12.3274 
 199   0.0000       0.454690        12.3727 
 200   0.0000       0.458344        12.4722 
 201   0.0000       0.462702        12.5908 
 202   0.0000       0.465687        12.6720 
 203   0.0000       0.468718        12.7545 
 204   0.0000       0.472924        12.8689 
 205   0.0000       0.474888        12.9224 
 206   0.0000       0.477973        13.0063 
 207   0.0000       0.479352        13.0438 
 208   0.0000       0.483627        13.1601 
 209   0.0000       0.488193        13.2844 
 210   0.0000       0.495489        13.4829 
 211   0.0000       0.497060        13.5257 
 212   0.0000       0.501351        13.6425 
 213   0.0000       0.505841        13.7646 
 214   0.0000       0.506459        13.7815 
 215   0.0000       0.509085        13.8529 
 216   0.0000       0.514561        14.0019 
 217   0.0000       0.515811        14.0359 
 218   0.0000       0.516543        14.0559 
 219   0.0000       0.523042        14.2327 
 220   0.0000       0.523600        14.2479 
 221   0.0000       0.527351        14.3500 
 222   0.0000       0.528444        14.3797 
 223   0.0000       0.533072        14.5056 
 224   0.0000       0.534109        14.5338 
 225   0.0000       0.536852        14.6085 
 226   0.0000       0.539837        14.6897 
 227   0.0000       0.545991        14.8572 
 228   0.0000       0.547904        14.9092 
 229   0.0000       0.552970        15.0471 
 230   0.0000       0.554886        15.0992 
 231   0.0000       0.560350        15.2479 
 232   0.0000       0.561821        15.2879 
 233   0.0000       0.564676        15.3656 
 234   0.0000       0.566934        15.4271 
 235   0.0000       0.569304        15.4915 
 236   0.0000       0.573802        15.6139 
 237   0.0000       0.577982        15.7277 
 238   0.0000       0.583358        15.8740 
 239   0.0000       0.584214        15.8973 
 240   0.0000       0.586117        15.9491 
 241   0.0000       0.587650        15.9908 
 242   0.0000       0.592395        16.1199 
 243   0.0000       0.597222        16.2512 
 244   0.0000       0.598528        16.2868 
 245   0.0000       0.601842        16.3770 
 246   0.0000       0.606954        16.5161 
 247   0.0000       0.609785        16.5931 
 248   0.0000       0.612768        16.6743 
 249   0.0000       0.614971        16.7342 
 250   0.0000       0.616479        16.7752 
 251   0.0000       0.620657        16.8889 
 252   0.0000       0.621761        16.9190 
 253   0.0000       0.627102        17.0643 
 254   0.0000       0.631720        17.1900 
 255   0.0000       0.643632        17.5141 
 256   0.0000       0.645831        17.5740 
 257   0.0000       0.654683        17.8148 
 258   0.0000       0.657641        17.8953 
 259   0.0000       0.663831        18.0638 
 260   0.0000       0.665933        18.1210 
 261   0.0000       0.668490        18.1905 
 262   0.0000       0.672858        18.3094 
 263   0.0000       0.678366        18.4593 
 264   0.0000       0.679800        18.4983 
 265   0.0000       0.688638        18.7388 
 266   0.0000       0.700911        19.0728 
 267   0.0000       0.702811        19.1245 
 268   0.0000       0.704961        19.1830 
 269   0.0000       0.710783        19.3414 
 270   0.0000       0.712364        19.3844 
 271   0.0000       0.722171        19.6513 
 272   0.0000       0.724067        19.7029 
 273   0.0000       0.727007        19.7829 
 274   0.0000       0.731109        19.8945 
 275   0.0000       0.734511        19.9871 
 276   0.0000       0.746777        20.3208 
 277   0.0000       0.748475        20.3670 
 278   0.0000       0.750496        20.4220 
 279   0.0000       0.752955        20.4889 
 280   0.0000       0.755511        20.5585 
 281   0.0000       0.763529        20.7767 
 282   0.0000       0.767457        20.8836 
 283   0.0000       0.771696        20.9989 
 284   0.0000       0.775155        21.0930 
 285   0.0000       0.780725        21.2446 
 286   0.0000       0.782786        21.3007 
 287   0.0000       0.786739        21.4082 
 288   0.0000       0.790558        21.5122 
 289   0.0000       0.791863        21.5477 
 290   0.0000       0.797088        21.6899 
 291   0.0000       0.799694        21.7608 
 292   0.0000       0.804385        21.8884 
 293   0.0000       0.805759        21.9258 
 294   0.0000       0.814594        22.1662 
 295   0.0000       0.821299        22.3487 
 296   0.0000       0.826303        22.4848 
 297   0.0000       0.830537        22.6001 
 298   0.0000       0.835304        22.7298 
 299   0.0000       0.839514        22.8443 
 300   0.0000       0.843699        22.9582 
 301   0.0000       0.845255        23.0005 
 302   0.0000       0.847587        23.0640 
 303   0.0000       0.850226        23.1358 
 304   0.0000       0.855035        23.2667 
 305   0.0000       0.859109        23.3776 
 306   0.0000       0.864227        23.5168 
 307   0.0000       0.869502        23.6604 
 308   0.0000       0.871232        23.7074 
 309   0.0000       0.872298        23.7364 
 310   0.0000       0.874387        23.7933 
 311   0.0000       0.879481        23.9319 
 312   0.0000       0.884754        24.0754 
 313   0.0000       0.885530        24.0965 
 314   0.0000       0.887045        24.1377 
 315   0.0000       0.892109        24.2755 
 316   0.0000       0.894630        24.3441 
 317   0.0000       0.905435        24.6381 
 318   0.0000       0.911825        24.8120 
 319   0.0000       0.915855        24.9217 
 320   0.0000       0.927742        25.2452 
 321   0.0000       0.929899        25.3039 
 322   0.0000       0.935241        25.4492 
 323   0.0000       0.936292        25.4778 
 324   0.0000       0.937858        25.5204 
 325   0.0000       0.949442        25.8356 
 326   0.0000       0.953588        25.9484 
 327   0.0000       0.961593        26.1663 
 328   0.0000       0.964466        26.2445 
 329   0.0000       0.969694        26.3867 
 330   0.0000       0.973160        26.4810 
 331   0.0000       0.976749        26.5787 
 332   0.0000       0.981391        26.7050 
 333   0.0000       0.984048        26.7773 
 334   0.0000       0.988669        26.9031 
 335   0.0000       0.992020        26.9942 
 336   0.0000       0.999619        27.2010 
 337   0.0000       1.003973        27.3195 
 338   0.0000       1.006736        27.3947 
 339   0.0000       1.010221        27.4895 
 340   0.0000       1.016768        27.6677 
 341   0.0000       1.018364        27.7111 
 342   0.0000       1.026726        27.9386 
 343   0.0000       1.029876        28.0244 
 344   0.0000       1.032444        28.0942 
 345   0.0000       1.034593        28.1527 
 346   0.0000       1.046391        28.4738 
 347   0.0000       1.051209        28.6049 
 348   0.0000       1.056221        28.7412 
 349   0.0000       1.061632        28.8885 
 350   0.0000       1.067441        29.0466 
 351   0.0000       1.071253        29.1503 
 352   0.0000       1.080202        29.3938 
 353   0.0000       1.082308        29.4511 
 354   0.0000       1.092912        29.7396 
 355   0.0000       1.098345        29.8875 
 356   0.0000       1.102331        29.9960 
 357   0.0000       1.110583        30.2205 
 358   0.0000       1.114966        30.3398 
 359   0.0000       1.120008        30.4770 
 360   0.0000       1.131030        30.7769 
 361   0.0000       1.136761        30.9328 
 362   0.0000       1.138641        30.9840 
 363   0.0000       1.146480        31.1973 
 364   0.0000       1.156863        31.4798 
 365   0.0000       1.157735        31.5036 
 366   0.0000       1.169696        31.8290 
 367   0.0000       1.176382        32.0110 
 368   0.0000       1.179841        32.1051 
 369   0.0000       1.182175        32.1686 
 370   0.0000       1.188155        32.3313 
 371   0.0000       1.196939        32.5704 
 372   0.0000       1.206873        32.8407 
 373   0.0000       1.212881        33.0042 
 374   0.0000       1.216404        33.1000 
 375   0.0000       1.217368        33.1263 
 376   0.0000       1.225367        33.3439 
 377   0.0000       1.229886        33.4669 
 378   0.0000       1.232067        33.5262 
 379   0.0000       1.247553        33.9476 
 380   0.0000       1.251338        34.0506 
 381   0.0000       1.256209        34.1832 
 382   0.0000       1.264257        34.4022 
 383   0.0000       1.271731        34.6056 
 384   0.0000       1.281805        34.8797 
 385   0.0000       1.285953        34.9926 
 386   0.0000       1.292504        35.1708 
 387   0.0000       1.298505        35.3341 
 388   0.0000       1.308263        35.5996 
 389   0.0000       1.313279        35.7362 
 390   0.0000       1.322093        35.9760 
 391   0.0000       1.327494        36.1229 
 392   0.0000       1.333981        36.2995 
 393   0.0000       1.337875        36.4054 
 394   0.0000       1.345546        36.6142 
 395   0.0000       1.357898        36.9503 
 396   0.0000       1.359815        37.0025 
 397   0.0000       1.366582        37.1866 
 398   0.0000       1.369082        37.2546 
 399   0.0000       1.375480        37.4287 
 400   0.0000       1.381847        37.6020 
 401   0.0000       1.391119        37.8543 
 402   0.0000       1.394173        37.9374 
 403   0.0000       1.399442        38.0808 
 404   0.0000       1.403076        38.1796 
 405   0.0000       1.404500        38.2184 
 406   0.0000       1.412274        38.4299 
 407   0.0000       1.419098        38.6156 
 408   0.0000       1.424092        38.7515 
 409   0.0000       1.431257        38.9465 
 410   0.0000       1.433998        39.0211 
 411   0.0000       1.439339        39.1664 
 412   0.0000       1.447078        39.3770 
 413   0.0000       1.453029        39.5389 
 414   0.0000       1.455722        39.6122 
 415   0.0000       1.459408        39.7125 
 416   0.0000       1.464516        39.8515 
 417   0.0000       1.469362        39.9834 
 418   0.0000       1.471169        40.0326 
 419   0.0000       1.474750        40.1300 
 420   0.0000       1.484690        40.4005 
 421   0.0000       1.489019        40.5183 
 422   0.0000       1.491163        40.5766 
 423   0.0000       1.501107        40.8472 
 424   0.0000       1.513138        41.1746 
 425   0.0000       1.527771        41.5728 
 426   0.0000       1.528685        41.5976 
 427   0.0000       1.538893        41.8754 
 428   0.0000       1.542576        41.9756 
 429   0.0000       1.549638        42.1678 
 430   0.0000       1.556840        42.3638 
 431   0.0000       1.571366        42.7591 
 432   0.0000       1.575069        42.8598 
 433   0.0000       1.579271        42.9741 
 434   0.0000       1.583428        43.0873 
 435   0.0000       1.597239        43.4631 
 436   0.0000       1.601205        43.5710 
 437   0.0000       1.608543        43.7707 
 438   0.0000       1.609371        43.7932 
 439   0.0000       1.616909        43.9983 
 440   0.0000       1.627999        44.3001 
 441   0.0000       1.632630        44.4261 
 442   0.0000       1.641002        44.6539 
 443   0.0000       1.643166        44.7128 
 444   0.0000       1.646111        44.7930 
 445   0.0000       1.649913        44.8964 
 446   0.0000       1.658835        45.1392 
 447   0.0000       1.666868        45.3578 
 448   0.0000       1.672358        45.5072 
 449   0.0000       1.674410        45.5630 
 450   0.0000       1.682955        45.7955 
 451   0.0000       1.687854        45.9288 
 452   0.0000       1.690597        46.0035 
 453   0.0000       1.694894        46.1204 
 454   0.0000       1.700033        46.2602 
 455   0.0000       1.704433        46.3800 
 456   0.0000       1.712559        46.6011 
 457   0.0000       1.715351        46.6771 
 458   0.0000       1.717604        46.7384 
 459   0.0000       1.719945        46.8021 
 460   0.0000       1.723942        46.9109 
 461   0.0000       1.728683        47.0399 
 462   0.0000       1.738518        47.3075 
 463   0.0000       1.741812        47.3971 
 464   0.0000       1.745426        47.4955 
 465   0.0000       1.745927        47.5091 
 466   0.0000       1.750501        47.6336 
 467   0.0000       1.754745        47.7490 
 468   0.0000       1.759111        47.8679 
 469   0.0000       1.761698        47.9382 
 470   0.0000       1.765244        48.0347 
 471   0.0000       1.773803        48.2676 
 472   0.0000       1.782693        48.5095 
 473   0.0000       1.786682        48.6181 
 474   0.0000       1.792901        48.7873 
 475   0.0000       1.798345        48.9354 
 476   0.0000       1.799713        48.9727 
 477   0.0000       1.811474        49.2927 
 478   0.0000       1.812759        49.3277 
 479   0.0000       1.821334        49.5610 
 480   0.0000       1.825634        49.6780 
 481   0.0000       1.828206        49.7480 
 482   0.0000       1.836413        49.9713 
 483   0.0000       1.842387        50.1339 
 484   0.0000       1.848450        50.2989 
 485   0.0000       1.851764        50.3890 
 486   0.0000       1.857533        50.5461 
 487   0.0000       1.859452        50.5983 
 488   0.0000       1.866431        50.7882 
 489   0.0000       1.869641        50.8755 
 490   0.0000       1.875711        51.0407 
 491   0.0000       1.879586        51.1461 
 492   0.0000       1.882533        51.2263 
 493   0.0000       1.883681        51.2576 
 494   0.0000       1.888432        51.3868 
 495   0.0000       1.896031        51.5936 
 496   0.0000       1.908396        51.9301 
 497   0.0000       1.910742        51.9939 
 498   0.0000       1.917396        52.1750 
 499   0.0000       1.921892        52.2973 
 500   0.0000       1.924955        52.3807 
 501   0.0000       1.927578        52.4521 
 502   0.0000       1.934185        52.6318 
 503   0.0000       1.937718        52.7280 
 504   0.0000       1.943062        52.8734 
 505   0.0000       1.948540        53.0225 
 506   0.0000       1.951978        53.1160 
 507   0.0000       1.962653        53.4065 
 508   0.0000       1.966735        53.5176 
 509   0.0000       1.973827        53.7106 
 510   0.0000       1.980054        53.8800 
 511   0.0000       1.987510        54.0829 
[...]
   102a -> 108a  :     0.014427 
   102a -> 110a  :     0.015488 
   105a -> 108a  :     0.224143 
   105a -> 109a  :     0.223715 
   105a -> 110a  :     0.045554 
   105a -> 111a  :     0.011053 
   105a -> 112a  :     0.131975 

STATE 16:  E=   0.228415 au      6.215 eV    50131.3 cm**-1 <S**2> =   0.000000
    92a -> 106a  :     0.056168 
    95a -> 106a  :     0.012207 
    98a -> 106a  :     0.299153 
    99a -> 107a  :     0.060001 
   101a -> 107a  :     0.088812 
   101a -> 109a  :     0.012857 
   102a -> 107a  :     0.076807 
   103a -> 107a  :     0.122768 
   103a -> 108a  :     0.036766 
   103a -> 110a  :     0.013212 
   105a -> 109a  :     0.012636 
   105a -> 119a  :     0.010706 

STATE 17:  E=   0.224809 au      6.117 eV    49339.9 cm**-1 <S**2> =   0.000000
    78a -> 106a  :     0.026907 
    90a -> 106a  :     0.098386 
    93a -> 106a  :     0.446974 
    94a -> 106a  :     0.011441 
    97a -> 106a  :     0.185969 
   102a -> 109a  :     0.013801 
   102a -> 110a  :     0.012561 
   103a -> 109a  :     0.011843 

STATE 18:  E=   0.237970 au      6.475 eV    52228.4 cm**-1 <S**2> =   0.000000
    98a -> 106a  :     0.050696 
    99a -> 108a  :     0.010496 
    99a -> 109a  :     0.021870 
    99a -> 112a  :     0.024551 
   101a -> 109a  :     0.108294 
   101a -> 110a  :     0.043047 
   102a -> 108a  :     0.072023 
   102a -> 109a  :     0.027794 
   102a -> 110a  :     0.010742 
   103a -> 107a  :     0.131654 
   105a -> 108a  :     0.016873 
   105a -> 109a  :     0.051868 
   105a -> 110a  :     0.028414 
   105a -> 113a  :     0.046321 
   105a -> 114a  :     0.224147 

STATE 19:  E=   0.241587 au      6.574 eV    53022.2 cm**-1 <S**2> =   0.000000
    90a -> 106a  :     0.020156 
    93a -> 106a  :     0.035504 
    97a -> 106a  :     0.011033 
    99a -> 110a  :     0.011664 
   100a -> 107a  :     0.033862 
   100a -> 109a  :     0.084862 
   100a -> 112a  :     0.013936 
   101a -> 107a  :     0.010687 
   101a -> 108a  :     0.114372 
   102a -> 107a  :     0.015244 
   102a -> 109a  :     0.124146 
   102a -> 110a  :     0.131704 
   102a -> 114a  :     0.026265 
   103a -> 108a  :     0.035683 
   103a -> 109a  :     0.067196 
   103a -> 110a  :     0.022759 
   104a -> 111a  :     0.036403 
   105a -> 107a  :     0.010712 
   105a -> 110a  :     0.063270 
   105a -> 112a  :     0.010438 

STATE 20:  E=   0.242862 au      6.609 eV    53302.0 cm**-1 <S**2> =   0.000000
    99a -> 109a  :     0.017782 
    99a -> 112a  :     0.012803 
   100a -> 107a  :     0.081955 
   100a -> 108a  :     0.068515 
   100a -> 109a  :     0.022778 
   100a -> 110a  :     0.158984 
   100a -> 112a  :     0.041730 
   101a -> 107a  :     0.011755 
   101a -> 109a  :     0.074548 
   101a -> 112a  :     0.014215 
   102a -> 108a  :     0.038817 
   102a -> 109a  :     0.028782 
   102a -> 112a  :     0.010172 
   103a -> 107a  :     0.012307 
   103a -> 109a  :     0.044266 
   103a -> 110a  :     0.021619 
   104a -> 111a  :     0.145974 
   104a -> 112a  :     0.010800 

STATE 21:  E=   0.242164 au      6.590 eV    53148.8 cm**-1 <S**2> =   0.000000
    92a -> 106a  :     0.029803 
    98a -> 106a  :     0.106858 
    99a -> 107a  :     0.041261 
   100a -> 108a  :     0.030502 
   100a -> 109a  :     0.050538 
   100a -> 111a  :     0.021656 
   101a -> 107a  :     0.014041 
   101a -> 109a  :     0.077963 
   101a -> 110a  :     0.090238 
   101a -> 114a  :     0.017996 
   102a -> 107a  :     0.016501 
   102a -> 108a  :     0.062975 
   102a -> 109a  :     0.015047 
   103a -> 110a  :     0.058209 
   103a -> 112a  :     0.013968 
   104a -> 111a  :     0.027238 
   105a -> 108a  :     0.054183 
   105a -> 109a  :     0.089296 
   105a -> 110a  :     0.025610 

STATE 22:  E=   0.244748 au      6.660 eV    53716.0 cm**-1 <S**2> =   0.000000
    99a -> 111a  :     0.054814 
   100a -> 109a  :     0.010503 
   100a -> 111a  :     0.442663 
   100a -> 112a  :     0.039306 
   101a -> 111a  :     0.076677 
   102a -> 111a  :     0.035697 
   104a -> 107a  :     0.188706 
   104a -> 108a  :     0.044365 

STATE 23:  E=   0.247847 au      6.744 eV    54396.1 cm**-1 <S**2> =   0.000000
    92a -> 107a  :     0.011515 
    98a -> 107a  :     0.043940 
    98a -> 109a  :     0.033479 
    98a -> 110a  :     0.017093 
    98a -> 112a  :     0.023860 
   100a -> 114a  :     0.012584 
   101a -> 107a  :     0.037170 
   101a -> 110a  :     0.040461 
   101a -> 114a  :     0.011551 
   102a -> 107a  :     0.037796 
   102a -> 109a  :     0.049848 
   102a -> 114a  :     0.029250 
   103a -> 108a  :     0.034456 
   103a -> 109a  :     0.086153 
   103a -> 110a  :     0.053605 
   103a -> 113a  :     0.045864 
   103a -> 114a  :     0.221420 
   105a -> 107a  :     0.022262 
   105a -> 108a  :     0.014048 
   105a -> 109a  :     0.012624 

STATE 24:  E=   0.244441 au      6.652 eV    53648.5 cm**-1 <S**2> =   0.000000
    64a -> 106a  :     0.017779 
    75a -> 106a  :     0.016860 
    82a -> 112a  :     0.022220 
    87a -> 106a  :     0.027294 
    88a -> 106a  :     0.010209 
    89a -> 106a  :     0.616811 
    90a -> 106a  :     0.077211 
    91a -> 106a  :     0.015014 
    92a -> 106a  :     0.012470 
    93a -> 106a  :     0.010309 
    96a -> 106a  :     0.017494 
    97a -> 106a  :     0.023270 

STATE 25:  E=   0.238261 au      6.483 eV    52292.1 cm**-1 <S**2> =   0.000000
    96a -> 107a  :     0.021605 
   100a -> 111a  :     0.070167 
   101a -> 111a  :     0.010888 
   104a -> 107a  :     0.532522 
   104a -> 109a  :     0.122116 
   104a -> 110a  :     0.156962 

STATE 26:  E=   0.250650 au      6.821 eV    55011.3 cm**-1 <S**2> =   0.000000
    91a -> 106a  :     0.028647 
    92a -> 106a  :     0.018796 
    93a -> 108a  :     0.023172 
    97a -> 107a  :     0.028250 
    97a -> 108a  :     0.097790 
    97a -> 109a  :     0.010082 
    98a -> 108a  :     0.076448 
   101a -> 107a  :     0.011019 
   101a -> 108a  :     0.028266 
   102a -> 107a  :     0.035202 
   102a -> 108a  :     0.021007 
   105a -> 107a  :     0.048136 
   105a -> 108a  :     0.226766 
   105a -> 109a  :     0.033616 
   105a -> 110a  :     0.097740 
   105a -> 114a  :     0.027731 

STATE 27:  E=   0.251766 au      6.851 eV    55256.3 cm**-1 <S**2> =   0.000000
    91a -> 106a  :     0.020114 
    92a -> 111a  :     0.021960 
    95a -> 111a  :     0.027891 
   105a -> 110a  :     0.111592 
   105a -> 111a  :     0.677449 

STATE 28:  E=   0.251297 au      6.838 eV    55153.4 cm**-1 <S**2> =   0.000000
    85a -> 106a  :     0.045488 
    87a -> 106a  :     0.088702 
    88a -> 106a  :     0.020204 
    89a -> 106a  :     0.019311 
    90a -> 107a  :     0.012207 
    90a -> 112a  :     0.019826 
    91a -> 106a  :     0.498246 
    93a -> 107a  :     0.016764 
    93a -> 112a  :     0.017075 
    96a -> 106a  :     0.029799 
    97a -> 108a  :     0.015446 
   105a -> 111a  :     0.037447 

STATE 29:  E=   0.261375 au      7.112 eV    57365.3 cm**-1 <S**2> =   0.000000
    92a -> 106a  :     0.068922 
    95a -> 106a  :     0.022867 
    97a -> 108a  :     0.013376 
    98a -> 108a  :     0.013799 
    99a -> 107a  :     0.076561 
    99a -> 108a  :     0.011627 
   100a -> 109a  :     0.010700 
   100a -> 112a  :     0.011352 
   101a -> 108a  :     0.043900 
   101a -> 110a  :     0.022399 
   101a -> 112a  :     0.012179 
   102a -> 107a  :     0.134676 
   102a -> 109a  :     0.039309 
   102a -> 110a  :     0.012207 
   103a -> 108a  :     0.126077 
   103a -> 109a  :     0.014474 
   103a -> 110a  :     0.017301 
   103a -> 112a  :     0.048545 
   104a -> 111a  :     0.020067 
   105a -> 109a  :     0.055993 
   105a -> 110a  :     0.011056 
   105a -> 114a  :     0.020161 
   105a -> 119a  :     0.012043 

STATE 30:  E=   0.258399 au      7.031 eV    56712.1 cm**-1 <S**2> =   0.000000
    92a -> 106a  :     0.012185 
    95a -> 109a  :     0.010535 
    97a -> 106a  :     0.016474 
    97a -> 108a  :     0.071365 
    97a -> 109a  :     0.011119 
   102a -> 107a  :     0.014200 
   105a -> 107a  :     0.017297 
   105a -> 109a  :     0.025478 
   105a -> 110a  :     0.225851 
   105a -> 111a  :     0.089351 
   105a -> 112a  :     0.273140 


-------------------------
TD-DFT-EXCITATION SPECTRA
-------------------------

Center of mass = (  0.0714, -0.0045, -0.0048)
Calculating the Dipole integrals                  ... done
Transforming integrals                            ... done
Calculating the Linear Momentum integrals         ... done
Transforming integrals                            ... done
Calculating angular momentum integrals            ... done
Transforming integrals                            ... done

-----------------------------------------------------------------------------
         ABSORPTION SPECTRUM VIA TRANSITION ELECTRIC DIPOLE MOMENTS
-----------------------------------------------------------------------------
State   Energy    Wavelength  fosc         T2        TX        TY        TZ  
        (cm-1)      (nm)                 (au**2)    (au)      (au)      (au) 
-----------------------------------------------------------------------------
   1   26251.3    380.9   0.297772944   3.73431   1.92276   0.13972  -0.13335
   2   31171.4    320.8   0.352235514   3.72008  -0.13617   1.88738   0.37329
   3   35583.2    281.0   0.109525696   1.01332   0.30789  -0.93203  -0.22327
   4   35469.8    281.9   0.114953923   1.06694   0.97530   0.34013  -0.00596
   5   34207.2    292.3   0.003573677   0.03439  -0.17698   0.04621   0.03060
   6   38327.9    260.9   0.025658873   0.22039   0.14170   0.32756   0.30499
   7   40850.5    244.8   0.034530344   0.27828   0.01752   0.07112  -0.52241
   8   42600.1    234.7   1.293470171   9.99590  -0.18427   3.10532   0.56476
   9   42774.9    233.8   0.043105347   0.33176  -0.28481   0.15107   0.47730
  10   47466.0    210.7   0.137147000   0.95122  -0.82285   0.37570  -0.36467
  11   47415.8    210.9   0.148306945   1.02971   0.98335   0.07208  -0.23987
  12   43521.3    229.8   0.056046195   0.42396  -0.10233   0.64185   0.03889
  13   48464.3    206.3   0.120647042   0.81954  -0.90313  -0.01724  -0.05994
  14   47440.4    210.8   0.138415008   0.96053   0.97545  -0.03829   0.08697
  15   48326.5    206.9   0.020617511   0.14045  -0.05053   0.30135  -0.21699
  16   50131.3    199.5   0.006731306   0.04420   0.14021   0.09457  -0.12491
  17   49339.9    202.7   0.037211863   0.24829  -0.23919   0.23658  -0.36757
  18   52228.4    191.5   1.117753701   7.04555  -2.64157  -0.19737   0.16941
  19   53022.2    188.6   0.665672047   4.13312   1.47593  -0.88089   1.08572
  20   53302.0    187.6   1.115122209   6.88738   2.45996   0.65223  -0.64074
  21   53148.8    188.2   0.012189822   0.07551  -0.18645  -0.04187  -0.19746
  22   53716.0    186.2   0.416138084   2.55041   0.17256   0.25303  -1.56736
  23   54396.1    183.8   0.113856995   0.68908   0.01224  -0.81516  -0.15635
  24   53648.5    186.4   0.000824969   0.00506  -0.07073  -0.00408  -0.00653
  25   52292.1    191.2   0.085656299   0.53926   0.09125  -0.18057   0.70593
  26   55011.3    181.8   0.019831624   0.11868  -0.08813   0.13994  -0.30221
  27   55256.3    181.0   0.002610164   0.01555  -0.02673   0.11260  -0.04646
  28   55153.4    181.3   0.000692058   0.00413  -0.02691  -0.01357   0.05677
  29   57365.3    174.3   0.049850132   0.28608   0.34300   0.39082   0.12529
  30   56712.1    176.3   0.001609523   0.00934   0.00529  -0.06894   0.06754

-----------------------------------------------------------------------------
         ABSORPTION SPECTRUM VIA TRANSITION VELOCITY DIPOLE MOMENTS
-----------------------------------------------------------------------------
State   Energy    Wavelength   fosc        P2         PX        PY        PZ  
        (cm-1)      (nm)                 (au**2)     (au)      (au)      (au) 
-----------------------------------------------------------------------------
   1   26251.3    380.9   0.356932112   0.06404  -0.25179  -0.01831   0.01749
   2   31171.4    320.8   0.388265612   0.08272   0.02028  -0.28144  -0.05566
   3   35583.2    281.0   0.125853098   0.03061  -0.05307   0.16213   0.03877
   4   35469.8    281.9   0.132155126   0.03204  -0.16888  -0.05928   0.00084
   5   34207.2    292.3   0.004830341   0.00113   0.03204  -0.00848  -0.00556
   6   38327.9    260.9   0.030381583   0.00796  -0.02724  -0.06202  -0.05806
   7   40850.5    244.8   0.041298666   0.01153  -0.00529  -0.01470   0.10624
   8   42600.1    234.7   1.457450464   0.42434   0.03799  -0.63982  -0.11631
   9   42774.9    233.8   0.050366697   0.01472   0.06020  -0.03001  -0.10099
  10   47466.0    210.7   0.135285745   0.04389   0.17707  -0.08034   0.07798
  11   47415.8    210.9   0.150404077   0.04874  -0.21382  -0.01582   0.05265
  12   43521.3    229.8   0.069971091   0.02081   0.02277  -0.14221  -0.00839
  13   48464.3    206.3   0.127625734   0.04227   0.20512   0.00382   0.01356
  14   47440.4    210.8   0.162980430   0.05284  -0.22882   0.00897  -0.02006
  15   48326.5    206.9   0.024413967   0.00806   0.01183  -0.07316   0.05070
  16   50131.3    199.5   0.007619928   0.00261  -0.03470  -0.02270   0.02985
  17   49339.9    202.7   0.043427104   0.01464   0.05826  -0.05729   0.08927
  18   52228.4    191.5   1.205593520   0.43034   0.65285   0.04868  -0.04198
  19   53022.2    188.6   0.715221457   0.25918  -0.36948   0.22041  -0.27219
  20   53302.0    187.6   1.191822091   0.43417  -0.61745  -0.16369   0.16166
  21   53148.8    188.2   0.013208588   0.00480   0.04624   0.01068   0.05046
  22   53716.0    186.2   0.454404170   0.16682  -0.04559  -0.06480   0.40068
  23   54396.1    183.8   0.129246864   0.04805  -0.00322   0.21516   0.04180
  24   53648.5    186.4   0.000943972   0.00035   0.01849   0.00098   0.00181
  25   52292.1    191.2   0.106986189   0.03824  -0.02333   0.04852  -0.18798
  26   55011.3    181.8   0.022572597   0.00849   0.02324  -0.03659   0.08129
  27   55256.3    181.0   0.003106908   0.00117   0.00746  -0.03113   0.01219
  28   55153.4    181.3   0.000801293   0.00030   0.00738   0.00332  -0.01538
  29   57365.3    174.3   0.056670792   0.02222  -0.09422  -0.11006  -0.03504
  30   56712.1    176.3   0.001937698   0.00075  -0.00161   0.02131  -0.01716

-------------------------------------------------------------------
                             CD SPECTRUM
-------------------------------------------------------------------
State  Energy     Wavelength     R         MX        MY        MZ   
       (cm-1)       (nm)     (1e40*cgs)   (au)      (au)      (au)  
-------------------------------------------------------------------
   1   26251.3    380.9     31.07319   0.03691  -0.09517  -0.06181
   2   31171.4    320.8     -3.23887   0.12245  -0.05358   0.29716
   3   35583.2    281.0      2.72568   0.01319  -0.15612   0.64398
   4   35469.8    281.9     21.76036   0.05632  -0.02946  -0.20941
   5   34207.2    292.3      3.80619  -0.04265   0.02492  -0.02047
   6   38327.9    260.9    -67.38926   0.02519  -0.20671  -0.25837
   7   40850.5    244.8     -0.00762   0.00553  -0.28562  -0.03867
   8   42600.1    234.7     24.27454   0.22515   0.00979   0.11081
   9   42774.9    233.8    -90.13980   0.03000  -0.30805  -0.28518
  10   47466.0    210.7      2.15354   0.02543   0.43223   0.37539
  11   47415.8    210.9     10.57132   0.02123  -0.34001  -0.10860
  12   43521.3    229.8    -10.49352   0.05684  -0.03483   0.15204
  13   48464.3    206.3      8.04594  -0.02712   0.08979   0.09813
  14   47440.4    210.8     12.00703   0.04002  -0.17190  -0.23165
  15   48326.5    206.9    -132.91687   0.11032   0.03229   1.31841
  16   50131.3    199.5      2.18443  -0.00691   0.11954   0.04566
  17   49339.9    202.7      1.52699  -0.01970   0.34109   0.22355
  18   52228.4    191.5     -4.17488  -0.01125   0.33405   0.16147
  19   53022.2    188.6    134.52248   0.05558  -1.53283  -1.05639
  20   53302.0    187.6     59.28997   0.01337   0.48899   0.35283
  21   53148.8    188.2      3.84932   0.08399  -0.32822  -0.05105
  22   53716.0    186.2    -47.90788   0.04374  -1.56889  -0.18362
  23   54396.1    183.8     21.14177   0.01579  -0.22641   0.89482
  24   53648.5    186.4      5.03250  -0.14196  -0.09249  -0.03919
  25   52292.1    191.2     -8.90171  -0.03628   0.72682   0.16385
  26   55011.3    181.8     -5.32318  -0.00276   0.21950   0.13981
  27   55256.3    181.0      6.83835   0.21924   0.11588  -0.15750
  28   55153.4    181.3     -4.38312   0.21848   0.00517  -0.05898
  29   57365.3    174.3      3.05781  -0.00739   0.02159   0.00465
  30   56712.1    176.3      4.92799   0.08766  -0.02990   0.11737

Total run time:     6103.623 sec

           *** ORCA-CIS/TD-DFT FINISHED WITHOUT ERROR ***

Maximum memory used throughout the entire CIS-calculation: 3826.4 MB

-----------------------
CIS/TD-DFT TOTAL ENERGY
-----------------------

    E(SCF)  =  -1305.148320281 Eh
    DE(CIS) =      0.119609688 Eh (Root  1)
    ----------------------------- ---------
    E(tot)  =  -1305.028710592 Eh


-------------------------   --------------------
FINAL SINGLE POINT ENERGY     -1305.028710592450
-------------------------   --------------------


                            ***************************************
                            *     ORCA property calculations      *
                            ***************************************


  WARNING: The energy has been calculated at the MP2 level but the densities
           used in the property calculations are still SCF densities
           MP2 response densities have not been calculated 
           use %mp2 Density relaxed end
           or  %mp2 Density unrelaxed end

                                    ---------------------
                                    Active property flags
                                    ---------------------
   (+) Dipole Moment


------------------------------------------------------------------------------
                       ORCA ELECTRIC PROPERTIES CALCULATION
------------------------------------------------------------------------------

Dipole Moment Calculation                       ... on
Quadrupole Moment Calculation                   ... off
Polarizability Calculation                      ... off
GBWName                                         ... BOH-Acr_m_M06L_def2TZVP_coords.gbw
Electron density                                ... BOH-Acr_m_M06L_def2TZVP_coords.scfp
The origin for moment calculation is the CENTER OF MASS  = ( 0.071400, -0.004487 -0.004765)

-------------
DIPOLE MOMENT
-------------
                                X             Y             Z
Electronic contribution:     14.51215      -0.30087      -1.26522
Nuclear contribution   :    -15.20823       0.95575       1.01498
                        -----------------------------------------
Total Dipole Moment    :     -0.69608       0.65488      -0.25024
                        -----------------------------------------
Magnitude (a.u.)       :      0.98794
Magnitude (Debye)      :      2.51114



--------------------
Rotational spectrum 
--------------------
 
Rotational constants in cm-1:     0.010590     0.002430     0.002180 
Rotational constants in MHz :   317.490030    72.863317    65.347730 

 Dipole components along the rotational axes: 
x,y,z [a.u.] :    -0.700330    -0.651847    -0.246283 
x,y,z [Debye]:    -1.780098    -1.656863    -0.626001 

 

Timings for individual modules:

Sum of individual times         ...     7109.291 sec (= 118.488 min)
GTO integral calculation        ...        2.070 sec (=   0.035 min)   0.0 %
SCF iterations                  ...      507.849 sec (=   8.464 min)   7.1 %
MP2 module                      ...      494.882 sec (=   8.248 min)   7.0 %
CIS module                      ...     6104.489 sec (= 101.741 min)  85.9 %
                             ****ORCA TERMINATED NORMALLY****
TOTAL RUN TIME: 0 days 1 hours 58 minutes 35 seconds 709 msec
