
                                 *****************
                                 * O   R   C   A *
                                 *****************

                                            #,                                       
                                            ###                                      
                                            ####                                     
                                            #####                                    
                                            ######                                   
                                           ########,                                 
                                     ,,################,,,,,                         
                               ,,#################################,,                 
                          ,,##########################################,,             
                       ,#########################################, ''#####,          
                    ,#############################################,,   '####,        
                  ,##################################################,,,,####,       
                ,###########''''           ''''###############################       
              ,#####''   ,,,,##########,,,,          '''####'''          '####       
            ,##' ,,,,###########################,,,                        '##       
           ' ,,###''''                  '''############,,,                           
         ,,##''                                '''############,,,,        ,,,,,,###''
      ,#''                                            '''#######################'''  
     '                                                          ''''####''''         
             ,#######,   #######,   ,#######,      ##                                
            ,#'     '#,  ##    ##  ,#'     '#,    #''#        ######   ,####,        
            ##       ##  ##   ,#'  ##            #'  '#       #        #'  '#        
            ##       ##  #######   ##           ,######,      #####,   #    #        
            '#,     ,#'  ##    ##  '#,     ,#' ,#      #,         ##   #,  ,#        
             '#######'   ##     ##  '#######'  #'      '#     #####' # '####'        



                  #######################################################
                  #                        -***-                        #
                  #          Department of theory and spectroscopy      #
                  #    Directorship and core code : Frank Neese         #
                  #        Max Planck Institute fuer Kohlenforschung    #
                  #                Kaiser Wilhelm Platz 1               #
                  #                 D-45470 Muelheim/Ruhr               #
                  #                      Germany                        #
                  #                                                     #
                  #                  All rights reserved                #
                  #                        -***-                        #
                  #######################################################


                         Program Version 5.0.2 -  RELEASE  -


 With contributions from (in alphabetic order):
   Daniel Aravena         : Magnetic Suceptibility
   Michael Atanasov       : Ab Initio Ligand Field Theory (pilot matlab implementation)
   Alexander A. Auer      : GIAO ZORA, VPT2 properties, NMR spectrum
   Ute Becker             : Parallelization
   Giovanni Bistoni       : ED, misc. LED, open-shell LED, HFLD
   Martin Brehm           : Molecular dynamics
   Dmytro Bykov           : SCF Hessian
   Vijay G. Chilkuri      : MRCI spin determinant printing, contributions to CSF-ICE
   Dipayan Datta          : RHF DLPNO-CCSD density
   Achintya Kumar Dutta   : EOM-CC, STEOM-CC
   Dmitry Ganyushin       : Spin-Orbit,Spin-Spin,Magnetic field MRCI
   Miquel Garcia          : C-PCM and meta-GGA Hessian, CC/C-PCM, Gaussian charge scheme
   Yang Guo               : DLPNO-NEVPT2, F12-NEVPT2, CIM, IAO-localization
   Andreas Hansen         : Spin unrestricted coupled pair/coupled cluster methods
   Benjamin Helmich-Paris : MC-RPA, TRAH-SCF, COSX integrals
   Lee Huntington         : MR-EOM, pCC
   Robert Izsak           : Overlap fitted RIJCOSX, COSX-SCS-MP3, EOM
   Marcus Kettner         : VPT2
   Christian Kollmar      : KDIIS, OOCD, Brueckner-CCSD(T), CCSD density, CASPT2, CASPT2-K
   Simone Kossmann        : Meta GGA functionals, TD-DFT gradient, OOMP2, MP2 Hessian
   Martin Krupicka        : Initial AUTO-CI
   Lucas Lang             : DCDCAS
   Marvin Lechner         : AUTO-CI (C++ implementation), FIC-MRCC
   Dagmar Lenk            : GEPOL surface, SMD
   Dimitrios Liakos       : Extrapolation schemes; Compound Job, initial MDCI parallelization
   Dimitrios Manganas     : Further ROCIS development; embedding schemes
   Dimitrios Pantazis     : SARC Basis sets
   Anastasios Papadopoulos: AUTO-CI, single reference methods and gradients
   Taras Petrenko         : DFT Hessian,TD-DFT gradient, ASA, ECA, R-Raman, ABS, FL, XAS/XES, NRVS
   Peter Pinski           : DLPNO-MP2, DLPNO-MP2 Gradient
   Christoph Reimann      : Effective Core Potentials
   Marius Retegan         : Local ZFS, SOC
   Christoph Riplinger    : Optimizer, TS searches, QM/MM, DLPNO-CCSD(T), (RO)-DLPNO pert. Triples
   Tobias Risthaus        : Range-separated hybrids, TD-DFT gradient, RPA, STAB
   Michael Roemelt        : Original ROCIS implementation
   Masaaki Saitow         : Open-shell DLPNO-CCSD energy and density
   Barbara Sandhoefer     : DKH picture change effects
   Avijit Sen             : IP-ROCIS
   Kantharuban Sivalingam : CASSCF convergence, NEVPT2, FIC-MRCI
   Bernardo de Souza      : ESD, SOC TD-DFT
   Georgi Stoychev        : AutoAux, RI-MP2 NMR, DLPNO-MP2 response
   Willem Van den Heuvel  : Paramagnetic NMR
   Boris Wezisla          : Elementary symmetry handling
   Frank Wennmohs         : Technical directorship


 We gratefully acknowledge several colleagues who have allowed us to
 interface, adapt or use parts of their codes:
   Stefan Grimme, W. Hujo, H. Kruse, P. Pracht,  : VdW corrections, initial TS optimization,
                  C. Bannwarth, S. Ehlert          DFT functionals, gCP, sTDA/sTD-DF
   Ed Valeev, F. Pavosevic, A. Kumar             : LibInt (2-el integral package), F12 methods
   Garnet Chan, S. Sharma, J. Yang, R. Olivares  : DMRG
   Ulf Ekstrom                                   : XCFun DFT Library
   Mihaly Kallay                                 : mrcc  (arbitrary order and MRCC methods)
   Jiri Pittner, Ondrej Demel                    : Mk-CCSD
   Frank Weinhold                                : gennbo (NPA and NBO analysis)
   Christopher J. Cramer and Donald G. Truhlar   : smd solvation model
   Lars Goerigk                                  : TD-DFT with DH, B97 family of functionals
   V. Asgeirsson, H. Jonsson                     : NEB implementation
   FAccTs GmbH                                   : IRC, NEB, NEB-TS, DLPNO-Multilevel, CI-OPT
                                                   MM, QMMM, 2- and 3-layer-ONIOM, Crystal-QMMM,
                                                   LR-CPCM, SF, NACMEs, symmetry and pop. for TD-DFT,
                                                   nearIR, NL-DFT gradient (VV10), updates on ESD,
                                                   ML-optimized integration grids
   S Lehtola, MJT Oliveira, MAL Marques          : LibXC Library
   Liviu Ungur et al                             : ANISO software


 Your calculation uses the libint2 library for the computation of 2-el integrals
 For citations please refer to: http://libint.valeyev.net

 Your ORCA version has been built with support for libXC version: 5.1.0
 For citations please refer to: https://tddft.org/programs/libxc/

 This ORCA versions uses:
   CBLAS   interface :  Fast vector & matrix operations
   LAPACKE interface :  Fast linear algebra routines
   SCALAPACK package :  Parallel linear algebra routines
   Shared memory     :  Shared parallel matrices
   BLAS/LAPACK       :  OpenBLAS 0.3.15  USE64BITINT DYNAMIC_ARCH NO_AFFINITY Zen SINGLE_THREADED
        Core in use  :  Zen
   Copyright (c) 2011-2014, The OpenBLAS Project


Your calculation utilizes the SMD solvation module
Please cite in your paper:
A.V. Marenich, C.J. Cramer, D.G. Truhlar J. Phys. Chem. B, 113, (2009), 6378 

================================================================================

----- Orbital basis set information -----
Your calculation utilizes the basis: def2-TZVP
   F. Weigend and R. Ahlrichs, Phys. Chem. Chem. Phys. 7, 3297 (2005).

----- AuxJ basis set information -----
Your calculation utilizes the auxiliary basis: def2/J
   F. Weigend, Phys. Chem. Chem. Phys. 8, 1057 (2006).

----- AuxC basis set information -----
Your calculation utilizes the auxiliary basis: def2-TZVP/C
  H-La, Hf-Rn : A. Hellweg, C. Hattig, S. Hofener and W. Klopper, Theor. Chem. Acc. 117, 587 (2007).
        Ce-Lu : J. Chmela and M. E. Harding, Mol. Phys. (2018).

================================================================================
                                        WARNINGS
                       Please study these warnings very carefully!
================================================================================

INFO   : Checking CIS options ...
  ===> : (D) CORRECTION FOUND - SETTING MODE=3
  ===> : JK MODE FOUND - ACTIVATING RI-MP2 CODE
  ===> : MP2 AND CIS FOUND - CHECKING
WARNING: CIS(D) and MP2 runs must have the same orbital window
  ===> : adjusting orbital windows

WARNING: No MP2 level density has been requested!
         To caclulate MP2 level properties use
         %mp2 Density relaxed end
         or
         %mp2 Density unrelaxed end
         Otherwise for double-hybrid DFT only the energy is correct!

WARNING: The frozen-core approximation is turned on by default for 
         the MP2 part of double-hybrid DFT.

WARNING:  You are using a Range-Separated Double Hybrid functional with Doubles Correction 
          Changing Mode to RPA_AOINTS 


WARNING: CIS/ROCIS methods need fully converged wavefunctions
  ===> : Setting SCFConvForced true
         You can overwrite this default with %scf ConvForced false 


INFO   : the flag for use of the SHARK integral package has been found!

================================================================================
                                       INPUT FILE
================================================================================
NAME = BOH-Acr_m_M06L_def2TZVP_coords.inp
|  1> %maxcore 20000
|  2> %pal
|  3>  nprocs= 4
|  4> end
|  5> ! RI-wPBEPP86   def2-TZVP def2/J def2-TZVP/C RIJCOSX CPCM TightSCF
|  6> %TDDFT  
|  7>    NROOTS   30
|  8>    dcorr 1
|  9>    TDA      FALSE
| 10> END
| 11> 
| 12> %CPCM
| 13>    SMD          TRUE
| 14>    SMDsolvent   "ACETONITRILE"
| 15> END
| 16>    
| 17> 
| 18> * xyz 1 1
| 19> C                  -1.10789000    3.65794600    0.41552300
| 20> C                  -1.69725000    2.43847600    0.22388400
| 21> C                  -0.90318500    1.30743000   -0.03603200
| 22> C                   0.51474800    1.44127900   -0.12342700
| 23> C                   1.07669600    2.72230600    0.11122100
| 24> C                   0.28899300    3.80398200    0.37168000
| 25> C                   1.30499300    0.31196400   -0.40730200
| 26> C                   0.68102700   -0.93675500   -0.58472000
| 27> C                  -0.73667200   -1.04250900   -0.45976000
| 28> C                  -1.36088000   -2.29273000   -0.61589200
| 29> H                  -2.43156900   -2.37493100   -0.50646300
| 30> C                  -0.61110600   -3.39870200   -0.90937900
| 31> C                   0.78162600   -3.30928200   -1.07363300
| 32> C                   1.40785300   -2.10861100   -0.91735500
| 33> H                  -1.73136600    4.51950100    0.61592300
| 34> H                  -2.77078600    2.33939400    0.27517400
| 35> H                   2.15152600    2.82824600    0.09071700
| 36> H                   0.73597500    4.77227600    0.55074400
| 37> H                  -1.10516700   -4.35420600   -1.02807900
| 38> H                   1.35198700   -4.19158100   -1.32991500
| 39> H                   2.47648700   -2.03293800   -1.05663800
| 40> N                  -1.47855000    0.07667200   -0.19737600
| 41> C                   2.77031500    0.43557600   -0.51746300
| 42> C                   3.60561500   -0.24449700    0.36675800
| 43> C                   3.34003100    1.23748300   -1.50810600
| 44> C                   4.99543100   -0.13343600    0.29629500
| 45> C                   4.71677400    1.33983800   -1.61160800
| 46> C                   5.53220500    0.66649600   -0.71589600
| 47> H                   5.15173500    1.94952500   -2.39301800
| 48> H                   3.16090000   -0.86130500    1.13936300
| 49> H                   2.69869900    1.76514000   -2.20349100
| 50> C                  -2.91648700   -0.04387400   -0.08772400
| 51> C                  -3.48905800   -0.26548700    1.15020900
| 52> C                  -3.70110500    0.06852100   -1.22706700
| 53> C                  -4.86618500   -0.37708900    1.26413100
| 54> H                  -2.85994100   -0.34942700    2.02740300
| 55> C                  -5.07132100   -0.04156500   -1.12003900
| 56> H                  -3.23486300    0.24150900   -2.18872100
| 57> C                  -5.66390700   -0.26420000    0.12592700
| 58> H                  -5.30724100   -0.54963500    2.23497100
| 59> H                  -5.70343100    0.04318100   -1.99401200
| 60> O                  -7.00839100   -0.35516100    0.13090900
| 61> C                  -7.65015200   -0.57642400    1.37840000
| 62> H                  -8.71513000   -0.61296100    1.16764300
| 63> H                  -7.33925300   -1.52328000    1.82538300
| 64> H                  -7.45003400    0.23613200    2.08016400
| 65> H                   6.60774100    0.76949100   -0.81771100
| 66> B                   5.89393600   -0.88993800    1.32750200
| 67> O                   7.25611000   -0.79016500    1.37766700
| 68> O                   5.27828100   -1.69989600    2.23764400
| 69> H                   7.63084100   -0.19658400    0.71876200
| 70> H                   5.90840000   -2.11960400    2.83441500
| 71> *
| 72> 
| 73> 
| 74>                          ****END OF INPUT****
================================================================================

                       ****************************
                       * Single Point Calculation *
                       ****************************

---------------------------------
CARTESIAN COORDINATES (ANGSTROEM)
---------------------------------
  C     -1.107890    3.657946    0.415523
  C     -1.697250    2.438476    0.223884
  C     -0.903185    1.307430   -0.036032
  C      0.514748    1.441279   -0.123427
  C      1.076696    2.722306    0.111221
  C      0.288993    3.803982    0.371680
  C      1.304993    0.311964   -0.407302
  C      0.681027   -0.936755   -0.584720
  C     -0.736672   -1.042509   -0.459760
  C     -1.360880   -2.292730   -0.615892
  H     -2.431569   -2.374931   -0.506463
  C     -0.611106   -3.398702   -0.909379
  C      0.781626   -3.309282   -1.073633
  C      1.407853   -2.108611   -0.917355
  H     -1.731366    4.519501    0.615923
  H     -2.770786    2.339394    0.275174
  H      2.151526    2.828246    0.090717
  H      0.735975    4.772276    0.550744
  H     -1.105167   -4.354206   -1.028079
  H      1.351987   -4.191581   -1.329915
  H      2.476487   -2.032938   -1.056638
  N     -1.478550    0.076672   -0.197376
  C      2.770315    0.435576   -0.517463
  C      3.605615   -0.244497    0.366758
  C      3.340031    1.237483   -1.508106
  C      4.995431   -0.133436    0.296295
  C      4.716774    1.339838   -1.611608
  C      5.532205    0.666496   -0.715896
  H      5.151735    1.949525   -2.393018
  H      3.160900   -0.861305    1.139363
  H      2.698699    1.765140   -2.203491
  C     -2.916487   -0.043874   -0.087724
  C     -3.489058   -0.265487    1.150209
  C     -3.701105    0.068521   -1.227067
  C     -4.866185   -0.377089    1.264131
  H     -2.859941   -0.349427    2.027403
  C     -5.071321   -0.041565   -1.120039
  H     -3.234863    0.241509   -2.188721
  C     -5.663907   -0.264200    0.125927
  H     -5.307241   -0.549635    2.234971
  H     -5.703431    0.043181   -1.994012
  O     -7.008391   -0.355161    0.130909
  C     -7.650152   -0.576424    1.378400
  H     -8.715130   -0.612961    1.167643
  H     -7.339253   -1.523280    1.825383
  H     -7.450034    0.236132    2.080164
  H      6.607741    0.769491   -0.817711
  B      5.893936   -0.889938    1.327502
  O      7.256110   -0.790165    1.377667
  O      5.278281   -1.699896    2.237644
  H      7.630841   -0.196584    0.718762
  H      5.908400   -2.119604    2.834415

----------------------------
CARTESIAN COORDINATES (A.U.)
----------------------------
  NO LB      ZA    FRAG     MASS         X           Y           Z
   0 C     6.0000    0    12.011   -2.093609    6.912516    0.785225
   1 C     6.0000    0    12.011   -3.207338    4.608052    0.423079
   2 C     6.0000    0    12.011   -1.706772    2.470685   -0.068091
   3 C     6.0000    0    12.011    0.972733    2.723623   -0.233243
   4 C     6.0000    0    12.011    2.034661    5.144413    0.210177
   5 C     6.0000    0    12.011    0.546118    7.188484    0.702373
   6 C     6.0000    0    12.011    2.466079    0.589527   -0.769689
   7 C     6.0000    0    12.011    1.286955   -1.770210   -1.104961
   8 C     6.0000    0    12.011   -1.392108   -1.970057   -0.868820
   9 C     6.0000    0    12.011   -2.571691   -4.332632   -1.163867
  10 H     1.0000    0     1.008   -4.594999   -4.487969   -0.957076
  11 C     6.0000    0    12.011   -1.154823   -6.422616   -1.718477
  12 C     6.0000    0    12.011    1.477059   -6.253637   -2.028872
  13 C     6.0000    0    12.011    2.660457   -3.984697   -1.733550
  14 H     1.0000    0     1.008   -3.271808    8.540619    1.163926
  15 H     1.0000    0     1.008   -5.236027    4.420814    0.520003
  16 H     1.0000    0     1.008    4.065795    5.344610    0.171430
  17 H     1.0000    0     1.008    1.390791    9.018295    1.040755
  18 H     1.0000    0     1.008   -2.088463   -8.228257   -1.942788
  19 H     1.0000    0     1.008    2.554885   -7.920940   -2.513175
  20 H     1.0000    0     1.008    4.679882   -3.841696   -1.996756
  21 N     7.0000    0    14.007   -2.794055    0.144889   -0.372987
  22 C     6.0000    0    12.011    5.235137    0.823119   -0.977863
  23 C     6.0000    0    12.011    6.813625   -0.462032    0.693072
  24 C     6.0000    0    12.011    6.311744    2.338504   -2.849907
  25 C     6.0000    0    12.011    9.439997   -0.252157    0.559916
  26 C     6.0000    0    12.011    8.913411    2.531927   -3.045498
  27 C     6.0000    0    12.011   10.454352    1.259495   -1.352847
  28 H     1.0000    0     1.008    9.735368    3.684068   -4.522149
  29 H     1.0000    0     1.008    5.973235   -1.627631    2.153084
  30 H     1.0000    0     1.008    5.099802    3.335631   -4.163995
  31 C     6.0000    0    12.011   -5.511362   -0.082910   -0.165774
  32 C     6.0000    0    12.011   -6.593364   -0.501698    2.173580
  33 C     6.0000    0    12.011   -6.994075    0.129486   -2.318821
  34 C     6.0000    0    12.011   -9.195757   -0.712595    2.388861
  35 H     1.0000    0     1.008   -5.404505   -0.660321    3.831236
  36 C     6.0000    0    12.011   -9.583408   -0.078546   -2.116567
  37 H     1.0000    0     1.008   -6.113005    0.456386   -4.136083
  38 C     6.0000    0    12.011  -10.703233   -0.499266    0.237968
  39 H     1.0000    0     1.008  -10.029232   -1.038660    4.223483
  40 H     1.0000    0     1.008  -10.777923    0.081600   -3.768137
  41 O     8.0000    0    15.999  -13.243940   -0.671157    0.247382
  42 C     6.0000    0    12.011  -14.456692   -1.089283    2.604799
  43 H     1.0000    0     1.008  -16.469209   -1.158328    2.206525
  44 H     1.0000    0     1.008  -13.869178   -2.878582    3.449474
  45 H     1.0000    0     1.008  -14.078524    0.446225    3.930940
  46 H     1.0000    0     1.008   12.486821    1.454127   -1.545250
  47 B     5.0000    0    10.810   11.137925   -1.681739    2.508615
  48 O     8.0000    0    15.999   13.712061   -1.493195    2.603413
  49 O     8.0000    0    15.999    9.974506   -3.212338    4.228534
  50 H     1.0000    0     1.008   14.420200   -0.371490    1.358263
  51 H     1.0000    0     1.008   11.165258   -4.005471    5.356268

--------------------------------
INTERNAL COORDINATES (ANGSTROEM)
--------------------------------
 C      0   0   0     0.000000000000     0.00000000     0.00000000
 C      1   0   0     1.367910010498     0.00000000     0.00000000
 C      2   1   0     1.406186547154   119.97689744     0.00000000
 C      3   2   1     1.426915356044   119.80243959   358.84269212
 C      4   3   2     1.418405940955   117.92234234     2.44626275
 C      5   4   3     1.363208669231   121.28580874   358.00765350
 C      4   3   2     1.407275575314   119.67549019   181.13040997
 C      7   4   3     1.407163763334   119.24585507   359.24484746
 C      8   7   4     1.427119253853   119.68382331   359.29315751
 C      9   8   7     1.406081568590   119.81295925   180.98879725
 H     10   9   8     1.079401058533   119.78896884   179.07291938
 C     10   9   8     1.368016715917   119.95686680   358.88305480
 C     12  10   9     1.405232271456   121.11986538   359.32326749
 C     13  12  10     1.363155867483   119.86490242     1.13349736
 H      1   2   3     1.082201229255   119.17287590   180.07572453
 H      2   1   3     1.079318048640   120.24643396   179.75898514
 H      5   4   3     1.080232950116   118.66149622   177.36468675
 H      6   5   4     1.081411159021   120.21725373   179.83218476
 H     12  10   9     1.082207861613   119.15114468   180.08300263
 H     13  12  10     1.081408183456   119.90188847   181.53689123
 H     14  13  12     1.080326239140   120.08865248   180.87384969
 N      9   8   7     1.368135388440   119.65980880     1.41615019
 C      7   4   3     1.474647054772   120.38398285   179.25206112
 C     23   7   4     1.393582488470   120.48378361   117.53059795
 C     23   7   4     1.396067588175   120.44188251   297.63054334
 C     24  23   7     1.396025821375   121.72720333   180.78576561
 C     25  23   7     1.384417024627   120.08888173   180.51594509
 C     27  25  23     1.385863323589   120.05879806   358.77139693
 H     27  25  23     1.082363569966   119.68658240   178.92318382
 H     24  23   7     1.084039679216   118.94608374   359.69136434
 H     25  23   7     1.083184629737   119.58669492   359.53990457
 C     22   9   8     1.447141221578   119.02530214   179.33946842
 C     32  22   9     1.381820532594   119.53566605    91.96768128
 C     32  22   9     1.387933901019   119.52296565   271.78759930
 C     33  32  22     1.386330408891   119.87689725   179.75813561
 H     33  32  22     1.082729623186   119.83327208   359.86828929
 C     34  32  22     1.378791429780   119.44650667   180.24294577
 H     34  32  22     1.082628683540   119.91049965     0.22268421
 C     35  33  32     1.394493693503   119.64761683     0.00000000
 H     35  33  32     1.080200362364   119.49275410   180.04228136
 H     37  34  32     1.081930562164   120.77384488   179.96264211
 O     39  35  33     1.347566677423   124.21229145   180.11837150
 C     42  39  35     1.420228253265   117.68443708     0.18954568
 H     43  42  39     1.086246567729   106.13130757   179.73710800
 H     43  42  39     1.092240026380   111.46272299   298.55747655
 H     43  42  39     1.092138809289   111.45048862    60.92111805
 H     28  27  25     1.085242807645   118.44936781   180.33162442
 B     26  24  23     1.563008121501   120.03265970   178.69582975
 O     48  26  24     1.366744008595   124.18157242   183.31925819
 O     48  26  24     1.365071976473   117.89169908     3.18595139
 H     49  48  26     0.962765560740   114.06732541     0.59752550
 H     50  48  26     0.964023021440   112.10281503   180.34412700

---------------------------
INTERNAL COORDINATES (A.U.)
---------------------------
 C      0   0   0     0.000000000000     0.00000000     0.00000000
 C      1   0   0     2.584975295691     0.00000000     0.00000000
 C      2   1   0     2.657307467325   119.97689744     0.00000000
 C      3   2   1     2.696479239210   119.80243959   358.84269212
 C      4   3   2     2.680398775132   117.92234234     2.44626275
 C      5   4   3     2.576091048233   121.28580874   358.00765350
 C      4   3   2     2.659365432300   119.67549019   181.13040997
 C      7   4   3     2.659154138280   119.24585507   359.24484746
 C      8   7   4     2.696864550228   119.68382331   359.29315751
 C      9   8   7     2.657109086590   119.81295925   180.98879725
 H     10   9   8     2.039772389293   119.78896884   179.07291938
 C     10   9   8     2.585176939710   119.95686680   358.88305480
 C     12  10   9     2.655504147599   121.11986538   359.32326749
 C     13  12  10     2.575991267391   119.86490242     1.13349736
 H      1   2   3     2.045063945085   119.17287590   180.07572453
 H      2   1   3     2.039615523328   120.24643396   179.75898514
 H      5   4   3     2.041344436557   118.66149622   177.36468675
 H      6   5   4     2.043570928717   120.21725373   179.83218476
 H     12  10   9     2.045076478425   119.15114468   180.08300263
 H     13  12  10     2.043565305713   119.90188847   181.53689123
 H     14  13  12     2.041520727263   120.08865248   180.87384969
 N      9   8   7     2.585401198277   119.65980880     1.41615019
 C      7   4   3     2.786679077713   120.38398285   179.25206112
 C     23   7   4     2.633489248237   120.48378361   117.53059795
 C     23   7   4     2.638185406096   120.44188251   297.63054334
 C     24  23   7     2.638106478281   121.72720333   180.78576561
 C     25  23   7     2.616169031684   120.08888173   180.51594509
 C     27  25  23     2.618902140629   120.05879806   358.77139693
 H     27  25  23     2.045370724569   119.68658240   178.92318382
 H     24  23   7     2.048538112021   118.94608374   359.69136434
 H     25  23   7     2.046922302675   119.58669492   359.53990457
 C     22   9   8     2.734700585890   119.02530214   179.33946842
 C     32  22   9     2.611262372832   119.53566605    91.96768128
 C     32  22   9     2.622814964911   119.52296565   271.78759930
 C     33  32  22     2.619784803932   119.87689725   179.75813561
 H     33  32  22     2.046062464906   119.83327208   359.86828929
 C     34  32  22     2.605538198083   119.44650667   180.24294577
 H     34  32  22     2.045871716619   119.91049965     0.22268421
 C     35  33  32     2.635211176202   119.64761683     0.00000000
 H     35  33  32     2.041282854631   119.49275410   180.04228136
 H     37  34  32     2.044552458410   120.77384488   179.96264211
 O     39  35  33     2.546531967528   124.21229145   180.11837150
 C     42  39  35     2.683842446327   117.68443708     0.18954568
 H     43  42  39     2.052708526919   106.13130757   179.73710800
 H     43  42  39     2.064034522365   111.46272299   298.55747655
 H     43  42  39     2.063843249784   111.45048862    60.92111805
 H     28  27  25     2.050811695258   118.44936781   180.33162442
 B     26  24  23     2.953657294732   120.03265970   178.69582975
 O     48  26  24     2.582771871422   124.18157242   183.31925819
 O     48  26  24     2.579612188625   117.89169908     3.18595139
 H     49  48  26     1.819363240970   114.06732541     0.59752550
 H     50  48  26     1.821739497317   112.10281503   180.34412700

---------------------
BASIS SET INFORMATION
---------------------
There are 5 groups of distinct atoms

 Group   1 Type C   : 11s6p2d1f contracted to 5s3p2d1f pattern {62111/411/11/1}
 Group   2 Type H   : 5s1p contracted to 3s1p pattern {311/1}
 Group   3 Type N   : 11s6p2d1f contracted to 5s3p2d1f pattern {62111/411/11/1}
 Group   4 Type O   : 11s6p2d1f contracted to 5s3p2d1f pattern {62111/411/11/1}
 Group   5 Type B   : 11s6p2d1f contracted to 5s3p2d1f pattern {62111/411/11/1}

Atom   0C    basis set group =>   1
Atom   1C    basis set group =>   1
Atom   2C    basis set group =>   1
Atom   3C    basis set group =>   1
Atom   4C    basis set group =>   1
Atom   5C    basis set group =>   1
Atom   6C    basis set group =>   1
Atom   7C    basis set group =>   1
Atom   8C    basis set group =>   1
Atom   9C    basis set group =>   1
Atom  10H    basis set group =>   2
Atom  11C    basis set group =>   1
Atom  12C    basis set group =>   1
Atom  13C    basis set group =>   1
Atom  14H    basis set group =>   2
Atom  15H    basis set group =>   2
Atom  16H    basis set group =>   2
Atom  17H    basis set group =>   2
Atom  18H    basis set group =>   2
Atom  19H    basis set group =>   2
Atom  20H    basis set group =>   2
Atom  21N    basis set group =>   3
Atom  22C    basis set group =>   1
Atom  23C    basis set group =>   1
Atom  24C    basis set group =>   1
Atom  25C    basis set group =>   1
Atom  26C    basis set group =>   1
Atom  27C    basis set group =>   1
Atom  28H    basis set group =>   2
Atom  29H    basis set group =>   2
Atom  30H    basis set group =>   2
Atom  31C    basis set group =>   1
Atom  32C    basis set group =>   1
Atom  33C    basis set group =>   1
Atom  34C    basis set group =>   1
Atom  35H    basis set group =>   2
Atom  36C    basis set group =>   1
Atom  37H    basis set group =>   2
Atom  38C    basis set group =>   1
Atom  39H    basis set group =>   2
Atom  40H    basis set group =>   2
Atom  41O    basis set group =>   4
Atom  42C    basis set group =>   1
Atom  43H    basis set group =>   2
Atom  44H    basis set group =>   2
Atom  45H    basis set group =>   2
Atom  46H    basis set group =>   2
Atom  47B    basis set group =>   5
Atom  48O    basis set group =>   4
Atom  49O    basis set group =>   4
Atom  50H    basis set group =>   2
Atom  51H    basis set group =>   2
---------------------------------
AUXILIARY/J BASIS SET INFORMATION
---------------------------------
There are 5 groups of distinct atoms

 Group   1 Type C   : 12s5p4d2f1g contracted to 6s4p3d1f1g pattern {711111/2111/211/2/1}
 Group   2 Type H   : 5s2p1d contracted to 3s1p1d pattern {311/2/1}
 Group   3 Type N   : 12s5p4d2f1g contracted to 6s4p3d1f1g pattern {711111/2111/211/2/1}
 Group   4 Type O   : 12s5p4d2f1g contracted to 6s4p3d1f1g pattern {711111/2111/211/2/1}
 Group   5 Type B   : 12s5p4d2f1g contracted to 6s4p3d1f1g pattern {711111/2111/211/2/1}

Atom   0C    basis set group =>   1
Atom   1C    basis set group =>   1
Atom   2C    basis set group =>   1
Atom   3C    basis set group =>   1
Atom   4C    basis set group =>   1
Atom   5C    basis set group =>   1
Atom   6C    basis set group =>   1
Atom   7C    basis set group =>   1
Atom   8C    basis set group =>   1
Atom   9C    basis set group =>   1
Atom  10H    basis set group =>   2
Atom  11C    basis set group =>   1
Atom  12C    basis set group =>   1
Atom  13C    basis set group =>   1
Atom  14H    basis set group =>   2
Atom  15H    basis set group =>   2
Atom  16H    basis set group =>   2
Atom  17H    basis set group =>   2
Atom  18H    basis set group =>   2
Atom  19H    basis set group =>   2
Atom  20H    basis set group =>   2
Atom  21N    basis set group =>   3
Atom  22C    basis set group =>   1
Atom  23C    basis set group =>   1
Atom  24C    basis set group =>   1
Atom  25C    basis set group =>   1
Atom  26C    basis set group =>   1
Atom  27C    basis set group =>   1
Atom  28H    basis set group =>   2
Atom  29H    basis set group =>   2
Atom  30H    basis set group =>   2
Atom  31C    basis set group =>   1
Atom  32C    basis set group =>   1
Atom  33C    basis set group =>   1
Atom  34C    basis set group =>   1
Atom  35H    basis set group =>   2
Atom  36C    basis set group =>   1
Atom  37H    basis set group =>   2
Atom  38C    basis set group =>   1
Atom  39H    basis set group =>   2
Atom  40H    basis set group =>   2
Atom  41O    basis set group =>   4
Atom  42C    basis set group =>   1
Atom  43H    basis set group =>   2
Atom  44H    basis set group =>   2
Atom  45H    basis set group =>   2
Atom  46H    basis set group =>   2
Atom  47B    basis set group =>   5
Atom  48O    basis set group =>   4
Atom  49O    basis set group =>   4
Atom  50H    basis set group =>   2
Atom  51H    basis set group =>   2
---------------------------------
AUXILIARY/C BASIS SET INFORMATION
---------------------------------
There are 5 groups of distinct atoms

 Group   1 Type C   : 8s6p5d3f1g contracted to 8s6p4d3f1g pattern {11111111/111111/2111/111/1}
 Group   2 Type H   : 4s3p2d contracted to 4s2p1d pattern {1111/21/2}
 Group   3 Type N   : 8s6p5d3f1g contracted to 8s6p4d3f1g pattern {11111111/111111/2111/111/1}
 Group   4 Type O   : 8s6p5d3f1g contracted to 8s6p4d3f1g pattern {11111111/111111/2111/111/1}
 Group   5 Type B   : 8s6p5d3f1g contracted to 8s6p4d3f1g pattern {11111111/111111/2111/111/1}

Atom   0C    basis set group =>   1
Atom   1C    basis set group =>   1
Atom   2C    basis set group =>   1
Atom   3C    basis set group =>   1
Atom   4C    basis set group =>   1
Atom   5C    basis set group =>   1
Atom   6C    basis set group =>   1
Atom   7C    basis set group =>   1
Atom   8C    basis set group =>   1
Atom   9C    basis set group =>   1
Atom  10H    basis set group =>   2
Atom  11C    basis set group =>   1
Atom  12C    basis set group =>   1
Atom  13C    basis set group =>   1
Atom  14H    basis set group =>   2
Atom  15H    basis set group =>   2
Atom  16H    basis set group =>   2
Atom  17H    basis set group =>   2
Atom  18H    basis set group =>   2
Atom  19H    basis set group =>   2
Atom  20H    basis set group =>   2
Atom  21N    basis set group =>   3
Atom  22C    basis set group =>   1
Atom  23C    basis set group =>   1
Atom  24C    basis set group =>   1
Atom  25C    basis set group =>   1
Atom  26C    basis set group =>   1
Atom  27C    basis set group =>   1
Atom  28H    basis set group =>   2
Atom  29H    basis set group =>   2
Atom  30H    basis set group =>   2
Atom  31C    basis set group =>   1
Atom  32C    basis set group =>   1
Atom  33C    basis set group =>   1
Atom  34C    basis set group =>   1
Atom  35H    basis set group =>   2
Atom  36C    basis set group =>   1
Atom  37H    basis set group =>   2
Atom  38C    basis set group =>   1
Atom  39H    basis set group =>   2
Atom  40H    basis set group =>   2
Atom  41O    basis set group =>   4
Atom  42C    basis set group =>   1
Atom  43H    basis set group =>   2
Atom  44H    basis set group =>   2
Atom  45H    basis set group =>   2
Atom  46H    basis set group =>   2
Atom  47B    basis set group =>   5
Atom  48O    basis set group =>   4
Atom  49O    basis set group =>   4
Atom  50H    basis set group =>   2
Atom  51H    basis set group =>   2


           ************************************************************
           *        Program running with 4 parallel MPI-processes     *
           *              working on a common directory               *
           ************************************************************
------------------------------------------------------------------------------
                           ORCA GTO INTEGRAL CALCULATION
                           -- RI-GTO INTEGRALS CHOSEN --
------------------------------------------------------------------------------
------------------------------------------------------------------------------
                   ___                                                        
                  /   \      - P O W E R E D   B Y -                         
                 /     \                                                     
                 |  |  |   _    _      __       _____    __    __             
                 |  |  |  | |  | |    /  \     |  _  \  |  |  /  |          
                  \  \/   | |  | |   /    \    | | | |  |  | /  /          
                 / \  \   | |__| |  /  /\  \   | |_| |  |  |/  /          
                |  |  |   |  __  | /  /__\  \  |    /   |      \           
                |  |  |   | |  | | |   __   |  |    \   |  |\   \          
                \     /   | |  | | |  |  |  |  | |\  \  |  | \   \       
                 \___/    |_|  |_| |__|  |__|  |_| \__\ |__|  \__/        
                                                                              
                      - O R C A' S   B I G   F R I E N D -                    
                                      &                                       
                       - I N T E G R A L  F E E D E R -                       
                                                                              
 v1 FN, 2020, v2 2021                                                         
------------------------------------------------------------------------------


Reading SHARK input file BOH-Acr_m_M06L_def2TZVP_coords.SHARKINP.tmp ... ok
----------------------
SHARK INTEGRAL PACKAGE
----------------------

Number of atoms                             ...     52
Number of basis functions                   ...   1087
Number of shells                            ...    425
Maximum angular momentum                    ...      3
Integral batch strategy                     ... SHARK/LIBINT Hybrid
RI-J (if used) integral strategy            ... SPLIT-RIJ (Revised 2003 algorithm where possible)
Printlevel                                  ...      1
Contraction scheme used                     ... SEGMENTED contraction
Coulomb Range Separation                    ... NOT USED
Exchange Range Separation                   ... Long Range
   Mu parameter                             ...  0.180000
   Scaling (regular/separated)              ...  0.700000  0.300000
Finite Nucleus Model                        ... NOT USED
Auxiliary Coulomb fitting basis             ... AVAILABLE
   # of basis functions in Aux-J            ...   1750
   # of shells in Aux-J                     ...    570
   Maximum angular momentum in Aux-J        ...      4
Auxiliary J/K fitting basis                 ... NOT available
Auxiliary Correlation fitting basis         ... AVAILABLE
   # of basis functions in Aux-C            ...   2671
   # of shells in Aux-C                     ...    829
   Maximum angular momentum in Aux-C        ...      4
Auxiliary 'external' fitting basis          ... NOT available
Integral threshold                          ...     2.500000e-11
Primitive cut-off                           ...     2.500000e-12
Primitive pair pre-selection threshold      ...     2.500000e-12

Calculating pre-screening integrals         ... done (  0.3 sec) Dimension = 425
Organizing shell pair data                  ... done (  5.9 sec)
Shell pair information
Total number of shell pairs                 ...     90525
Shell pairs after pre-screening             ...     55238
Total number of primitive shell pairs       ...    279376
Primitive shell pairs kept                  ...    110316
          la=0 lb=0:  13827 shell pairs
          la=1 lb=0:  15979 shell pairs
          la=1 lb=1:   4613 shell pairs
          la=2 lb=0:   7866 shell pairs
          la=2 lb=1:   4618 shell pairs
          la=2 lb=2:   1164 shell pairs
          la=3 lb=0:   3673 shell pairs
          la=3 lb=1:   2180 shell pairs
          la=3 lb=2:   1053 shell pairs
          la=3 lb=3:    265 shell pairs

Calculating one electron integrals          ... done (  0.3 sec)
Calculating RI/J V-Matrix + Cholesky decomp.... done (  0.3 sec)
Calculating RI/C V-Matrix + Cholesky decomp.... done (  0.6 sec)
Calculating Nuclear repulsion               ... done (  0.0 sec) ENN=   2790.261668379358 Eh

SHARK setup successfully completed in   8.4 seconds

Maximum memory used throughout the entire GTOINT-calculation: 112.7 MB


           ************************************************************
           *        Program running with 4 parallel MPI-processes     *
           *              working on a common directory               *
           ************************************************************
-------------------------------------------------------------------------------
                                 ORCA SCF
-------------------------------------------------------------------------------

------------
SCF SETTINGS
------------
Hamiltonian:
 Density Functional     Method          .... DFT(GTOs)
 Exchange Functional    Exchange        .... LC-PBE
 Correlation Functional Correlation     .... P86
 LDA part of GGA corr.  LDAOpt          .... VWN-5
 Gradients option       PostSCFGGA      .... off
 Hybrid DFT is turned on
   Fraction HF Exchange ScalHFX         ....  0.700000
   Scaling of DF-GGA-X  ScalDFX         ....  0.000000
   Scaling of DF-GGA-C  ScalDFC         ....  0.680000
   Scaling of DF-LDA-C  ScalLDAC        ....  0.680000
   Perturbative correction              ....  0.480000
   Density functional embedding theory  .... OFF
 Long-range corrected/Screened/Range-Separated Hybrid DFT is turned on
   Amount of maximum screened exact exchange              ....  0.300000
   Range separation parameter mu (erf(mu*r12)/r12)        ....  0.180000
 RI-approximation to the Coulomb term is turned on
   Number of AuxJ basis functions       .... 1750
   RIJ-COSX (HFX calculated with COS-X)).... on


General Settings:
 Integral files         IntName         .... BOH-Acr_m_M06L_def2TZVP_coords
 Hartree-Fock type      HFTyp           .... RHF
 Total Charge           Charge          ....    1
 Multiplicity           Mult            ....    1
 Number of Electrons    NEL             ....  212
 Basis Dimension        Dim             .... 1087
 Nuclear Repulsion      ENuc            ....   2790.2616683794 Eh

Convergence Acceleration:
 DIIS                   CNVDIIS         .... on
   Start iteration      DIISMaxIt       ....    12
   Startup error        DIISStart       ....  0.200000
   # of expansion vecs  DIISMaxEq       ....     5
   Bias factor          DIISBfac        ....   1.050
   Max. coefficient     DIISMaxC        ....  10.000
 Trust-Rad. Augm. Hess. CNVTRAH         .... auto
   Auto Start mean grad. ratio tolernc. ....  1.125000
   Auto Start start iteration           ....    20
   Auto Start num. interpolation iter.  ....    10
   Max. Number of Micro iterations      ....    16
   Max. Number of Macro iterations      .... Maxiter - #DIIS iter
   Number of Davidson start vectors     ....     2
   Converg. threshold I  (grad. norm)   ....   1.000e-05
   Converg. threshold II (energy diff.) ....   1.000e-08
   Grad. Scal. Fac. for Micro threshold ....   0.100
   Minimum threshold for Micro iter.    ....   0.010
   NR start threshold (gradient norm)   ....   0.001
   Initial trust radius                 ....   0.400
   Minimum AH scaling param. (alpha)    ....   1.000
   Maximum AH scaling param. (alpha)    .... 1000.000
   Orbital update algorithm             .... Taylor
   White noise on init. David. guess    .... on
   Maximum white noise                  ....   0.010
   Quad. conv. algorithm                .... NR
 SOSCF                  CNVSOSCF        .... on
   Start iteration      SOSCFMaxIt      ....   150
   Startup grad/error   SOSCFStart      ....  0.003300
 Level Shifting         CNVShift        .... on
   Level shift para.    LevelShift      ....    0.2500
   Turn off err/grad.   ShiftErr        ....    0.0010
 Zerner damping         CNVZerner       .... off
 Static damping         CNVDamp         .... on
   Fraction old density DampFac         ....    0.7000
   Max. Damping (<1)    DampMax         ....    0.9800
   Min. Damping (>=0)   DampMin         ....    0.0000
   Turn off err/grad.   DampErr         ....    0.1000
 Fernandez-Rico         CNVRico         .... off

SCF Procedure:
 Maximum # iterations   MaxIter         ....   125
 SCF integral mode      SCFMode         .... Direct
   Integral package                     .... SHARK and LIBINT hybrid scheme
 Reset frequency        DirectResetFreq ....    20
 Integral Threshold     Thresh          ....  2.500e-11 Eh
 Primitive CutOff       TCut            ....  2.500e-12 Eh

Convergence Tolerance:
 Convergence Check Mode ConvCheckMode   .... Total+1el-Energy
 Convergence forced     ConvForced      .... 1
 Energy Change          TolE            ....  1.000e-08 Eh
 1-El. energy change                    ....  1.000e-05 Eh
 Orbital Gradient       TolG            ....  1.000e-05
 Orbital Rotation angle TolX            ....  1.000e-05
 DIIS Error             TolErr          ....  5.000e-07


Diagonalization of the overlap matrix:
Smallest eigenvalue                        ... 4.730e-06
Time for diagonalization                   ...    0.501 sec
Threshold for overlap eigenvalues          ... 1.000e-08
Number of eigenvalues below threshold      ... 0
Time for construction of square roots      ...    0.337 sec
Total time needed                          ...    0.847 sec

Time for model grid setup =    2.490 sec

------------------------------
INITIAL GUESS: MODEL POTENTIAL
------------------------------
Loading Hartree-Fock densities                     ... done
Calculating cut-offs                               ... done
Initializing the effective Hamiltonian             ... done
Setting up the integral package (SHARK)            ... done
Starting the Coulomb interaction                   ... done (   7.0 sec)
Reading the grid                                   ... done
Mapping shells                                     ... done
Starting the XC term evaluation                    ... done (   3.1 sec)
  promolecular density results
     # of electrons  =    212.988088447
     EX              =   -167.374970528
     EC              =     -3.487970774
     EX+EC           =   -170.862941302
Transforming the Hamiltonian                       ... done (   0.7 sec)
Diagonalizing the Hamiltonian                      ... done (   1.6 sec)
Back transforming the eigenvectors                 ... done (   0.3 sec)
Now organizing SCF variables                       ... done
                      ------------------
                      INITIAL GUESS DONE (  15.3 sec)
                      ------------------
-------------------
DFT GRID GENERATION
-------------------

General Integration Accuracy     IntAcc      ... 4.388
Radial Grid Type                 RadialGrid  ... OptM3 with GC (2021)
Angular Grid (max. ang.)         AngularGrid ... 4 (Lebedev-302)
Angular grid pruning method      GridPruning ... 4 (adaptive)
Weight generation scheme         WeightScheme... Becke
Basis function cutoff            BFCut       ... 1.0000e-11
Integration weight cutoff        WCut        ... 1.0000e-14
Angular grids for H and He will be reduced by one unit
Partially contracted basis set               ... off
Rotationally invariant grid construction     ... off

Total number of grid points                  ...   251101
Total number of batches                      ...     3950
Average number of points per batch           ...       63
Average number of grid points per atom       ...     4829
Time for grid setup =    7.222 sec

--------------------
COSX GRID GENERATION
--------------------

GRIDX 1
-------
General Integration Accuracy     IntAcc      ... 3.816
Radial Grid Type                 RadialGrid  ... OptM3 with GC (2021)
Angular Grid (max. ang.)         AngularGrid ... 1 (Lebedev-50)
Angular grid pruning method      GridPruning ... 4 (adaptive)
Weight generation scheme         WeightScheme... Becke
Basis function cutoff            BFCut       ... 1.0000e-11
Integration weight cutoff        WCut        ... 1.0000e-14
Angular grids for H and He will be reduced by one unit
Partially contracted basis set               ... on
Rotationally invariant grid construction     ... off

Total number of grid points                  ...    31884
Total number of batches                      ...      523
Average number of points per batch           ...       60
Average number of grid points per atom       ...      613
UseSFitting                                  ... on

GRIDX 2
-------
General Integration Accuracy     IntAcc      ... 4.020
Radial Grid Type                 RadialGrid  ... OptM3 with GC (2021)
Angular Grid (max. ang.)         AngularGrid ... 2 (Lebedev-110)
Angular grid pruning method      GridPruning ... 4 (adaptive)
Weight generation scheme         WeightScheme... Becke
Basis function cutoff            BFCut       ... 1.0000e-11
Integration weight cutoff        WCut        ... 1.0000e-14
Angular grids for H and He will be reduced by one unit
Partially contracted basis set               ... on
Rotationally invariant grid construction     ... off

Total number of grid points                  ...    69335
Total number of batches                      ...     1111
Average number of points per batch           ...       62
Average number of grid points per atom       ...     1333
UseSFitting                                  ... on

GRIDX 3
-------
General Integration Accuracy     IntAcc      ... 4.338
Radial Grid Type                 RadialGrid  ... OptM3 with GC (2021)
Angular Grid (max. ang.)         AngularGrid ... 3 (Lebedev-194)
Angular grid pruning method      GridPruning ... 4 (adaptive)
Weight generation scheme         WeightScheme... Becke
Basis function cutoff            BFCut       ... 1.0000e-11
Integration weight cutoff        WCut        ... 1.0000e-14
Angular grids for H and He will be reduced by one unit
Partially contracted basis set               ... on
Rotationally invariant grid construction     ... off

Total number of grid points                  ...   151504
Total number of batches                      ...     2393
Average number of points per batch           ...       63
Average number of grid points per atom       ...     2914
UseSFitting                                  ... on

Time for X-Grid setup             =   13.047 sec


--------------------
CPCM SOLVATION MODEL
--------------------
CPCM parameters:
  Epsilon                                         ...      35.6880
  Refrac                                          ...       1.3442
  Rsolv                                           ...       1.3000
  Surface type                                    ... GAUSSIAN VDW
  Epsilon function type                           ...         CPCM
Solvent:                                     ... ACETONITRILE
SMD-CDS solvent descriptors:
  Soln                                       ...    1.3442
  Soln25                                     ...    1.3416
  Sola                                       ...    0.0700
  Solb                                       ...    0.3200
  Solg                                       ...   41.2500
  Solc                                       ...    0.0000
  Solh                                       ...    0.0000
Radii:
 Radius for C  used is    3.4960 Bohr (=   1.8500 Ang.)
 Radius for H  used is    2.2677 Bohr (=   1.2000 Ang.)
 Radius for N  used is    3.5716 Bohr (=   1.8900 Ang.)
 Radius for O  used is    4.0969 Bohr (=   2.1680 Ang.)
 Radius for B  used is    3.6283 Bohr (=   1.9200 Ang.)
Calculating surface                               ...        done! (  0.1s)
GEPOL surface points                              ...         2792
GEPOL Volume                                      ...    2961.0348
GEPOL Surface-area                                ...    1569.7104
Calculating surface distance matrix               ...        done! (  0.1s)
Performing Cholesky decomposition & store         ...        done! (  1.6s)
Overall time for CPCM initialization              ...                 1.8s
--------------
SCF ITERATIONS
--------------
ITER       Energy         Delta-E        Max-DP      RMS-DP      [F,P]     Damp
               ***  Starting incremental Fock matrix formation  ***
  0  -1304.8149677229   0.000000000000 0.03593853  0.00047185  0.2656110 0.7000
  1  -1305.0668392167  -0.251871493821 0.04047191  0.00039810  0.1501434 0.7000
                               ***Turning on DIIS***
  2  -1305.2140584420  -0.147219225284 0.10430613  0.00095021  0.0743661 0.0000
  3  -1305.4915652334  -0.277506791404 0.03526046  0.00026798  0.0557585 0.0000
  4  -1305.5122904691  -0.020725235670 0.01015335  0.00010095  0.0078775 0.0000
  5  -1305.5132954686  -0.001004999516 0.00444409  0.00004800  0.0035712 0.0000
                      *** Initiating the SOSCF procedure ***
                           *** Shutting down DIIS ***
                      *** Re-Reading the Fockian *** 
                      *** Removing any level shift *** 
ITER      Energy       Delta-E        Grad      Rot      Max-DP    RMS-DP
  6  -1305.51355961  -0.0002641439  0.002058  0.002058  0.001989  0.000024
               *** Restarting incremental Fock matrix formation ***
  7  -1305.51339143   0.0001681863  0.001311  0.004633  0.014265  0.000141
  8  -1305.51344215  -0.0000507261  0.000766  0.007127  0.006235  0.000067
  9  -1305.51346816  -0.0000260125  0.000219  0.000403  0.005577  0.000055
 10  -1305.51347078  -0.0000026154  0.000081  0.000160  0.000311  0.000005
 11  -1305.51347136  -0.0000005816  0.000031  0.000210  0.000368  0.000004
 12  -1305.51347147  -0.0000001041  0.000023  0.000143  0.000196  0.000002
 13  -1305.51347147   0.0000000001  0.000006  0.000010  0.000101  0.000001
                  ***Gradient check signals convergence***
              ***Rediagonalizing the Fockian in SOSCF/NRSCF***

               *****************************************************
               *                     SUCCESS                       *
               *           SCF CONVERGED AFTER  14 CYCLES          *
               *****************************************************

Old exchange energy                            =   -130.642109914 Eh
New exchange energy                            =   -130.642106229 Eh
Exchange energy change after final integration =      0.000003684 Eh
Total energy after final integration           =  -1305.513467788 Eh
Final COS-X integration done in                =   289.088 sec

SMD CDS free energy correction energy :                -5.65951     Kcal/mol
Total Energy after SMD CDS correction =             -1305.522486787 Eh

----------------
TOTAL SCF ENERGY
----------------

Total Energy       :        -1305.52248679 Eh          -35525.07293 eV

Components:
Nuclear Repulsion  :         2790.26166838 Eh           75926.88004 eV
Electronic Energy  :        -4095.78415517 Eh         -111451.95297 eV
One Electron Energy:        -7296.74545886 Eh         -198554.53825 eV
Two Electron Energy:         3200.96130370 Eh           87102.58528 eV
Max COSX asymmetry :            0.00000608 Eh               0.00017 eV
CPCM Dielectric    :           -0.08333482 Eh              -2.26766 eV
SMD CDS (Gcds)     :           -0.00901900 Eh              -0.24542 eV

Virial components:
Potential Energy   :        -2605.75035301 Eh          -70906.07190 eV
Kinetic Energy     :         1300.22786622 Eh           35380.99898 eV
Virial Ratio       :            2.00407207


DFT components:
N(Alpha)           :      106.000133271217 electrons
N(Beta)            :      106.000133271217 electrons
N(Total)           :      212.000266542435 electrons
E(X)               :      -46.242668791765 Eh       
E(C)               :       -5.334569565353 Eh       
E(XC)              :      -51.577238357118 Eh       
DFET-embed. en.    :        0.000000000000 Eh       
CPCM Solvation Model Properties:
Surface-charge          :           -1.04901068
Charge-correction       :            0.00476409 Eh               0.12964 eV
Free-energy (cav+disp)  :           -0.00901900 Eh              -0.24542 eV

---------------
SCF CONVERGENCE
---------------

  Last Energy change         ...   -6.3965e-09  Tolerance :   1.0000e-08
  Last MAX-Density change    ...    2.8866e-15  Tolerance :   1.0000e-07
  Last RMS-Density change    ...    1.2795e-17  Tolerance :   5.0000e-09
  Last Orbital Gradient      ...    1.8845e-06  Tolerance :   1.0000e-05
  Last Orbital Rotation      ...    6.4209e-06  Tolerance :   1.0000e-05

             **** THE GBW FILE WAS UPDATED (BOH-Acr_m_M06L_def2TZVP_coords.gbw) ****
             **** DENSITY BOH-Acr_m_M06L_def2TZVP_coords.scfp WAS UPDATED ****
             **** ENERGY FILE WAS UPDATED (BOH-Acr_m_M06L_def2TZVP_coords.en.tmp) ****
             **** THE GBW FILE WAS UPDATED (BOH-Acr_m_M06L_def2TZVP_coords.gbw) ****
             **** DENSITY BOH-Acr_m_M06L_def2TZVP_coords.scfp WAS UPDATED ****
----------------
ORBITAL ENERGIES
----------------

  NO   OCC          E(Eh)            E(eV) 
   0   2.0000     -20.094702      -546.8046 
   1   2.0000     -20.069836      -546.1280 
   2   2.0000     -20.065045      -545.9976 
   3   2.0000     -15.237113      -414.6229 
   4   2.0000     -10.964344      -298.3550 
   5   2.0000     -10.964314      -298.3542 
   6   2.0000     -10.952543      -298.0338 
   7   2.0000     -10.945536      -297.8432 
   8   2.0000     -10.918797      -297.1156 
   9   2.0000     -10.913982      -296.9846 
  10   2.0000     -10.913957      -296.9839 
  11   2.0000     -10.904051      -296.7143 
  12   2.0000     -10.898102      -296.5524 
  13   2.0000     -10.898064      -296.5514 
  14   2.0000     -10.897746      -296.5427 
  15   2.0000     -10.894264      -296.4480 
  16   2.0000     -10.894160      -296.4452 
  17   2.0000     -10.887352      -296.2599 
  18   2.0000     -10.886896      -296.2475 
  19   2.0000     -10.886418      -296.2345 
  20   2.0000     -10.885728      -296.2157 
  21   2.0000     -10.885308      -296.2043 
  22   2.0000     -10.885265      -296.2031 
  23   2.0000     -10.883071      -296.1434 
  24   2.0000     -10.880989      -296.0868 
  25   2.0000     -10.880881      -296.0838 
  26   2.0000     -10.875322      -295.9325 
  27   2.0000     -10.874889      -295.9208 
  28   2.0000     -10.873584      -295.8853 
  29   2.0000     -10.863344      -295.6066 
  30   2.0000      -7.345978      -199.8942 
  31   2.0000      -1.341310       -36.4989 
  32   2.0000      -1.303674       -35.4748 
  33   2.0000      -1.285034       -34.9676 
  34   2.0000      -1.264933       -34.4206 
  35   2.0000      -1.144014       -31.1302 
  36   2.0000      -1.126080       -30.6422 
  37   2.0000      -1.110628       -30.2217 
  38   2.0000      -1.096498       -29.8372 
  39   2.0000      -1.063395       -28.9365 
  40   2.0000      -1.011428       -27.5224 
  41   2.0000      -0.997629       -27.1469 
  42   2.0000      -0.993604       -27.0373 
  43   2.0000      -0.985204       -26.8088 
  44   2.0000      -0.977687       -26.6042 
  45   2.0000      -0.976140       -26.5621 
  46   2.0000      -0.958427       -26.0801 
  47   2.0000      -0.906241       -24.6601 
  48   2.0000      -0.886316       -24.1179 
  49   2.0000      -0.859277       -23.3821 
  50   2.0000      -0.846060       -23.0225 
  51   2.0000      -0.818004       -22.2590 
  52   2.0000      -0.809383       -22.0244 
  53   2.0000      -0.802335       -21.8326 
  54   2.0000      -0.798354       -21.7243 
  55   2.0000      -0.769757       -20.9462 
  56   2.0000      -0.749772       -20.4023 
  57   2.0000      -0.747059       -20.3285 
  58   2.0000      -0.733037       -19.9469 
  59   2.0000      -0.721853       -19.6426 
  60   2.0000      -0.714457       -19.4414 
  61   2.0000      -0.693939       -18.8830 
  62   2.0000      -0.680489       -18.5170 
  63   2.0000      -0.672538       -18.3007 
  64   2.0000      -0.662377       -18.0242 
  65   2.0000      -0.649833       -17.6828 
  66   2.0000      -0.643577       -17.5126 
  67   2.0000      -0.639965       -17.4143 
  68   2.0000      -0.632263       -17.2048 
  69   2.0000      -0.629037       -17.1170 
  70   2.0000      -0.610922       -16.6240 
  71   2.0000      -0.609068       -16.5736 
  72   2.0000      -0.606620       -16.5070 
  73   2.0000      -0.602624       -16.3982 
  74   2.0000      -0.599222       -16.3057 
  75   2.0000      -0.594433       -16.1753 
  76   2.0000      -0.586171       -15.9505 
  77   2.0000      -0.583937       -15.8897 
  78   2.0000      -0.574141       -15.6232 
  79   2.0000      -0.560909       -15.2631 
  80   2.0000      -0.556886       -15.1536 
  81   2.0000      -0.550489       -14.9796 
  82   2.0000      -0.538761       -14.6604 
  83   2.0000      -0.536737       -14.6054 
  84   2.0000      -0.532287       -14.4843 
  85   2.0000      -0.528493       -14.3810 
  86   2.0000      -0.526549       -14.3281 
  87   2.0000      -0.517194       -14.0736 
  88   2.0000      -0.512711       -13.9516 
  89   2.0000      -0.505836       -13.7645 
  90   2.0000      -0.503862       -13.7108 
  91   2.0000      -0.500422       -13.6172 
  92   2.0000      -0.486997       -13.2519 
  93   2.0000      -0.480466       -13.0742 
  94   2.0000      -0.478541       -13.0218 
  95   2.0000      -0.470467       -12.8021 
  96   2.0000      -0.466695       -12.6994 
  97   2.0000      -0.464595       -12.6423 
  98   2.0000      -0.438738       -11.9387 
  99   2.0000      -0.389033       -10.5861 
 100   2.0000      -0.368646       -10.0314 
 101   2.0000      -0.365291        -9.9401 
 102   2.0000      -0.364241        -9.9115 
 103   2.0000      -0.358949        -9.7675 
 104   2.0000      -0.337986        -9.1971 
 105   2.0000      -0.327447        -8.9103 
 106   0.0000      -0.043710        -1.1894 
 107   0.0000       0.033645         0.9155 
 108   0.0000       0.043051         1.1715 
 109   0.0000       0.056556         1.5390 
 110   0.0000       0.065099         1.7714 
 111   0.0000       0.076889         2.0922 
 112   0.0000       0.084528         2.3001 
 113   0.0000       0.094044         2.5591 
 114   0.0000       0.103331         2.8118 
 115   0.0000       0.122634         3.3370 
 116   0.0000       0.129704         3.5294 
 117   0.0000       0.136534         3.7153 
 118   0.0000       0.138685         3.7738 
 119   0.0000       0.144235         3.9248 
 120   0.0000       0.147005         4.0002 
 121   0.0000       0.149320         4.0632 
 122   0.0000       0.155687         4.2365 
 123   0.0000       0.159089         4.3290 
 124   0.0000       0.163777         4.4566 
 125   0.0000       0.164436         4.4745 
 126   0.0000       0.173200         4.7130 
 127   0.0000       0.174843         4.7577 
 128   0.0000       0.178488         4.8569 
 129   0.0000       0.185455         5.0465 
 130   0.0000       0.188468         5.1285 
 131   0.0000       0.193626         5.2688 
 132   0.0000       0.196781         5.3547 
 133   0.0000       0.200509         5.4561 
 134   0.0000       0.205487         5.5916 
 135   0.0000       0.210171         5.7190 
 136   0.0000       0.210561         5.7297 
 137   0.0000       0.214739         5.8433 
 138   0.0000       0.219664         5.9774 
 139   0.0000       0.225748         6.1429 
 140   0.0000       0.231805         6.3077 
 141   0.0000       0.233526         6.3546 
 142   0.0000       0.243335         6.6215 
 143   0.0000       0.243575         6.6280 
 144   0.0000       0.249829         6.7982 
 145   0.0000       0.252557         6.8724 
 146   0.0000       0.253626         6.9015 
 147   0.0000       0.262914         7.1543 
 148   0.0000       0.266951         7.2641 
 149   0.0000       0.268247         7.2994 
 150   0.0000       0.277257         7.5446 
 151   0.0000       0.284399         7.7389 
 152   0.0000       0.286162         7.7869 
 153   0.0000       0.290390         7.9019 
 154   0.0000       0.293936         7.9984 
 155   0.0000       0.295981         8.0541 
 156   0.0000       0.298369         8.1190 
 157   0.0000       0.302582         8.2337 
 158   0.0000       0.304776         8.2934 
 159   0.0000       0.306882         8.3507 
 160   0.0000       0.312905         8.5146 
 161   0.0000       0.316185         8.6038 
 162   0.0000       0.318749         8.6736 
 163   0.0000       0.323413         8.8005 
 164   0.0000       0.326292         8.8789 
 165   0.0000       0.327955         8.9241 
 166   0.0000       0.330985         9.0066 
 167   0.0000       0.333127         9.0649 
 168   0.0000       0.337964         9.1965 
 169   0.0000       0.340202         9.2574 
 170   0.0000       0.344063         9.3624 
 171   0.0000       0.346021         9.4157 
 172   0.0000       0.352197         9.5838 
 173   0.0000       0.354662         9.6508 
 174   0.0000       0.360610         9.8127 
 175   0.0000       0.364937         9.9305 
 176   0.0000       0.366448         9.9716 
 177   0.0000       0.372207        10.1283 
 178   0.0000       0.373702        10.1690 
 179   0.0000       0.375081        10.2065 
 180   0.0000       0.381075        10.3696 
 181   0.0000       0.384133        10.4528 
 182   0.0000       0.388512        10.5719 
 183   0.0000       0.392972        10.6933 
 184   0.0000       0.394587        10.7373 
 185   0.0000       0.400291        10.8925 
 186   0.0000       0.402451        10.9512 
 187   0.0000       0.404238        10.9999 
 188   0.0000       0.406960        11.0739 
 189   0.0000       0.410608        11.1732 
 190   0.0000       0.419340        11.4108 
 191   0.0000       0.422814        11.5054 
 192   0.0000       0.428344        11.6558 
 193   0.0000       0.431385        11.7386 
 194   0.0000       0.435090        11.8394 
 195   0.0000       0.437958        11.9175 
 196   0.0000       0.440706        11.9922 
 197   0.0000       0.451017        12.2728 
 198   0.0000       0.452289        12.3074 
 199   0.0000       0.454251        12.3608 
 200   0.0000       0.458356        12.4725 
 201   0.0000       0.462391        12.5823 
 202   0.0000       0.465026        12.6540 
 203   0.0000       0.468784        12.7562 
 204   0.0000       0.473383        12.8814 
 205   0.0000       0.474531        12.9126 
 206   0.0000       0.477864        13.0034 
 207   0.0000       0.479691        13.0530 
 208   0.0000       0.481383        13.0991 
 209   0.0000       0.487495        13.2654 
 210   0.0000       0.495086        13.4720 
 211   0.0000       0.495827        13.4921 
 212   0.0000       0.501264        13.6401 
 213   0.0000       0.505414        13.7530 
 214   0.0000       0.506634        13.7862 
 215   0.0000       0.508738        13.8435 
 216   0.0000       0.514497        14.0002 
 217   0.0000       0.515300        14.0220 
 218   0.0000       0.516241        14.0476 
 219   0.0000       0.522401        14.2152 
 220   0.0000       0.523972        14.2580 
 221   0.0000       0.527564        14.3558 
 222   0.0000       0.529068        14.3967 
 223   0.0000       0.533373        14.5138 
 224   0.0000       0.534610        14.5475 
 225   0.0000       0.535446        14.5702 
 226   0.0000       0.539361        14.6768 
 227   0.0000       0.545988        14.8571 
 228   0.0000       0.548225        14.9179 
 229   0.0000       0.553109        15.0509 
 230   0.0000       0.555209        15.1080 
 231   0.0000       0.560830        15.2610 
 232   0.0000       0.562690        15.3116 
 233   0.0000       0.565010        15.3747 
 234   0.0000       0.567452        15.4412 
 235   0.0000       0.569711        15.5026 
 236   0.0000       0.575334        15.6556 
 237   0.0000       0.579254        15.7623 
 238   0.0000       0.585771        15.9396 
 239   0.0000       0.585864        15.9422 
 240   0.0000       0.587547        15.9880 
 241   0.0000       0.587809        15.9951 
 242   0.0000       0.593262        16.1435 
 243   0.0000       0.598912        16.2972 
 244   0.0000       0.600001        16.3269 
 245   0.0000       0.604036        16.4366 
 246   0.0000       0.608147        16.5485 
 247   0.0000       0.611376        16.6364 
 248   0.0000       0.612836        16.6761 
 249   0.0000       0.616321        16.7709 
 250   0.0000       0.618500        16.8303 
 251   0.0000       0.622704        16.9446 
 252   0.0000       0.623827        16.9752 
 253   0.0000       0.628808        17.1107 
 254   0.0000       0.633670        17.2430 
 255   0.0000       0.644303        17.5324 
 256   0.0000       0.646865        17.6021 
 257   0.0000       0.654846        17.8193 
 258   0.0000       0.658610        17.9217 
 259   0.0000       0.666152        18.1269 
 260   0.0000       0.668306        18.1855 
 261   0.0000       0.669019        18.2049 
 262   0.0000       0.674282        18.3482 
 263   0.0000       0.679027        18.4773 
 264   0.0000       0.681902        18.5555 
 265   0.0000       0.691273        18.8105 
 266   0.0000       0.701877        19.0991 
 267   0.0000       0.703868        19.1532 
 268   0.0000       0.705062        19.1857 
 269   0.0000       0.711905        19.3719 
 270   0.0000       0.713342        19.4110 
 271   0.0000       0.719732        19.5849 
 272   0.0000       0.722314        19.6552 
 273   0.0000       0.726116        19.7586 
 274   0.0000       0.732203        19.9243 
 275   0.0000       0.734812        19.9953 
 276   0.0000       0.747341        20.3362 
 277   0.0000       0.750428        20.4202 
 278   0.0000       0.751250        20.4426 
 279   0.0000       0.753021        20.4907 
 280   0.0000       0.755893        20.5689 
 281   0.0000       0.764524        20.8037 
 282   0.0000       0.767169        20.8757 
 283   0.0000       0.772959        21.0333 
 284   0.0000       0.775468        21.1016 
 285   0.0000       0.782013        21.2796 
 286   0.0000       0.783628        21.3236 
 287   0.0000       0.787016        21.4158 
 288   0.0000       0.790104        21.4998 
 289   0.0000       0.792066        21.5532 
 290   0.0000       0.798636        21.7320 
 291   0.0000       0.800527        21.7834 
 292   0.0000       0.802955        21.8495 
 293   0.0000       0.806603        21.9488 
 294   0.0000       0.815345        22.1867 
 295   0.0000       0.821745        22.3608 
 296   0.0000       0.830447        22.5976 
 297   0.0000       0.831607        22.6292 
 298   0.0000       0.835933        22.7469 
 299   0.0000       0.841743        22.9050 
 300   0.0000       0.844177        22.9712 
 301   0.0000       0.846700        23.0399 
 302   0.0000       0.849678        23.1209 
 303   0.0000       0.852760        23.2048 
 304   0.0000       0.856994        23.3200 
 305   0.0000       0.861076        23.4311 
 306   0.0000       0.864834        23.5333 
 307   0.0000       0.868005        23.6196 
 308   0.0000       0.871441        23.7131 
 309   0.0000       0.873221        23.7616 
 310   0.0000       0.875020        23.8105 
 311   0.0000       0.879475        23.9317 
 312   0.0000       0.882177        24.0053 
 313   0.0000       0.884977        24.0814 
 314   0.0000       0.888066        24.1655 
 315   0.0000       0.891448        24.2575 
 316   0.0000       0.895589        24.3702 
 317   0.0000       0.905806        24.6482 
 318   0.0000       0.908498        24.7215 
 319   0.0000       0.912931        24.8421 
 320   0.0000       0.926377        25.2080 
 321   0.0000       0.930221        25.3126 
 322   0.0000       0.933017        25.3887 
 323   0.0000       0.936378        25.4801 
 324   0.0000       0.937118        25.5003 
 325   0.0000       0.948431        25.8081 
 326   0.0000       0.953445        25.9446 
 327   0.0000       0.962146        26.1813 
 328   0.0000       0.963495        26.2180 
 329   0.0000       0.967662        26.3314 
 330   0.0000       0.973637        26.4940 
 331   0.0000       0.978027        26.6135 
 332   0.0000       0.983473        26.7617 
 333   0.0000       0.984737        26.7960 
 334   0.0000       0.987166        26.8621 
 335   0.0000       0.993471        27.0337 
 336   0.0000       0.998646        27.1745 
 337   0.0000       1.003138        27.2968 
 338   0.0000       1.006557        27.3898 
 339   0.0000       1.009887        27.4804 
 340   0.0000       1.014089        27.5948 
 341   0.0000       1.017727        27.6938 
 342   0.0000       1.024695        27.8834 
 343   0.0000       1.030351        28.0373 
 344   0.0000       1.032582        28.0980 
 345   0.0000       1.034846        28.1596 
 346   0.0000       1.046531        28.4775 
 347   0.0000       1.049414        28.5560 
 348   0.0000       1.057040        28.7635 
 349   0.0000       1.061578        28.8870 
 350   0.0000       1.065750        29.0005 
 351   0.0000       1.071829        29.1660 
 352   0.0000       1.080006        29.3884 
 353   0.0000       1.082824        29.4651 
 354   0.0000       1.094203        29.7748 
 355   0.0000       1.098362        29.8880 
 356   0.0000       1.102108        29.9899 
 357   0.0000       1.110085        30.2070 
 358   0.0000       1.115414        30.3520 
 359   0.0000       1.122835        30.5539 
 360   0.0000       1.130956        30.7749 
 361   0.0000       1.135940        30.9105 
 362   0.0000       1.140199        31.0264 
 363   0.0000       1.147157        31.2157 
 364   0.0000       1.157705        31.5028 
 365   0.0000       1.158835        31.5335 
 366   0.0000       1.172465        31.9044 
 367   0.0000       1.177202        32.0333 
 368   0.0000       1.180359        32.1192 
 369   0.0000       1.182654        32.1816 
 370   0.0000       1.188425        32.3387 
 371   0.0000       1.197265        32.5792 
 372   0.0000       1.206322        32.8257 
 373   0.0000       1.211428        32.9646 
 374   0.0000       1.215432        33.0736 
 375   0.0000       1.217831        33.1389 
 376   0.0000       1.225142        33.3378 
 377   0.0000       1.231233        33.5036 
 378   0.0000       1.233786        33.5730 
 379   0.0000       1.248948        33.9856 
 380   0.0000       1.252284        34.0764 
 381   0.0000       1.258123        34.2353 
 382   0.0000       1.265283        34.4301 
 383   0.0000       1.273892        34.6644 
 384   0.0000       1.283141        34.9160 
 385   0.0000       1.286961        35.0200 
 386   0.0000       1.293933        35.2097 
 387   0.0000       1.298816        35.3426 
 388   0.0000       1.310275        35.6544 
 389   0.0000       1.315299        35.7911 
 390   0.0000       1.324293        36.0358 
 391   0.0000       1.329840        36.1868 
 392   0.0000       1.335750        36.3476 
 393   0.0000       1.339355        36.4457 
 394   0.0000       1.346215        36.6324 
 395   0.0000       1.360013        37.0078 
 396   0.0000       1.361773        37.0557 
 397   0.0000       1.368616        37.2419 
 398   0.0000       1.370559        37.2948 
 399   0.0000       1.377869        37.4937 
 400   0.0000       1.383364        37.6432 
 401   0.0000       1.391933        37.8764 
 402   0.0000       1.397147        38.0183 
 403   0.0000       1.400597        38.1122 
 404   0.0000       1.404686        38.2234 
 405   0.0000       1.405875        38.2558 
 406   0.0000       1.412759        38.4431 
 407   0.0000       1.421475        38.6803 
 408   0.0000       1.425401        38.7871 
 409   0.0000       1.434366        39.0311 
 410   0.0000       1.435446        39.0605 
 411   0.0000       1.440900        39.2089 
 412   0.0000       1.448430        39.4138 
 413   0.0000       1.455413        39.6038 
 414   0.0000       1.457297        39.6551 
 415   0.0000       1.461548        39.7707 
 416   0.0000       1.465789        39.8862 
 417   0.0000       1.471056        40.0295 
 418   0.0000       1.472331        40.0642 
 419   0.0000       1.478083        40.2207 
 420   0.0000       1.488756        40.5111 
 421   0.0000       1.492189        40.6045 
 422   0.0000       1.493914        40.6515 
 423   0.0000       1.504940        40.9515 
 424   0.0000       1.517552        41.2947 
 425   0.0000       1.531810        41.6827 
 426   0.0000       1.532247        41.6946 
 427   0.0000       1.543817        42.0094 
 428   0.0000       1.551846        42.2279 
 429   0.0000       1.555267        42.3210 
 430   0.0000       1.562715        42.5236 
 431   0.0000       1.578196        42.9449 
 432   0.0000       1.581678        43.0396 
 433   0.0000       1.584985        43.1296 
 434   0.0000       1.590685        43.2847 
 435   0.0000       1.603975        43.6464 
 436   0.0000       1.613980        43.9186 
 437   0.0000       1.620623        44.0994 
 438   0.0000       1.622581        44.1527 
 439   0.0000       1.634066        44.4652 
 440   0.0000       1.636147        44.5218 
 441   0.0000       1.642291        44.6890 
 442   0.0000       1.647595        44.8333 
 443   0.0000       1.652091        44.9557 
 444   0.0000       1.653573        44.9960 
 445   0.0000       1.659169        45.1483 
 446   0.0000       1.666878        45.3581 
 447   0.0000       1.676787        45.6277 
 448   0.0000       1.683421        45.8082 
 449   0.0000       1.685861        45.8746 
 450   0.0000       1.690272        45.9946 
 451   0.0000       1.698472        46.2178 
 452   0.0000       1.702014        46.3142 
 453   0.0000       1.704402        46.3791 
 454   0.0000       1.707994        46.4769 
 455   0.0000       1.711739        46.5788 
 456   0.0000       1.719722        46.7960 
 457   0.0000       1.726363        46.9767 
 458   0.0000       1.727384        47.0045 
 459   0.0000       1.729936        47.0740 
 460   0.0000       1.733658        47.1752 
 461   0.0000       1.740116        47.3510 
 462   0.0000       1.748357        47.5752 
 463   0.0000       1.753992        47.7285 
 464   0.0000       1.756381        47.7936 
 465   0.0000       1.758632        47.8548 
 466   0.0000       1.759474        47.8777 
 467   0.0000       1.768279        48.1173 
 468   0.0000       1.769578        48.1527 
 469   0.0000       1.772210        48.2243 
 470   0.0000       1.776465        48.3401 
 471   0.0000       1.783327        48.5268 
 472   0.0000       1.793580        48.8058 
 473   0.0000       1.796203        48.8772 
 474   0.0000       1.799575        48.9689 
 475   0.0000       1.808632        49.2154 
 476   0.0000       1.810091        49.2551 
 477   0.0000       1.820699        49.5437 
 478   0.0000       1.822439        49.5911 
 479   0.0000       1.831886        49.8481 
 480   0.0000       1.833243        49.8851 
 481   0.0000       1.841905        50.1208 
 482   0.0000       1.847943        50.2851 
 483   0.0000       1.852510        50.4094 
 484   0.0000       1.860542        50.6279 
 485   0.0000       1.862602        50.6840 
 486   0.0000       1.869016        50.8585 
 487   0.0000       1.870664        50.9034 
 488   0.0000       1.876832        51.0712 
 489   0.0000       1.881757        51.2052 
 490   0.0000       1.888500        51.3887 
 491   0.0000       1.892070        51.4858 
 492   0.0000       1.894627        51.5554 
 493   0.0000       1.898977        51.6738 
 494   0.0000       1.899718        51.6940 
 495   0.0000       1.908096        51.9219 
 496   0.0000       1.919811        52.2407 
 497   0.0000       1.923065        52.3293 
 498   0.0000       1.930684        52.5366 
 499   0.0000       1.933941        52.6252 
 500   0.0000       1.937193        52.7137 
 501   0.0000       1.939090        52.7653 
 502   0.0000       1.944098        52.9016 
 503   0.0000       1.948662        53.0258 
 504   0.0000       1.955127        53.2017 
 505   0.0000       1.958314        53.2884 
 506   0.0000       1.963044        53.4171 
 507   0.0000       1.972860        53.6842 
 508   0.0000       1.981640        53.9232 
 509   0.0000       1.983837        53.9830 
 510   0.0000       1.989960        54.1496 
 511   0.0000       1.996053        54.3154 
 512   0.0000       2.004468        54.5443 
[...]

STATE 16:  E=   0.220997 au      6.014 eV    48503.2 cm**-1 <S**2> =   0.000000
    92a -> 106a  :     0.052645 
    95a -> 106a  :     0.016570 
    98a -> 106a  :     0.272790 
    99a -> 107a  :     0.080141 
    99a -> 108a  :     0.010030 
   101a -> 107a  :     0.067150 
   101a -> 109a  :     0.016467 
   101a -> 110a  :     0.010502 
   102a -> 107a  :     0.106059 
   103a -> 107a  :     0.089995 
   103a -> 108a  :     0.044743 
   105a -> 108a  :     0.013114 
   105a -> 109a  :     0.019291 
   105a -> 110a  :     0.010496 
   105a -> 118a  :     0.030541 

STATE 17:  E=   0.214252 au      5.830 eV    47022.8 cm**-1 <S**2> =   0.000000
    78a -> 106a  :     0.023996 
    90a -> 106a  :     0.074753 
    94a -> 106a  :     0.417569 
    97a -> 106a  :     0.176079 
   101a -> 108a  :     0.015037 
   102a -> 109a  :     0.029245 
   102a -> 110a  :     0.021022 
   102a -> 113a  :     0.010628 
   103a -> 109a  :     0.023299 

STATE 18:  E=   0.230565 au      6.274 eV    50603.2 cm**-1 <S**2> =   0.000000
    98a -> 106a  :     0.058481 
    99a -> 109a  :     0.019695 
    99a -> 110a  :     0.010904 
    99a -> 112a  :     0.020061 
   100a -> 110a  :     0.010499 
   101a -> 109a  :     0.116146 
   101a -> 110a  :     0.036811 
   102a -> 108a  :     0.060155 
   102a -> 109a  :     0.013043 
   103a -> 107a  :     0.151828 
   105a -> 108a  :     0.023325 
   105a -> 109a  :     0.065051 
   105a -> 110a  :     0.028793 
   105a -> 113a  :     0.257213 

STATE 19:  E=   0.234653 au      6.385 eV    51500.4 cm**-1 <S**2> =   0.000000
    90a -> 106a  :     0.028019 
    94a -> 106a  :     0.072011 
    97a -> 106a  :     0.024492 
    99a -> 110a  :     0.010135 
   100a -> 107a  :     0.038851 
   100a -> 109a  :     0.077869 
   100a -> 112a  :     0.011639 
   101a -> 107a  :     0.010065 
   101a -> 108a  :     0.105370 
   101a -> 109a  :     0.013501 
   102a -> 107a  :     0.012994 
   102a -> 109a  :     0.105132 
   102a -> 110a  :     0.100383 
   102a -> 113a  :     0.027063 
   103a -> 108a  :     0.033986 
   103a -> 109a  :     0.063374 
   103a -> 110a  :     0.018853 
   104a -> 111a  :     0.043875 
   105a -> 107a  :     0.011452 
   105a -> 110a  :     0.062117 

STATE 20:  E=   0.237387 au      6.460 eV    52100.4 cm**-1 <S**2> =   0.000000
    94a -> 106a  :     0.013408 
    99a -> 109a  :     0.014502 
    99a -> 112a  :     0.012757 
   100a -> 107a  :     0.080838 
   100a -> 108a  :     0.066734 
   100a -> 110a  :     0.150331 
   100a -> 112a  :     0.030057 
   101a -> 107a  :     0.021738 
   101a -> 109a  :     0.073984 
   101a -> 112a  :     0.011442 
   102a -> 108a  :     0.040678 
   102a -> 109a  :     0.042472 
   102a -> 112a  :     0.012174 
   103a -> 109a  :     0.049367 
   103a -> 110a  :     0.022161 
   104a -> 111a  :     0.154433 
   104a -> 112a  :     0.010073 
   105a -> 108a  :     0.011446 

STATE 21:  E=   0.232984 au      6.340 eV    51134.2 cm**-1 <S**2> =   0.000000
    92a -> 106a  :     0.029975 
    95a -> 106a  :     0.011879 
    98a -> 106a  :     0.092732 
    99a -> 107a  :     0.043792 
   100a -> 108a  :     0.035167 
   100a -> 109a  :     0.062044 
   100a -> 111a  :     0.019021 
   101a -> 107a  :     0.010350 
   101a -> 109a  :     0.086506 
   101a -> 110a  :     0.084703 
   101a -> 113a  :     0.021610 
   102a -> 107a  :     0.018274 
   102a -> 108a  :     0.060154 
   103a -> 110a  :     0.056165 
   103a -> 112a  :     0.017661 
   104a -> 107a  :     0.012483 
   104a -> 111a  :     0.031853 
   105a -> 108a  :     0.059818 
   105a -> 109a  :     0.090214 
   105a -> 110a  :     0.018460 

STATE 22:  E=   0.230120 au      6.262 eV    50505.5 cm**-1 <S**2> =   0.000000
    99a -> 111a  :     0.042270 
   100a -> 111a  :     0.318413 
   100a -> 112a  :     0.028859 
   101a -> 111a  :     0.067585 
   102a -> 111a  :     0.047719 
   104a -> 107a  :     0.350916 
   104a -> 108a  :     0.046840 

STATE 23:  E=   0.230029 au      6.259 eV    50485.4 cm**-1 <S**2> =   0.000000
    98a -> 107a  :     0.017489 
    98a -> 109a  :     0.012967 
    99a -> 111a  :     0.010687 
   100a -> 111a  :     0.082734 
   101a -> 107a  :     0.024734 
   101a -> 110a  :     0.014709 
   101a -> 111a  :     0.024280 
   102a -> 107a  :     0.014037 
   102a -> 109a  :     0.019148 
   102a -> 111a  :     0.014753 
   102a -> 113a  :     0.018988 
   103a -> 108a  :     0.015278 
   103a -> 109a  :     0.042733 
   103a -> 110a  :     0.020060 
   103a -> 113a  :     0.102736 
   104a -> 107a  :     0.229698 
   104a -> 109a  :     0.072855 
   104a -> 110a  :     0.102981 
   105a -> 109a  :     0.010256 

STATE 24:  E=   0.232970 au      6.339 eV    51131.1 cm**-1 <S**2> =   0.000000
    98a -> 107a  :     0.021395 
    98a -> 109a  :     0.016714 
    98a -> 110a  :     0.010306 
    98a -> 112a  :     0.013355 
   100a -> 111a  :     0.078048 
   100a -> 113a  :     0.011086 
   101a -> 107a  :     0.029897 
   101a -> 110a  :     0.026573 
   102a -> 107a  :     0.016462 
   102a -> 109a  :     0.038591 
   102a -> 111a  :     0.010838 
   102a -> 113a  :     0.020841 
   103a -> 108a  :     0.024704 
   103a -> 109a  :     0.052529 
   103a -> 110a  :     0.031976 
   103a -> 113a  :     0.145372 
   104a -> 107a  :     0.139732 
   104a -> 109a  :     0.058454 
   104a -> 110a  :     0.080898 
   105a -> 107a  :     0.022211 

STATE 25:  E=   0.232276 au      6.321 eV    50978.7 cm**-1 <S**2> =   0.000000
    64a -> 106a  :     0.017303 
    75a -> 106a  :     0.015378 
    82a -> 112a  :     0.021246 
    87a -> 106a  :     0.036738 
    88a -> 106a  :     0.016356 
    89a -> 106a  :     0.580853 
    90a -> 106a  :     0.099048 
    91a -> 106a  :     0.012053 
    92a -> 106a  :     0.013977 
    94a -> 106a  :     0.011272 
    96a -> 106a  :     0.018581 
    97a -> 106a  :     0.024955 

STATE 26:  E=   0.233638 au      6.358 eV    51277.6 cm**-1 <S**2> =   0.000000
    92a -> 106a  :     0.010528 
    94a -> 108a  :     0.010817 
    97a -> 107a  :     0.014131 
    97a -> 108a  :     0.047590 
    98a -> 108a  :     0.056185 
   101a -> 107a  :     0.026472 
   101a -> 108a  :     0.043940 
   102a -> 107a  :     0.044539 
   102a -> 108a  :     0.019858 
   105a -> 107a  :     0.063066 
   105a -> 108a  :     0.268479 
   105a -> 109a  :     0.023690 
   105a -> 110a  :     0.165964 
   105a -> 113a  :     0.034540 

STATE 27:  E=   0.237094 au      6.452 eV    52036.0 cm**-1 <S**2> =   0.000000
    92a -> 111a  :     0.016066 
    95a -> 111a  :     0.027034 
   105a -> 110a  :     0.094859 
   105a -> 111a  :     0.712568 
   105a -> 112a  :     0.011430 

STATE 28:  E=   0.237836 au      6.472 eV    52198.9 cm**-1 <S**2> =   0.000000
    85a -> 106a  :     0.060938 
    87a -> 106a  :     0.093397 
    88a -> 106a  :     0.033431 
    89a -> 106a  :     0.017051 
    90a -> 107a  :     0.012033 
    90a -> 112a  :     0.018804 
    91a -> 106a  :     0.503391 
    94a -> 107a  :     0.015263 
    94a -> 112a  :     0.016808 
    96a -> 106a  :     0.030809 

STATE 29:  E=   0.243019 au      6.613 eV    53336.5 cm**-1 <S**2> =   0.000000
    92a -> 106a  :     0.012789 
    98a -> 107a  :     0.017402 
    99a -> 107a  :     0.011867 
   100a -> 109a  :     0.015799 
   101a -> 107a  :     0.129867 
   101a -> 108a  :     0.082454 
   101a -> 112a  :     0.018227 
   102a -> 107a  :     0.205613 
   102a -> 110a  :     0.034036 
   103a -> 108a  :     0.100758 
   103a -> 110a  :     0.017029 
   103a -> 112a  :     0.018535 
   103a -> 113a  :     0.014559 
   103a -> 118a  :     0.020086 
   105a -> 109a  :     0.060471 
   105a -> 112a  :     0.037556 
   105a -> 113a  :     0.018499 

STATE 30:  E=   0.242888 au      6.609 eV    53307.8 cm**-1 <S**2> =   0.000000
    92a -> 106a  :     0.028446 
    95a -> 106a  :     0.013039 
    97a -> 108a  :     0.013211 
   101a -> 107a  :     0.011558 
   102a -> 107a  :     0.026362 
   102a -> 109a  :     0.012969 
   103a -> 109a  :     0.010349 
   104a -> 111a  :     0.010839 
   105a -> 108a  :     0.017643 
   105a -> 110a  :     0.192665 
   105a -> 111a  :     0.101483 
   105a -> 112a  :     0.339839 


-------------------------
TD-DFT-EXCITATION SPECTRA
-------------------------

Center of mass = (  0.0714, -0.0045, -0.0048)
Calculating the Dipole integrals                  ... done
Transforming integrals                            ... done
Calculating the Linear Momentum integrals         ... done
Transforming integrals                            ... done
Calculating angular momentum integrals            ... done
Transforming integrals                            ... done

-----------------------------------------------------------------------------
         ABSORPTION SPECTRUM VIA TRANSITION ELECTRIC DIPOLE MOMENTS
-----------------------------------------------------------------------------
State   Energy    Wavelength  fosc         T2        TX        TY        TZ  
        (cm-1)      (nm)                 (au**2)    (au)      (au)      (au) 
-----------------------------------------------------------------------------
   1   24577.6    406.9   0.274255425   3.67360  -1.90706  -0.13862   0.13238
   2   30156.2    331.6   0.353639772   3.86065   0.14000  -1.92267  -0.37999
   3   33503.5    298.5   0.088118027   0.86587   0.47690  -0.77379  -0.19922
   4   33262.3    300.6   0.106581982   1.05489   0.91034   0.47470   0.02893
   5   29435.9    339.7   0.003249601   0.03634   0.18072  -0.05219  -0.03097
   6   35329.4    283.1   0.021713436   0.20233   0.11511   0.29631   0.31825
   7   39562.3    252.8   0.034957149   0.29089  -0.01851  -0.06809   0.53471
   8   40572.5    246.5   1.215607752   9.86364  -0.15715   3.08626   0.56031
   9   40599.3    246.3   0.050189935   0.40698   0.36618  -0.27626  -0.44337
  10   47714.8    209.6   0.130363372   0.89945   0.79545  -0.37404   0.35610
  11   47688.6    209.7   0.123104243   0.84983   0.89338   0.07987  -0.21291
  12   38655.3    258.7   0.072648936   0.61872  -0.10582   0.77482   0.08472
  13   47785.3    209.3   0.126930492   0.87447  -0.93301  -0.00130  -0.06296
  14   45089.8    221.8   0.096993082   0.70817   0.82145  -0.13246   0.12591
  15   45933.3    217.7   0.021737600   0.15580   0.13477   0.32866  -0.17209
  16   48503.2    206.2   0.003912735   0.02656   0.00495  -0.09244   0.13412
  17   47022.8    212.7   0.085465854   0.59836  -0.43393   0.35360  -0.53388
  18   50603.2    197.6   1.041326784   6.77461  -2.58713  -0.21580   0.18652
  19   51500.4    194.2   0.645178196   4.12425   1.56469  -0.81356   1.00703
  20   52100.4    191.9   1.181867271   7.46798   2.56237   0.66048  -0.68264
  21   51134.2    195.6   0.008535449   0.05495  -0.17236  -0.08191  -0.13615
  22   50505.5    198.0   0.301138637   1.96293  -0.19888  -0.23867   1.36617
  23   50485.4    198.1   0.145021488   0.94567   0.07773   0.40244   0.88186
  24   51131.1    195.6   0.137018870   0.88221  -0.08693   0.70046  -0.61969
  25   50978.7    196.2   0.001073754   0.00693  -0.01664  -0.03332   0.07448
  26   51277.6    195.0   0.024384024   0.15655   0.12873  -0.18307   0.32628
  27   52036.0    192.2   0.002687184   0.01700   0.02547  -0.12600   0.02182
  28   52198.9    191.6   0.000520617   0.00328  -0.03158  -0.02478   0.04089
  29   53336.5    187.5   0.089295266   0.55116   0.05194   0.73808   0.06084
  30   53307.8    187.6   0.002184682   0.01349   0.08485   0.02004   0.07675

-----------------------------------------------------------------------------
         ABSORPTION SPECTRUM VIA TRANSITION VELOCITY DIPOLE MOMENTS
-----------------------------------------------------------------------------
State   Energy    Wavelength   fosc        P2         PX        PY        PZ  
        (cm-1)      (nm)                 (au**2)     (au)      (au)      (au) 
-----------------------------------------------------------------------------
   1   24577.6    406.9   0.375744727   0.06312   0.24997   0.01818  -0.01737
   2   30156.2    331.6   0.425381837   0.08767  -0.02107   0.28974   0.05727
   3   33503.5    298.5   0.114483667   0.02621  -0.08228   0.13508   0.03463
   4   33262.3    300.6   0.139595292   0.03173  -0.15759  -0.08291  -0.00527
   5   29435.9    339.7   0.005832989   0.00117  -0.03243   0.00951   0.00558
   6   35329.4    283.1   0.030331211   0.00732  -0.02219  -0.05607  -0.06072
   7   39562.3    252.8   0.046027666   0.01245   0.00546   0.01433  -0.11050
   8   40572.5    246.5   1.529180469   0.42403   0.03260  -0.63991  -0.11614
   9   40599.3    246.3   0.065405593   0.01815  -0.07774   0.05678   0.09424
  10   47714.8    209.6   0.127821091   0.04168  -0.17154   0.08019  -0.07634
  11   47688.6    209.7   0.125022392   0.04075  -0.19552  -0.01760   0.04702
  12   38655.3    258.7   0.112008965   0.02959   0.02322  -0.16946  -0.01837
  13   47785.3    209.3   0.139212031   0.04547   0.21275   0.00027   0.01428
  14   45089.8    221.8   0.129068793   0.03977  -0.19470   0.03173  -0.02931
  15   45933.3    217.7   0.028625627   0.00899  -0.03222  -0.07956   0.04023
  16   48503.2    206.2   0.004620275   0.00153  -0.00006   0.02226  -0.03219
  17   47022.8    212.7   0.113314000   0.03642   0.10719  -0.08713   0.13167
  18   50603.2    197.6   1.209940158   0.41846   0.64299   0.05353  -0.04641
  19   51500.4    194.2   0.746761811   0.26284  -0.39497   0.20521  -0.25442
  20   52100.4    191.9   1.343256366   0.47831  -0.64829  -0.16706   0.17353
  21   51134.2    195.6   0.010090182   0.00353   0.04325   0.02109   0.03480
  22   50505.5    198.0   0.375056804   0.12946   0.05241   0.06135  -0.35064
  23   50485.4    198.1   0.192835167   0.06654  -0.01980  -0.10648  -0.23411
  24   51131.1    195.6   0.177750775   0.06212   0.02226  -0.18633   0.16401
  25   50978.7    196.2   0.001419631   0.00049   0.00442   0.00883  -0.01993
  26   51277.6    195.0   0.032046475   0.01123  -0.03415   0.04851  -0.08782
  27   52036.0    192.2   0.003670302   0.00131  -0.00726   0.03496  -0.00554
  28   52198.9    191.6   0.000690586   0.00025   0.00872   0.00680  -0.01114
  29   53336.5    187.5   0.118866176   0.04333  -0.01398  -0.20700  -0.01688
  30   53307.8    187.6   0.002726851   0.00099  -0.02364  -0.00394  -0.02047

-------------------------------------------------------------------
                             CD SPECTRUM
-------------------------------------------------------------------
State  Energy     Wavelength     R         MX        MY        MZ   
       (cm-1)       (nm)     (1e40*cgs)   (au)      (au)      (au)  
-------------------------------------------------------------------
   1   24577.6    406.9     31.20097  -0.03729   0.09410   0.06127
   2   30156.2    331.6     -2.92526  -0.12567   0.05405  -0.30346
   3   33503.5    298.5     10.34298   0.02734  -0.16308   0.58872
   4   33262.3    300.6     17.60477   0.05138  -0.00008  -0.32484
   5   29435.9    339.7      4.00596   0.04469  -0.02741   0.03259
   6   35329.4    283.1    -70.89948   0.02342  -0.22147  -0.27481
   7   39562.3    252.8      0.15860  -0.00621   0.30259   0.03894
   8   40572.5    246.5     29.78507   0.22088   0.01974   0.06598
   9   40599.3    246.3    -88.76800  -0.03508   0.24814   0.24108
  10   47714.8    209.6      2.70733  -0.02726  -0.42430  -0.36866
  11   47688.6    209.7      7.62741   0.02238  -0.32014  -0.10218
  12   38655.3    258.7    -10.99432   0.06316  -0.03289   0.10445
  13   47785.3    209.3      9.05030  -0.02815   0.10031   0.11014
  14   45089.8    221.8    -21.07496   0.00691  -0.14772  -0.55552
  15   45933.3    217.7    -95.49492   0.12340  -0.01581   1.24348
  16   48503.2    206.2      2.20555   0.01262  -0.13791  -0.06064
  17   47022.8    212.7     -0.21966  -0.02668   0.56352   0.39580
  18   50603.2    197.6     -9.30070  -0.00763   0.29809   0.13330
  19   51500.4    194.2    133.57330   0.05608  -1.50920  -1.02504
  20   52100.4    191.9     50.06498   0.01654   0.46109   0.35264
  21   51134.2    195.6     11.65889   0.08040  -0.34649  -0.07496
  22   50505.5    198.0    -44.74997  -0.03793   1.36687   0.16379
  23   50485.4    198.1    -12.66149  -0.03907   0.96414  -0.46700
  24   51131.1    195.6     15.59804   0.01178  -0.62337  -0.75967
  25   50978.7    196.2      0.60556  -0.14807  -0.05094  -0.03863
  26   51277.6    195.0     -8.57881   0.01661  -0.24974  -0.20245
  27   52036.0    192.2      6.28383  -0.23402  -0.11768   0.20449
  28   52198.9    191.6     -3.52453   0.18550   0.00175  -0.03852
  29   53336.5    187.5     64.66876  -0.00283   0.18579   0.00307
  30   53307.8    187.6     10.78272   0.09261  -0.08090   0.21673

Total run time:    48949.585 sec

           *** ORCA-CIS/TD-DFT FINISHED WITHOUT ERROR ***

Maximum memory used throughout the entire CIS-calculation: 6310.7 MB

-----------------------
CIS/TD-DFT TOTAL ENERGY
-----------------------

    E(SCF)  =  -1305.522486787 Eh
    DE(CIS) =      0.111983703 Eh (Root  1)
    ----------------------------- ---------
    E(tot)  =  -1305.410503083 Eh


-------------------------   --------------------
FINAL SINGLE POINT ENERGY     -1305.410503083333
-------------------------   --------------------


                            ***************************************
                            *     ORCA property calculations      *
                            ***************************************


  WARNING: The energy has been calculated at the MP2 level but the densities
           used in the property calculations are still SCF densities
           MP2 response densities have not been calculated 
           use %mp2 Density relaxed end
           or  %mp2 Density unrelaxed end

                                    ---------------------
                                    Active property flags
                                    ---------------------
   (+) Dipole Moment


------------------------------------------------------------------------------
                       ORCA ELECTRIC PROPERTIES CALCULATION
------------------------------------------------------------------------------

Dipole Moment Calculation                       ... on
Quadrupole Moment Calculation                   ... off
Polarizability Calculation                      ... off
GBWName                                         ... BOH-Acr_m_M06L_def2TZVP_coords.gbw
Electron density                                ... BOH-Acr_m_M06L_def2TZVP_coords.scfp
The origin for moment calculation is the CENTER OF MASS  = ( 0.071400, -0.004487 -0.004765)

-------------
DIPOLE MOMENT
-------------
                                X             Y             Z
Electronic contribution:     14.52669      -0.29232      -1.27847
Nuclear contribution   :    -15.20823       0.95575       1.01498
                        -----------------------------------------
Total Dipole Moment    :     -0.68155       0.66343      -0.26349
                        -----------------------------------------
Magnitude (a.u.)       :      0.98695
Magnitude (Debye)      :      2.50863



--------------------
Rotational spectrum 
--------------------
 
Rotational constants in cm-1:     0.010590     0.002430     0.002180 
Rotational constants in MHz :   317.490030    72.863317    65.347730 

 Dipole components along the rotational axes: 
x,y,z [a.u.] :    -0.685921    -0.660432    -0.259652 
x,y,z [Debye]:    -1.743471    -1.678684    -0.659982 

 

Timings for individual modules:

Sum of individual times         ...    55607.500 sec (= 926.792 min)
GTO integral calculation        ...       10.262 sec (=   0.171 min)   0.0 %
SCF iterations                  ...     1787.847 sec (=  29.797 min)   3.2 %
MP2 module                      ...     4855.713 sec (=  80.929 min)   8.7 %
CIS module                      ...    48953.678 sec (= 815.895 min)  88.0 %
                             ****ORCA TERMINATED NORMALLY****
TOTAL RUN TIME: 0 days 15 hours 26 minutes 52 seconds 922 msec
