 Entering Gaussian System, Link 0=g09
 Input=/home/png4rjv/fotokatalizis/benchmark/OPCs/Ph-Acr_1_TDHF_def2TZVP.gjf
 Output=/home/png4rjv/fotokatalizis/benchmark/OPCs/Ph-Acr_1_TDHF_def2TZVP.log
 Initial command:
 /opt/nce/packages/global/g09/l1.exe "/home/png4rjv/fotokatalizis/benchmark/OPCs/Ph-Acr_1_TDHF_def2TZVP/Gau-29571.inp" -scrdir="/home/png4rjv/fotokatalizis/benchmark/OPCs/Ph-Acr_1_TDHF_def2TZVP/"
 Default is to use a total of  12 processors:
                               12 via shared-memory
                                1 via Linda
 Entering Link 1 = /opt/nce/packages/global/g09/l1.exe PID=     29572.
  
 Copyright (c) 1988,1990,1992,1993,1995,1998,2003,2009,2015,
            Gaussian, Inc.  All Rights Reserved.
  
 This is part of the Gaussian(R) 09 program.  It is based on
 the Gaussian(R) 03 system (copyright 2003, Gaussian, Inc.),
 the Gaussian(R) 98 system (copyright 1998, Gaussian, Inc.),
 the Gaussian(R) 94 system (copyright 1995, Gaussian, Inc.),
 the Gaussian 92(TM) system (copyright 1992, Gaussian, Inc.),
 the Gaussian 90(TM) system (copyright 1990, Gaussian, Inc.),
 the Gaussian 88(TM) system (copyright 1988, Gaussian, Inc.),
 the Gaussian 86(TM) system (copyright 1986, Carnegie Mellon
 University), and the Gaussian 82(TM) system (copyright 1983,
 Carnegie Mellon University). Gaussian is a federally registered
 trademark of Gaussian, Inc.
  
 This software contains proprietary and confidential information,
 including trade secrets, belonging to Gaussian, Inc.
  
 This software is provided under written license and may be
 used, copied, transmitted, or stored only in accord with that
 written license.
  
 The following legend is applicable only to US Government
 contracts under FAR:
  
                    RESTRICTED RIGHTS LEGEND
  
 Use, reproduction and disclosure by the US Government is
 subject to restrictions as set forth in subparagraphs (a)
 and (c) of the Commercial Computer Software - Restricted
 Rights clause in FAR 52.227-19.
  
 Gaussian, Inc.
 340 Quinnipiac St., Bldg. 40, Wallingford CT 06492
  
  
 ---------------------------------------------------------------
 Warning -- This program may not be used in any manner that
 competes with the business of Gaussian, Inc. or will provide
 assistance to any competitor of Gaussian, Inc.  The licensee
 of this program is prohibited from giving any competitor of
 Gaussian, Inc. access to this program.  By using this program,
 the user acknowledges that Gaussian, Inc. is engaged in the
 business of creating and licensing software in the field of
 computational chemistry and represents and warrants to the
 licensee that it is not a competitor of Gaussian, Inc. and that
 it will not use this program in any manner prohibited above.
 ---------------------------------------------------------------
  

 Cite this work as:
 Gaussian 09, Revision E.01,
 M. J. Frisch, G. W. Trucks, H. B. Schlegel, G. E. Scuseria, 
 M. A. Robb, J. R. Cheeseman, G. Scalmani, V. Barone, B. Mennucci, 
 G. A. Petersson, H. Nakatsuji, M. Caricato, X. Li, H. P. Hratchian, 
 A. F. Izmaylov, J. Bloino, G. Zheng, J. L. Sonnenberg, M. Hada, 
 M. Ehara, K. Toyota, R. Fukuda, J. Hasegawa, M. Ishida, T. Nakajima, 
 Y. Honda, O. Kitao, H. Nakai, T. Vreven, J. A. Montgomery, Jr., 
 J. E. Peralta, F. Ogliaro, M. Bearpark, J. J. Heyd, E. Brothers, 
 K. N. Kudin, V. N. Staroverov, T. Keith, R. Kobayashi, J. Normand, 
 K. Raghavachari, A. Rendell, J. C. Burant, S. S. Iyengar, J. Tomasi, 
 M. Cossi, N. Rega, J. M. Millam, M. Klene, J. E. Knox, J. B. Cross, 
 V. Bakken, C. Adamo, J. Jaramillo, R. Gomperts, R. E. Stratmann, 
 O. Yazyev, A. J. Austin, R. Cammi, C. Pomelli, J. W. Ochterski, 
 R. L. Martin, K. Morokuma, V. G. Zakrzewski, G. A. Voth, 
 P. Salvador, J. J. Dannenberg, S. Dapprich, A. D. Daniels, 
 O. Farkas, J. B. Foresman, J. V. Ortiz, J. Cioslowski, 
 and D. J. Fox, Gaussian, Inc., Wallingford CT, 2013.
 
 ******************************************
 Gaussian 09:  ES64L-G09RevE.01 30-Nov-2015
                 3-Apr-2021 
 ******************************************
 %chk=cp.chk
 Default route:  MaxDisk=500GB
 ----------------------------------------------------------------------
 #p hf/def2TZVP opt freq=noraman nosymm int=ultrafine scrf=(SMD,solvent
 =Acetonitrile)
 ----------------------------------------------------------------------
 1/14=-1,18=20,19=15,38=1/1,3;
 2/9=110,12=2,15=1,17=6,18=5,40=1/2;
 3/5=44,7=101,11=9,16=1,25=1,30=1,70=32201,71=1,72=2,75=-5/1,2,3;
 4//1;
 5/5=2,38=5,53=2/2;
 6/7=2,8=2,9=2,10=2,28=1/1;
 7/30=1/1,2,3,16;
 1/14=-1,18=20,19=15/3(2);
 2/9=110,15=1/2;
 99//99;
 2/9=110,15=1/2;
 3/5=44,7=101,11=9,16=1,25=1,30=1,70=32205,71=1,72=2,75=-5/1,2,3;
 4/5=5,16=3,69=1/1;
 5/5=2,38=5,53=2/2;
 7/30=1/1,2,3,16;
 1/14=-1,18=20,19=15/3(-5);
 2/9=110,15=1/2;
 6/7=2,8=2,9=2,10=2,19=2,28=1/1;
 99/9=1/99;
 Leave Link    1 at Sat Apr  3 00:15:49 2021, MaxMem=           0 cpu:         0.9
 (Enter /opt/nce/packages/global/g09/l101.exe)
 -----
 Title
 -----
 Symbolic Z-matrix:
 Charge =  1 Multiplicity = 1
 C                    -3.54604  -0.53922  -0.03539 
 C                    -2.92489   0.72938   0.01229 
 C                    -1.53212   0.85917   0.07309 
 C                    -0.69379  -0.30957   0.04648 
 C                    -1.34722  -1.58446   0.02511 
 C                    -2.70447  -1.70709  -0.0103 
 C                     0.70553  -0.19285   0.04332 
 C                     1.29649   1.10008   0.00314 
 C                     0.4427    2.25851   0.03773 
 C                     0.99955   3.54968  -0.06801 
 H                     0.37047   4.43382  -0.10401 
 C                     2.37186   3.70161  -0.17048 
 C                     3.24186   2.6047   -0.17278 
 C                     2.72567   1.31606  -0.09373 
 H                    -3.54371   1.61634  -0.02801 
 H                    -0.72682  -2.47932   0.0322 
 H                    -3.14465  -2.70135  -0.02628 
 H                     2.78753   4.70751  -0.26113 
 H                     4.31438   2.76837  -0.25136 
 N                    -0.92721   2.09577   0.16992 
 C                    -1.76673   3.27102   0.41457 
 H                    -1.19735   4.02208   0.96858 
 H                    -2.1346    3.70981  -0.52607 
 H                    -2.61839   2.98096   1.03828 
 C                     1.50304  -1.45393   0.06411 
 C                     1.78733  -2.12812  -1.13048 
 C                     1.93299  -1.98929   1.2849 
 C                     2.51344  -3.32057  -1.10363 
 C                     2.65608  -3.18345   1.30738 
 C                     2.95175  -3.84897   0.11402 
 H                     2.73499  -3.84042  -2.03837 
 H                     2.98826  -3.59686   2.26226 
 H                     1.44754  -1.71258  -2.08183 
 H                     1.70677  -1.46612   2.21668 
 H                     3.51749  -4.78292   0.13367 
 O                     3.48971   0.2257   -0.11203 
 C                     4.90185   0.32252  -0.21651 
 H                     5.1976    0.81485  -1.15725 
 H                     5.32648   0.8729    0.63878 
 H                     5.27182  -0.70935  -0.20944 
 N                    -4.89325  -0.66318  -0.10634 
 C                    -5.73709   0.52303  -0.11749 
 H                    -5.53367   1.1555   -0.99824 
 H                    -6.78927   0.22096  -0.15132 
 H                    -5.58532   1.13174   0.78973 
 C                    -5.52166  -1.97916  -0.17564 
 H                    -6.60688  -1.85284  -0.25322 
 H                    -5.18163  -2.54374  -1.05846 
 H                    -5.31236  -2.57753   0.72584 
 
 NAtoms=     49 NQM=       49 NQMF=       0 NMMI=      0 NMMIF=      0
                NMic=       0 NMicF=      0.
                    Isotopes and Nuclear Properties:
 (Nuclear quadrupole moments (NQMom) in fm**2, nuclear magnetic moments (NMagM)
  in nuclear magnetons)

  Atom         1           2           3           4           5           6           7           8           9          10
 IAtWgt=          12          12          12          12          12          12          12          12          12          12
 AtmWgt=  12.0000000  12.0000000  12.0000000  12.0000000  12.0000000  12.0000000  12.0000000  12.0000000  12.0000000  12.0000000
 NucSpn=           0           0           0           0           0           0           0           0           0           0
 AtZEff=   0.0000000   0.0000000   0.0000000   0.0000000   0.0000000   0.0000000   0.0000000   0.0000000   0.0000000   0.0000000
 NQMom=    0.0000000   0.0000000   0.0000000   0.0000000   0.0000000   0.0000000   0.0000000   0.0000000   0.0000000   0.0000000
 NMagM=    0.0000000   0.0000000   0.0000000   0.0000000   0.0000000   0.0000000   0.0000000   0.0000000   0.0000000   0.0000000
 AtZNuc=   6.0000000   6.0000000   6.0000000   6.0000000   6.0000000   6.0000000   6.0000000   6.0000000   6.0000000   6.0000000

  Atom        11          12          13          14          15          16          17          18          19          20
 IAtWgt=           1          12          12          12           1           1           1           1           1          14
 AtmWgt=   1.0078250  12.0000000  12.0000000  12.0000000   1.0078250   1.0078250   1.0078250   1.0078250   1.0078250  14.0030740
 NucSpn=           1           0           0           0           1           1           1           1           1           2
 AtZEff=   0.0000000   0.0000000   0.0000000   0.0000000   0.0000000   0.0000000   0.0000000   0.0000000   0.0000000   0.0000000
 NQMom=    0.0000000   0.0000000   0.0000000   0.0000000   0.0000000   0.0000000   0.0000000   0.0000000   0.0000000   2.0440000
 NMagM=    2.7928460   0.0000000   0.0000000   0.0000000   2.7928460   2.7928460   2.7928460   2.7928460   2.7928460   0.4037610
 AtZNuc=   1.0000000   6.0000000   6.0000000   6.0000000   1.0000000   1.0000000   1.0000000   1.0000000   1.0000000   7.0000000

  Atom        21          22          23          24          25          26          27          28          29          30
 IAtWgt=          12           1           1           1          12          12          12          12          12          12
 AtmWgt=  12.0000000   1.0078250   1.0078250   1.0078250  12.0000000  12.0000000  12.0000000  12.0000000  12.0000000  12.0000000
 NucSpn=           0           1           1           1           0           0           0           0           0           0
 AtZEff=   0.0000000   0.0000000   0.0000000   0.0000000   0.0000000   0.0000000   0.0000000   0.0000000   0.0000000   0.0000000
 NQMom=    0.0000000   0.0000000   0.0000000   0.0000000   0.0000000   0.0000000   0.0000000   0.0000000   0.0000000   0.0000000
 NMagM=    0.0000000   2.7928460   2.7928460   2.7928460   0.0000000   0.0000000   0.0000000   0.0000000   0.0000000   0.0000000
 AtZNuc=   6.0000000   1.0000000   1.0000000   1.0000000   6.0000000   6.0000000   6.0000000   6.0000000   6.0000000   6.0000000

  Atom        31          32          33          34          35          36          37          38          39          40
 IAtWgt=           1           1           1           1           1          16          12           1           1           1
 AtmWgt=   1.0078250   1.0078250   1.0078250   1.0078250   1.0078250  15.9949146  12.0000000   1.0078250   1.0078250   1.0078250
 NucSpn=           1           1           1           1           1           0           0           1           1           1
 AtZEff=   0.0000000   0.0000000   0.0000000   0.0000000   0.0000000   0.0000000   0.0000000   0.0000000   0.0000000   0.0000000
 NQMom=    0.0000000   0.0000000   0.0000000   0.0000000   0.0000000   0.0000000   0.0000000   0.0000000   0.0000000   0.0000000
 NMagM=    2.7928460   2.7928460   2.7928460   2.7928460   2.7928460   0.0000000   0.0000000   2.7928460   2.7928460   2.7928460
 AtZNuc=   1.0000000   1.0000000   1.0000000   1.0000000   1.0000000   8.0000000   6.0000000   1.0000000   1.0000000   1.0000000

  Atom        41          42          43          44          45          46          47          48          49
 IAtWgt=          14          12           1           1           1          12           1           1           1
 AtmWgt=  14.0030740  12.0000000   1.0078250   1.0078250   1.0078250  12.0000000   1.0078250   1.0078250   1.0078250
 NucSpn=           2           0           1           1           1           0           1           1           1
 AtZEff=   0.0000000   0.0000000   0.0000000   0.0000000   0.0000000   0.0000000   0.0000000   0.0000000   0.0000000
 NQMom=    2.0440000   0.0000000   0.0000000   0.0000000   0.0000000   0.0000000   0.0000000   0.0000000   0.0000000
 NMagM=    0.4037610   0.0000000   2.7928460   2.7928460   2.7928460   0.0000000   2.7928460   2.7928460   2.7928460
 AtZNuc=   7.0000000   6.0000000   1.0000000   1.0000000   1.0000000   6.0000000   1.0000000   1.0000000   1.0000000
 Leave Link  101 at Sat Apr  3 00:15:49 2021, MaxMem=  5242880000 cpu:         4.3
 (Enter /opt/nce/packages/global/g09/l103.exe)

 GradGradGradGradGradGradGradGradGradGradGradGradGradGradGradGradGradGrad
 Berny optimization.
 Initialization pass.
                           ----------------------------
                           !    Initial Parameters    !
                           ! (Angstroms and Degrees)  !
 --------------------------                            --------------------------
 ! Name  Definition              Value          Derivative Info.                !
 --------------------------------------------------------------------------------
 ! R1    R(1,2)                  1.4133         estimate D2E/DX2                !
 ! R2    R(1,6)                  1.4397         estimate D2E/DX2                !
 ! R3    R(1,41)                 1.3548         estimate D2E/DX2                !
 ! R4    R(2,3)                  1.4001         estimate D2E/DX2                !
 ! R5    R(2,15)                 1.0822         estimate D2E/DX2                !
 ! R6    R(3,4)                  1.4386         estimate D2E/DX2                !
 ! R7    R(3,20)                 1.38           estimate D2E/DX2                !
 ! R8    R(4,5)                  1.4327         estimate D2E/DX2                !
 ! R9    R(4,7)                  1.4042         estimate D2E/DX2                !
 ! R10   R(5,6)                  1.3632         estimate D2E/DX2                !
 ! R11   R(5,16)                 1.0889         estimate D2E/DX2                !
 ! R12   R(6,17)                 1.0875         estimate D2E/DX2                !
 ! R13   R(7,8)                  1.4221         estimate D2E/DX2                !
 ! R14   R(7,25)                 1.4922         estimate D2E/DX2                !
 ! R15   R(8,9)                  1.4395         estimate D2E/DX2                !
 ! R16   R(8,14)                 1.4486         estimate D2E/DX2                !
 ! R17   R(9,10)                 1.4101         estimate D2E/DX2                !
 ! R18   R(9,20)                 1.3859         estimate D2E/DX2                !
 ! R19   R(10,11)                1.0857         estimate D2E/DX2                !
 ! R20   R(10,12)                1.3845         estimate D2E/DX2                !
 ! R21   R(12,13)                1.4            estimate D2E/DX2                !
 ! R22   R(12,18)                1.0922         estimate D2E/DX2                !
 ! R23   R(13,14)                1.3904         estimate D2E/DX2                !
 ! R24   R(13,19)                1.0878         estimate D2E/DX2                !
 ! R25   R(14,36)                1.3315         estimate D2E/DX2                !
 ! R26   R(20,21)                1.4649         estimate D2E/DX2                !
 ! R27   R(21,22)                1.0933         estimate D2E/DX2                !
 ! R28   R(21,23)                1.1012         estimate D2E/DX2                !
 ! R29   R(21,24)                1.0947         estimate D2E/DX2                !
 ! R30   R(25,26)                1.4009         estimate D2E/DX2                !
 ! R31   R(25,27)                1.4006         estimate D2E/DX2                !
 ! R32   R(26,28)                1.3964         estimate D2E/DX2                !
 ! R33   R(26,33)                1.0923         estimate D2E/DX2                !
 ! R34   R(27,29)                1.3962         estimate D2E/DX2                !
 ! R35   R(27,34)                1.0923         estimate D2E/DX2                !
 ! R36   R(28,30)                1.3978         estimate D2E/DX2                !
 ! R37   R(28,31)                1.0923         estimate D2E/DX2                !
 ! R38   R(29,30)                1.398          estimate D2E/DX2                !
 ! R39   R(29,32)                1.0923         estimate D2E/DX2                !
 ! R40   R(30,35)                1.0921         estimate D2E/DX2                !
 ! R41   R(36,37)                1.4193         estimate D2E/DX2                !
 ! R42   R(37,38)                1.1022         estimate D2E/DX2                !
 ! R43   R(37,39)                1.1022         estimate D2E/DX2                !
 ! R44   R(37,40)                1.0962         estimate D2E/DX2                !
 ! R45   R(41,42)                1.4558         estimate D2E/DX2                !
 ! R46   R(41,46)                1.46           estimate D2E/DX2                !
 ! R47   R(42,43)                1.1032         estimate D2E/DX2                !
 ! R48   R(42,44)                1.0952         estimate D2E/DX2                !
 ! R49   R(42,45)                1.103          estimate D2E/DX2                !
 ! R50   R(46,47)                1.0953         estimate D2E/DX2                !
 ! R51   R(46,48)                1.1017         estimate D2E/DX2                !
 ! R52   R(46,49)                1.1021         estimate D2E/DX2                !
 ! A1    A(2,1,6)              118.0753         estimate D2E/DX2                !
 ! A2    A(2,1,41)             121.3956         estimate D2E/DX2                !
 ! A3    A(6,1,41)             120.5289         estimate D2E/DX2                !
 ! A4    A(1,2,3)              121.457          estimate D2E/DX2                !
 ! A5    A(1,2,15)             118.8869         estimate D2E/DX2                !
 ! A6    A(3,2,15)             119.6325         estimate D2E/DX2                !
 ! A7    A(2,3,4)              120.2374         estimate D2E/DX2                !
 ! A8    A(2,3,20)             121.4759         estimate D2E/DX2                !
 ! A9    A(4,3,20)             118.2848         estimate D2E/DX2                !
 ! A10   A(3,4,5)              117.2208         estimate D2E/DX2                !
 ! A11   A(3,4,7)              120.8807         estimate D2E/DX2                !
 ! A12   A(5,4,7)              121.8985         estimate D2E/DX2                !
 ! A13   A(4,5,6)              122.3097         estimate D2E/DX2                !
 ! A14   A(4,5,16)             118.1196         estimate D2E/DX2                !
 ! A15   A(6,5,16)             119.5698         estimate D2E/DX2                !
 ! A16   A(1,6,5)              120.6273         estimate D2E/DX2                !
 ! A17   A(1,6,17)             120.3179         estimate D2E/DX2                !
 ! A18   A(5,6,17)             119.0534         estimate D2E/DX2                !
 ! A19   A(4,7,8)              119.3228         estimate D2E/DX2                !
 ! A20   A(4,7,25)             117.5363         estimate D2E/DX2                !
 ! A21   A(8,7,25)             123.1355         estimate D2E/DX2                !
 ! A22   A(7,8,9)              118.9788         estimate D2E/DX2                !
 ! A23   A(7,8,14)             123.1878         estimate D2E/DX2                !
 ! A24   A(9,8,14)             117.8253         estimate D2E/DX2                !
 ! A25   A(8,9,10)             120.0563         estimate D2E/DX2                !
 ! A26   A(8,9,20)             119.6093         estimate D2E/DX2                !
 ! A27   A(10,9,20)            120.334          estimate D2E/DX2                !
 ! A28   A(9,10,11)            121.2878         estimate D2E/DX2                !
 ! A29   A(9,10,12)            119.8321         estimate D2E/DX2                !
 ! A30   A(11,10,12)           118.8492         estimate D2E/DX2                !
 ! A31   A(10,12,13)           122.0113         estimate D2E/DX2                !
 ! A32   A(10,12,18)           118.9768         estimate D2E/DX2                !
 ! A33   A(13,12,18)           119.0096         estimate D2E/DX2                !
 ! A34   A(12,13,14)           119.6918         estimate D2E/DX2                !
 ! A35   A(12,13,19)           119.6648         estimate D2E/DX2                !
 ! A36   A(14,13,19)           120.637          estimate D2E/DX2                !
 ! A37   A(8,14,13)            120.5464         estimate D2E/DX2                !
 ! A38   A(8,14,36)            116.4189         estimate D2E/DX2                !
 ! A39   A(13,14,36)           123.0327         estimate D2E/DX2                !
 ! A40   A(3,20,9)             122.1288         estimate D2E/DX2                !
 ! A41   A(3,20,21)            118.6471         estimate D2E/DX2                !
 ! A42   A(9,20,21)            119.2235         estimate D2E/DX2                !
 ! A43   A(20,21,22)           109.7144         estimate D2E/DX2                !
 ! A44   A(20,21,23)           111.6211         estimate D2E/DX2                !
 ! A45   A(20,21,24)           109.1735         estimate D2E/DX2                !
 ! A46   A(22,21,23)           109.4567         estimate D2E/DX2                !
 ! A47   A(22,21,24)           107.3663         estimate D2E/DX2                !
 ! A48   A(23,21,24)           109.4109         estimate D2E/DX2                !
 ! A49   A(7,25,26)            120.218          estimate D2E/DX2                !
 ! A50   A(7,25,27)            119.9484         estimate D2E/DX2                !
 ! A51   A(26,25,27)           119.8022         estimate D2E/DX2                !
 ! A52   A(25,26,28)           120.0074         estimate D2E/DX2                !
 ! A53   A(25,26,33)           119.7678         estimate D2E/DX2                !
 ! A54   A(28,26,33)           120.2221         estimate D2E/DX2                !
 ! A55   A(25,27,29)           119.995          estimate D2E/DX2                !
 ! A56   A(25,27,34)           119.7929         estimate D2E/DX2                !
 ! A57   A(29,27,34)           120.2107         estimate D2E/DX2                !
 ! A58   A(26,28,30)           120.1724         estimate D2E/DX2                !
 ! A59   A(26,28,31)           119.6986         estimate D2E/DX2                !
 ! A60   A(30,28,31)           120.1288         estimate D2E/DX2                !
 ! A61   A(27,29,30)           120.1955         estimate D2E/DX2                !
 ! A62   A(27,29,32)           119.6892         estimate D2E/DX2                !
 ! A63   A(30,29,32)           120.1152         estimate D2E/DX2                !
 ! A64   A(28,30,29)           119.8212         estimate D2E/DX2                !
 ! A65   A(28,30,35)           120.0907         estimate D2E/DX2                !
 ! A66   A(29,30,35)           120.0866         estimate D2E/DX2                !
 ! A67   A(14,36,37)           121.0685         estimate D2E/DX2                !
 ! A68   A(36,37,38)           111.1173         estimate D2E/DX2                !
 ! A69   A(36,37,39)           111.1167         estimate D2E/DX2                !
 ! A70   A(36,37,40)           105.7301         estimate D2E/DX2                !
 ! A71   A(38,37,39)           109.6272         estimate D2E/DX2                !
 ! A72   A(38,37,40)           109.597          estimate D2E/DX2                !
 ! A73   A(39,37,40)           109.5738         estimate D2E/DX2                !
 ! A74   A(1,41,42)            120.1502         estimate D2E/DX2                !
 ! A75   A(1,41,46)            120.8632         estimate D2E/DX2                !
 ! A76   A(42,41,46)           118.9865         estimate D2E/DX2                !
 ! A77   A(41,42,43)           111.4915         estimate D2E/DX2                !
 ! A78   A(41,42,44)           109.413          estimate D2E/DX2                !
 ! A79   A(41,42,45)           111.323          estimate D2E/DX2                !
 ! A80   A(43,42,44)           108.0954         estimate D2E/DX2                !
 ! A81   A(43,42,45)           108.3538         estimate D2E/DX2                !
 ! A82   A(44,42,45)           108.0479         estimate D2E/DX2                !
 ! A83   A(41,46,47)           109.0183         estimate D2E/DX2                !
 ! A84   A(41,46,48)           111.5373         estimate D2E/DX2                !
 ! A85   A(41,46,49)           111.6432         estimate D2E/DX2                !
 ! A86   A(47,46,48)           107.9484         estimate D2E/DX2                !
 ! A87   A(47,46,49)           107.9822         estimate D2E/DX2                !
 ! A88   A(48,46,49)           108.5802         estimate D2E/DX2                !
 ! D1    D(6,1,2,3)              0.4296         estimate D2E/DX2                !
 ! D2    D(6,1,2,15)           178.6574         estimate D2E/DX2                !
 ! D3    D(41,1,2,3)          -179.398          estimate D2E/DX2                !
 ! D4    D(41,1,2,15)           -1.1703         estimate D2E/DX2                !
 ! D5    D(2,1,6,5)             -1.5866         estimate D2E/DX2                !
 ! D6    D(2,1,6,17)           178.8349         estimate D2E/DX2                !
 ! D7    D(41,1,6,5)           178.2426         estimate D2E/DX2                !
 ! D8    D(41,1,6,17)           -1.3359         estimate D2E/DX2                !
 ! D9    D(2,1,41,42)           -0.8029         estimate D2E/DX2                !
 ! D10   D(2,1,41,46)          179.0565         estimate D2E/DX2                !
 ! D11   D(6,1,41,42)          179.3736         estimate D2E/DX2                !
 ! D12   D(6,1,41,46)           -0.767          estimate D2E/DX2                !
 ! D13   D(1,2,3,4)              1.9356         estimate D2E/DX2                !
 ! D14   D(1,2,3,20)          -177.5495         estimate D2E/DX2                !
 ! D15   D(15,2,3,4)          -176.2792         estimate D2E/DX2                !
 ! D16   D(15,2,3,20)            4.2358         estimate D2E/DX2                !
 ! D17   D(2,3,4,5)             -3.0847         estimate D2E/DX2                !
 ! D18   D(2,3,4,7)            176.9834         estimate D2E/DX2                !
 ! D19   D(20,3,4,5)           176.4166         estimate D2E/DX2                !
 ! D20   D(20,3,4,7)            -3.5153         estimate D2E/DX2                !
 ! D21   D(2,3,20,9)          -170.5053         estimate D2E/DX2                !
 ! D22   D(2,3,20,21)            9.2205         estimate D2E/DX2                !
 ! D23   D(4,3,20,9)             9.9999         estimate D2E/DX2                !
 ! D24   D(4,3,20,21)         -170.2743         estimate D2E/DX2                !
 ! D25   D(3,4,5,6)              1.9734         estimate D2E/DX2                !
 ! D26   D(3,4,5,16)          -178.3678         estimate D2E/DX2                !
 ! D27   D(7,4,5,6)           -178.0955         estimate D2E/DX2                !
 ! D28   D(7,4,5,16)             1.5634         estimate D2E/DX2                !
 ! D29   D(3,4,7,8)             -2.942          estimate D2E/DX2                !
 ! D30   D(3,4,7,25)           177.8743         estimate D2E/DX2                !
 ! D31   D(5,4,7,8)            177.1293         estimate D2E/DX2                !
 ! D32   D(5,4,7,25)            -2.0544         estimate D2E/DX2                !
 ! D33   D(4,5,6,1)              0.3493         estimate D2E/DX2                !
 ! D34   D(4,5,6,17)           179.9331         estimate D2E/DX2                !
 ! D35   D(16,5,6,1)          -179.3047         estimate D2E/DX2                !
 ! D36   D(16,5,6,17)            0.279          estimate D2E/DX2                !
 ! D37   D(4,7,8,9)              3.2331         estimate D2E/DX2                !
 ! D38   D(4,7,8,14)          -175.7151         estimate D2E/DX2                !
 ! D39   D(25,7,8,9)          -177.6312         estimate D2E/DX2                !
 ! D40   D(25,7,8,14)            3.4206         estimate D2E/DX2                !
 ! D41   D(4,7,25,26)           84.8693         estimate D2E/DX2                !
 ! D42   D(4,7,25,27)          -93.0871         estimate D2E/DX2                !
 ! D43   D(8,7,25,26)          -94.2809         estimate D2E/DX2                !
 ! D44   D(8,7,25,27)           87.7628         estimate D2E/DX2                !
 ! D45   D(7,8,9,10)          -176.8425         estimate D2E/DX2                !
 ! D46   D(7,8,9,20)             2.8997         estimate D2E/DX2                !
 ! D47   D(14,8,9,10)            2.1622         estimate D2E/DX2                !
 ! D48   D(14,8,9,20)         -178.0956         estimate D2E/DX2                !
 ! D49   D(7,8,14,13)          177.9018         estimate D2E/DX2                !
 ! D50   D(7,8,14,36)           -1.6002         estimate D2E/DX2                !
 ! D51   D(9,8,14,13)           -1.0578         estimate D2E/DX2                !
 ! D52   D(9,8,14,36)          179.4402         estimate D2E/DX2                !
 ! D53   D(8,9,10,11)          176.2969         estimate D2E/DX2                !
 ! D54   D(8,9,10,12)           -1.6587         estimate D2E/DX2                !
 ! D55   D(20,9,10,11)          -3.4434         estimate D2E/DX2                !
 ! D56   D(20,9,10,12)         178.601          estimate D2E/DX2                !
 ! D57   D(8,9,20,3)            -9.7748         estimate D2E/DX2                !
 ! D58   D(8,9,20,21)          170.5009         estimate D2E/DX2                !
 ! D59   D(10,9,20,3)          169.9666         estimate D2E/DX2                !
 ! D60   D(10,9,20,21)          -9.7577         estimate D2E/DX2                !
 ! D61   D(9,10,12,13)          -0.0201         estimate D2E/DX2                !
 ! D62   D(9,10,12,18)         179.4308         estimate D2E/DX2                !
 ! D63   D(11,10,12,13)       -178.0255         estimate D2E/DX2                !
 ! D64   D(11,10,12,18)          1.4255         estimate D2E/DX2                !
 ! D65   D(10,12,13,14)          1.143          estimate D2E/DX2                !
 ! D66   D(10,12,13,19)       -179.7661         estimate D2E/DX2                !
 ! D67   D(18,12,13,14)       -178.3077         estimate D2E/DX2                !
 ! D68   D(18,12,13,19)          0.7831         estimate D2E/DX2                !
 ! D69   D(12,13,14,8)          -0.5627         estimate D2E/DX2                !
 ! D70   D(12,13,14,36)        178.9053         estimate D2E/DX2                !
 ! D71   D(19,13,14,8)        -179.6446         estimate D2E/DX2                !
 ! D72   D(19,13,14,36)         -0.1765         estimate D2E/DX2                !
 ! D73   D(8,14,36,37)         179.4358         estimate D2E/DX2                !
 ! D74   D(13,14,36,37)         -0.0526         estimate D2E/DX2                !
 ! D75   D(3,20,21,22)         150.3143         estimate D2E/DX2                !
 ! D76   D(3,20,21,23)         -88.1762         estimate D2E/DX2                !
 ! D77   D(3,20,21,24)          32.9088         estimate D2E/DX2                !
 ! D78   D(9,20,21,22)         -29.9518         estimate D2E/DX2                !
 ! D79   D(9,20,21,23)          91.5578         estimate D2E/DX2                !
 ! D80   D(9,20,21,24)        -147.3573         estimate D2E/DX2                !
 ! D81   D(7,25,26,28)        -178.8496         estimate D2E/DX2                !
 ! D82   D(7,25,26,33)           1.7439         estimate D2E/DX2                !
 ! D83   D(27,25,26,28)         -0.8903         estimate D2E/DX2                !
 ! D84   D(27,25,26,33)        179.7033         estimate D2E/DX2                !
 ! D85   D(7,25,27,29)         178.7083         estimate D2E/DX2                !
 ! D86   D(7,25,27,34)          -1.7209         estimate D2E/DX2                !
 ! D87   D(26,25,27,29)          0.7434         estimate D2E/DX2                !
 ! D88   D(26,25,27,34)       -179.6858         estimate D2E/DX2                !
 ! D89   D(25,26,28,30)          0.374          estimate D2E/DX2                !
 ! D90   D(25,26,28,31)       -179.8066         estimate D2E/DX2                !
 ! D91   D(33,26,28,30)        179.7777         estimate D2E/DX2                !
 ! D92   D(33,26,28,31)         -0.4029         estimate D2E/DX2                !
 ! D93   D(25,27,29,30)         -0.0799         estimate D2E/DX2                !
 ! D94   D(25,27,29,32)       -179.9537         estimate D2E/DX2                !
 ! D95   D(34,27,29,30)       -179.6488         estimate D2E/DX2                !
 ! D96   D(34,27,29,32)          0.4773         estimate D2E/DX2                !
 ! D97   D(26,28,30,29)          0.2907         estimate D2E/DX2                !
 ! D98   D(26,28,30,35)        179.8535         estimate D2E/DX2                !
 ! D99   D(31,28,30,29)       -179.5279         estimate D2E/DX2                !
 ! D100  D(31,28,30,35)          0.0349         estimate D2E/DX2                !
 ! D101  D(27,29,30,28)         -0.4381         estimate D2E/DX2                !
 ! D102  D(27,29,30,35)        179.9992         estimate D2E/DX2                !
 ! D103  D(32,29,30,28)        179.4352         estimate D2E/DX2                !
 ! D104  D(32,29,30,35)         -0.1275         estimate D2E/DX2                !
 ! D105  D(14,36,37,38)        -61.113          estimate D2E/DX2                !
 ! D106  D(14,36,37,39)         61.2416         estimate D2E/DX2                !
 ! D107  D(14,36,37,40)       -179.9497         estimate D2E/DX2                !
 ! D108  D(1,41,42,43)          61.977          estimate D2E/DX2                !
 ! D109  D(1,41,42,44)        -178.5056         estimate D2E/DX2                !
 ! D110  D(1,41,42,45)         -59.1527         estimate D2E/DX2                !
 ! D111  D(46,41,42,43)       -117.8851         estimate D2E/DX2                !
 ! D112  D(46,41,42,44)          1.6324         estimate D2E/DX2                !
 ! D113  D(46,41,42,45)        120.9853         estimate D2E/DX2                !
 ! D114  D(1,41,46,47)        -178.5119         estimate D2E/DX2                !
 ! D115  D(1,41,46,48)         -59.4041         estimate D2E/DX2                !
 ! D116  D(1,41,46,49)          62.2732         estimate D2E/DX2                !
 ! D117  D(42,41,46,47)          1.3492         estimate D2E/DX2                !
 ! D118  D(42,41,46,48)        120.457          estimate D2E/DX2                !
 ! D119  D(42,41,46,49)       -117.8658         estimate D2E/DX2                !
 --------------------------------------------------------------------------------
 Trust Radius=3.00D-01 FncErr=1.00D-07 GrdErr=1.00D-07
 Number of steps in this run=    269 maximum allowed number of steps=    294.
 GradGradGradGradGradGradGradGradGradGradGradGradGradGradGradGradGradGrad

 Leave Link  103 at Sat Apr  3 00:15:49 2021, MaxMem=  5242880000 cpu:         0.2
 (Enter /opt/nce/packages/global/g09/l202.exe)
                          Input orientation:                          
 ---------------------------------------------------------------------
 Center     Atomic      Atomic             Coordinates (Angstroms)
 Number     Number       Type             X           Y           Z
 ---------------------------------------------------------------------
      1          6           0       -3.546038   -0.539222   -0.035394
      2          6           0       -2.924890    0.729381    0.012289
      3          6           0       -1.532119    0.859167    0.073085
      4          6           0       -0.693790   -0.309567    0.046475
      5          6           0       -1.347220   -1.584457    0.025113
      6          6           0       -2.704472   -1.707088   -0.010297
      7          6           0        0.705534   -0.192852    0.043315
      8          6           0        1.296492    1.100077    0.003144
      9          6           0        0.442696    2.258512    0.037728
     10          6           0        0.999551    3.549684   -0.068005
     11          1           0        0.370473    4.433820   -0.104013
     12          6           0        2.371857    3.701614   -0.170483
     13          6           0        3.241862    2.604700   -0.172777
     14          6           0        2.725665    1.316055   -0.093731
     15          1           0       -3.543709    1.616340   -0.028011
     16          1           0       -0.726819   -2.479323    0.032204
     17          1           0       -3.144649   -2.701350   -0.026279
     18          1           0        2.787528    4.707514   -0.261131
     19          1           0        4.314384    2.768374   -0.251356
     20          7           0       -0.927207    2.095766    0.169916
     21          6           0       -1.766727    3.271016    0.414573
     22          1           0       -1.197352    4.022085    0.968577
     23          1           0       -2.134599    3.709805   -0.526067
     24          1           0       -2.618388    2.980960    1.038277
     25          6           0        1.503038   -1.453928    0.064113
     26          6           0        1.787329   -2.128117   -1.130477
     27          6           0        1.932987   -1.989290    1.284899
     28          6           0        2.513441   -3.320571   -1.103626
     29          6           0        2.656081   -3.183445    1.307376
     30          6           0        2.951752   -3.848973    0.114017
     31          1           0        2.734988   -3.840420   -2.038372
     32          1           0        2.988260   -3.596860    2.262260
     33          1           0        1.447536   -1.712579   -2.081832
     34          1           0        1.706774   -1.466116    2.216680
     35          1           0        3.517485   -4.782923    0.133666
     36          8           0        3.489713    0.225696   -0.112031
     37          6           0        4.901848    0.322518   -0.216512
     38          1           0        5.197602    0.814848   -1.157249
     39          1           0        5.326481    0.872895    0.638777
     40          1           0        5.271817   -0.709349   -0.209444
     41          7           0       -4.893245   -0.663178   -0.106336
     42          6           0       -5.737089    0.523030   -0.117485
     43          1           0       -5.533670    1.155498   -0.998244
     44          1           0       -6.789265    0.220957   -0.151315
     45          1           0       -5.585322    1.131742    0.789725
     46          6           0       -5.521661   -1.979163   -0.175644
     47          1           0       -6.606879   -1.852837   -0.253216
     48          1           0       -5.181625   -2.543736   -1.058459
     49          1           0       -5.312365   -2.577525    0.725843
 ---------------------------------------------------------------------
                    Distance matrix (angstroms):
                    1          2          3          4          5
     1  C    0.000000
     2  C    1.413312   0.000000
     3  C    2.454206   1.400126   0.000000
     4  C    2.862650   2.461379   1.438556   0.000000
     5  C    2.435360   2.800545   2.451079   1.432750   0.000000
     6  C    1.439713   2.446523   2.822593   2.449312   1.363241
     7  C    4.266384   3.745858   2.472796   1.404187   2.480059
     8  C    5.112620   4.237637   2.839713   2.439302   3.767814
     9  C    4.872644   3.698584   2.420601   2.808328   4.239383
    10  C    6.114131   4.833404   3.697045   4.215961   5.645831
    11  H    6.330475   4.959416   4.053315   4.863643   6.259936
    12  C    7.281787   6.076438   4.835272   5.053201   6.466246
    13  C    7.481892   6.448248   5.089030   4.902079   6.216741
    14  C    6.540620   5.681919   4.285475   3.788796   5.001548
    15  H    2.155576   1.082246   2.151749   3.440451   3.882330
    16  H    3.422946   3.889434   3.434486   2.170054   1.088914
    17  H    2.199089   3.437979   3.909911   3.425293   2.116800
    18  H    8.227591   6.966493   5.794896   6.114352   7.534386
    19  H    8.530713   7.525562   6.158890   5.885935   7.146841
    20  N    3.720697   2.425405   1.380026   2.419783   3.706942
    21  C    4.229224   2.821893   2.447176   3.755964   4.889098
    22  H    5.227792   3.839372   3.304244   4.457248   5.687345
    23  H    4.504126   3.130066   2.974576   4.308026   5.380797
    24  H    3.795390   2.493231   2.571688   3.938949   4.846174
    25  C    5.132227   4.937213   3.816106   2.477080   2.853512
    26  C    5.671737   5.628163   4.625058   3.293674   3.384723
    27  C    5.819415   5.710488   4.646414   3.354865   3.537048
    28  C    6.752356   6.871886   5.934763   4.547000   4.380964
    29  C    6.874680   6.937917   5.950395   4.590281   4.497486
    30  C    7.293699   7.450275   6.501796   5.081529   4.859742
    31  H    7.372999   7.557944   6.689736   5.345094   5.100173
    32  H    7.571355   7.664468   6.714350   5.410498   5.277403
    33  H    5.522722   5.428317   4.487303   3.329176   3.502327
    34  H    5.789905   5.579593   4.526850   3.436583   3.760831
    35  H    8.242023   8.479648   7.572011   6.144376   5.823000
    36  O    7.077624   6.435549   5.065012   4.220584   5.166370
    37  C    8.493655   7.840645   6.462800   5.637363   6.538026
    38  H    8.918705   8.206705   6.841406   6.117333   7.070314
    39  H    9.009449   8.276364   6.881903   6.163822   7.138168
    40  H    8.821213   8.324969   6.988105   5.984462   6.680755
    41  N    1.354756   2.414066   3.694170   4.217086   3.666105
    42  C    2.436354   2.822744   4.222686   5.114193   4.871631
    43  H    2.783853   2.829927   4.153067   5.163554   5.106954
    44  H    3.333141   3.901110   5.300495   6.121715   5.736419
    45  H    2.762539   2.800750   4.125085   5.153337   5.091550
    46  C    2.448711   3.756960   4.902492   5.113240   4.197863
    47  H    3.337930   4.505040   5.763213   6.118506   5.273851
    48  H    2.782065   4.117359   5.116545   5.133522   4.098415
    49  H    2.802512   4.140631   5.150457   5.190030   4.147238
                    6          7          8          9         10
     6  C    0.000000
     7  C    3.731478   0.000000
     8  C    4.887542   1.422150   0.000000
     9  C    5.062900   2.465421   1.439491   0.000000
    10  C    6.430923   3.755717   2.468564   1.410104   0.000000
    11  H    6.868393   4.641128   3.461623   2.181117   1.085694
    12  C    7.419490   4.241369   2.820381   2.418172   1.384488
    13  C    7.346891   3.782321   2.465624   2.828337   2.435555
    14  C    6.215524   2.525175   1.448643   2.473349   2.822982
    15  H    3.427799   4.618910   4.867756   4.038333   4.937675
    16  H    2.123503   2.698093   4.111780   4.880049   6.272107
    17  H    1.087459   4.595793   5.845977   6.121550   7.500104
    18  H    8.448201   5.333008   3.912369   3.403699   2.138862
    19  H    8.327797   4.677552   3.457695   3.915801   3.410598
    20  N    4.201529   2.814186   2.442140   1.385855   2.425465
    21  C    5.083444   4.271802   3.776978   2.459416   2.821849
    22  H    6.004417   4.716225   3.960991   2.581942   2.474681
    23  H    5.471152   4.860173   4.343170   3.011074   3.171491
    24  H    4.804655   4.702286   4.464920   3.300495   3.825806
    25  C    4.215776   1.492233   2.563068   3.860988   5.030615
    26  C    4.648478   2.508649   3.456480   4.734475   5.829825
    27  C    4.823194   2.505067   3.404734   4.671212   5.777706
    28  C    5.570037   3.790333   4.716782   6.059442   7.110891
    29  C    5.714142   3.787629   4.679537   6.010489   7.069002
    30  C    6.049462   4.291587   5.219701   6.603223   7.654041
    31  H    6.184814   4.664425   5.535844   6.838257   7.842686
    32  H    6.414277   4.660668   5.479681   6.761200   7.775486
    33  H    4.640092   2.715950   3.504422   4.612136   5.652221
    34  H    4.947382   2.710572   3.413711   4.496507   5.556816
    35  H    6.942207   5.383678   6.289637   7.684096   8.707066
    36  O    6.489525   2.819746   2.363901   3.665935   4.153522
    37  C    7.875146   4.235820   3.694785   4.867930   5.066022
    38  H    8.373675   4.757677   4.080016   5.110897   5.127320
    39  H    8.460131   4.779492   4.086129   5.112001   5.136834
    40  H    8.040916   4.602347   4.372920   5.673597   6.034204
    41  N    2.426870   5.620492   6.436917   6.085170   7.243944
    42  C    3.765857   6.484268   7.058243   6.420727   7.385486
    43  H    4.144249   6.467655   6.903402   6.164968   7.020003
    44  H    4.519157   7.508737   8.134874   7.515892   8.470715
    45  H    4.122898   6.471982   6.926693   6.178358   7.067015
    46  C    2.835122   6.482037   7.483375   7.319629   8.550201
    47  H    3.912676   7.504323   8.440894   8.166048   9.331630
    48  H    2.816897   6.434221   7.508021   7.476376   8.736000
    49  H    2.846167   6.509041   7.597634   7.548608   8.832506
                   11         12         13         14         15
    11  H    0.000000
    12  C    2.132154   0.000000
    13  C    3.405185   1.400048   0.000000
    14  C    3.907364   2.412874   1.390436   0.000000
    15  H    4.823359   6.273961   6.858702   6.276905   0.000000
    16  H    7.001011   6.917142   6.452886   5.132290   4.971212
    17  H    7.954419   8.452845   8.304406   7.113697   4.336093
    18  H    2.437570   1.092170   2.153149   3.396151   7.049416
    19  H    4.283673   2.156592   1.087781   2.158264   7.945231
    20  N    2.688030   3.684894   4.213975   3.744454   2.667416
    21  C    2.487703   4.201855   5.086740   4.925630   2.468096
    22  H    1.943721   3.760241   4.797738   4.882741   3.505166
    23  H    2.641536   4.520470   5.500219   5.434990   2.572207
    24  H    3.514103   5.184881   5.995895   5.710714   1.963511
    25  C    5.998045   5.233497   4.421774   3.031920   5.908019
    26  C    6.791180   5.937089   5.043056   3.717208   6.607296
    27  C    6.754766   5.890427   4.994268   3.668006   6.687189
    28  C    8.106918   7.085329   6.042012   4.750077   7.887909
    29  C    8.077051   7.047616   6.003050   4.713114   7.953527
    30  C    8.678433   7.578165   6.466553   5.174146   8.490043
    31  H    8.820188   7.778377   6.728814   5.510984   8.558026
    32  H    8.771766   7.717896   6.667313   5.454941   8.665415
    33  H    6.545995   5.815592   5.050049   3.841716   6.341325
    34  H    6.479241   5.731171   4.963622   3.757208   6.489048
    35  H    9.742101   8.566933   7.399111   6.154366   9.530853
    36  O    5.238132   3.651715   2.392651   1.331536   7.170075
    37  C    6.119544   4.221524   2.822379   2.395405   8.546165
    38  H    6.124332   4.158360   2.828016   2.737289   8.850316
    39  H    6.147678   4.169695   2.829029   2.738102   8.926230
    40  H    7.105384   5.279004   3.886513   3.255540   9.118950
    41  N    7.327081   8.475685   8.767178   7.871805   2.650205
    42  C    7.252363   8.709834   9.217265   8.499862   2.452396
    43  H    6.812191   8.346571   8.932611   8.310267   2.261343
    44  H    8.307364   9.800076  10.310490   9.577915   3.534958
    45  H    6.868332   8.416825   9.000844   8.359843   2.252046
    46  C    8.709117   9.725167   9.889952   8.881642   4.106304
    47  H    9.392963  10.558242  10.810819   9.857164   4.633456
    48  H    8.967890   9.841138   9.911910   8.851775   4.588118
    49  H    9.063237   9.963847  10.041801   8.968924   4.613561
                   16         17         18         19         20
    16  H    0.000000
    17  H    2.428707   0.000000
    18  H    8.005455   9.494058   0.000000
    19  H    7.282339   9.252336   2.468127   0.000000
    20  N    4.581546   5.288465   4.561391   5.301335   0.000000
    21  C    5.856109   6.145094   4.823001   6.138080   1.464877
    22  H    6.585325   7.070098   4.226259   5.782669   2.102746
    23  H    6.371720   6.509447   5.029210   6.523123   2.132442
    24  H    5.865570   5.805073   5.821802   7.054904   2.097072
    25  C    2.454530   4.813027   6.302306   5.082423   4.303210
    26  C    2.792152   5.086478   6.962903   5.579828   5.186609
    27  C    2.980595   5.292316   6.925867   5.537734   5.109949
    28  C    3.535123   5.792935   8.076823   6.406638   6.541917
    29  C    3.683187   5.971559   8.046411   6.372108   6.481037
    30  C    3.926133   6.205065   8.566281   6.766058   7.098547
    31  H    4.257227   6.317921   8.730895   7.025957   7.316182
    32  H    4.474802   6.606960   8.681614   6.970873   7.219056
    33  H    3.128077   5.127488   6.806477   5.625691   5.021281
    34  H    3.423580   5.485706   6.739531   5.551733   4.879969
    35  H    4.830216   6.981587   9.526652   7.602985   8.189809
    36  O    5.011694   7.251876   4.538941   2.676697   4.804772
    37  C    6.292381   8.598028   4.868319   2.515659   6.105049
    38  H    6.882233   9.123371   4.665226   2.327441   6.396515
    39  H    6.946059   9.218328   4.686195   2.325837   6.389355
    40  H    6.258980   8.650926   5.959595   3.607352   6.814725
    41  N    4.547162   2.686660   9.373504   9.827360   4.839168
    42  C    5.842888   4.138320   9.497349  10.300078   5.068635
    43  H    6.113883   4.639764   9.077582  10.007166   4.844399
    44  H    6.639160   4.673194  10.576210  11.392557   6.162939
    45  H    6.100711   4.616854   9.164882  10.087943   4.797035
    46  C    4.825336   2.488785  10.665907  10.922116   6.150891
    47  H    5.920224   3.571906  11.458322  11.858734   6.930309
    48  H    4.586828   2.288997  10.803877  10.910734   6.413576
    49  H    4.638751   2.297828  10.938655  11.054766   6.432598
                   21         22         23         24         25
    21  C    0.000000
    22  H    1.093258   0.000000
    23  H    1.101213   1.791623   0.000000
    24  H    1.094745   1.762993   1.792328   0.000000
    25  C    5.756673   6.172267   6.343883   6.132159   0.000000
    26  C    6.645986   7.151177   7.058907   7.086360   1.400856
    27  C    6.489697   6.784962   7.232188   6.743828   1.400638
    28  C    8.004610   8.484021   8.447724   8.404327   2.422578
    29  C    7.875176   8.178227   8.592382   8.117409   2.422074
    30  C    8.546849   8.938618   9.133225   8.861642   2.799554
    31  H    8.766693   9.291072   9.110754   9.200849   3.410790
    32  H    8.555207   8.788702   9.349107   8.729281   3.410263
    33  H    6.434263   7.013330   6.682391   6.949541   2.162189
    34  H    6.144365   6.333408   7.004924   6.314439   2.162221
    35  H    9.636791  10.022721  10.222902   9.937059   3.891663
    36  O    6.097659   6.127713   6.628976   6.798793   2.607497
    37  C    7.318593   7.231284   7.815441   8.074389   3.845311
    38  H    7.550183   7.463306   7.908245   8.402504   4.504317
    39  H    7.490985   7.251659   8.066761   8.229489   4.512545
    40  H    8.110105   8.100886   8.630421   8.799462   3.851354
    41  N    5.052162   6.063559   5.187416   4.445768   6.447230
    42  C    4.857807   5.833706   4.827050   4.135638   7.507382
    43  H    4.545473   5.557820   4.277981   3.997324   7.579773
    44  H    5.903302   6.853628   5.829101   5.140910   8.462502
    45  H    4.393051   5.257409   4.503910   3.504866   7.580043
    46  C    6.481687   7.484909   6.630184   5.874131   7.048386
    47  H    7.080034   8.079014   7.142739   6.398563   8.125920
    48  H    6.902369   7.943130   6.976717   6.441176   6.865316
    49  H    6.846449   7.781202   7.155138   6.184811   6.939025
                   26         27         28         29         30
    26  C    0.000000
    27  C    2.423743   0.000000
    28  C    1.396390   2.795405   0.000000
    29  C    2.794919   1.396201   2.419107   0.000000
    30  C    2.421981   2.422244   1.397848   1.398018   0.000000
    31  H    2.157386   3.887675   1.092280   3.410553   2.163293
    32  H    3.887172   2.157108   3.410422   1.092272   2.163294
    33  H    1.092340   3.412786   2.163025   3.887256   3.413004
    34  H    3.412945   1.092291   3.887692   2.162692   3.413088
    35  H    3.411670   3.411797   2.162746   2.162855   1.092109
    36  O    3.078275   3.046469   3.809511   3.785750   4.116239
    37  C    4.067084   4.051275   4.445622   4.433676   4.616650
    38  H    4.504633   4.948231   4.930445   5.340417   5.330214
    39  H    4.966078   4.486132   5.341752   4.902240   5.311379
    40  H    3.873353   3.875448   3.902138   3.906913   3.917214
    41  N    6.915561   7.091654   7.931918   8.083480   8.470054
    42  C    8.041865   8.191978   9.155162   9.285122   9.729541
    43  H    8.024752   8.417446   9.208816   9.550619   9.913841
    44  H    8.946221   9.111837   9.999483  10.145555  10.560405
    45  H    8.286727   8.155428   9.433866   9.317163   9.906853
    46  C    7.372600   7.596385   8.198987   8.397923   8.682098
    47  H    8.444412   8.678348   9.276728   9.487275   9.771737
    48  H    6.981708   7.511088   7.734310   8.211945   8.320467
    49  H    7.352112   7.290658   8.071079   8.012581   8.383707
                   31         32         33         34         35
    31  H    0.000000
    32  H    4.314963   0.000000
    33  H    2.487394   4.979506   0.000000
    34  H    4.979961   2.486836   4.313369   0.000000
    35  H    2.493664   2.493539   4.315105   4.314954   0.000000
    36  O    4.562203   4.527764   3.436206   3.385852   5.014719
    37  C    5.034333   5.016737   4.421912   4.396377   5.301378
    38  H    5.339697   6.003116   4.615814   5.363961   5.985340
    39  H    6.008186   5.299215   5.397463   4.589448   5.959520
    40  H    4.425391   4.434149   4.374635   4.378162   4.448529
    41  N    8.486317   8.736982   6.723788   7.042824   9.368579
    42  C    9.721399   9.938229   7.776596   8.050846  10.670677
    43  H    9.716572  10.287812   7.624780   8.344617  10.884368
    44  H   10.524598  10.770379   8.678153   8.979771  11.460765
    45  H   10.096934   9.901229   8.111541   7.871450  10.875420
    46  C    8.666388   8.998837   7.230099   7.631298   9.469050
    47  H    9.716365  10.071541   8.260576   8.681403  10.546935
    48  H    8.081731   8.881625   6.758986   7.703106   9.061437
    49  H    8.602074   8.502940   7.370714   7.261277   9.120346
                   36         37         38         39         40
    36  O    0.000000
    37  C    1.419301   0.000000
    38  H    2.087215   1.102200   0.000000
    39  H    2.087174   1.102156   1.801579   0.000000
    40  H    2.014868   1.096210   1.796390   1.796097   0.000000
    41  N    8.429953   9.845181  10.252520  10.361347  10.165690
    42  C    9.231593  10.641287  10.987890  11.094905  11.078052
    43  H    9.114348  10.497857  10.737855  10.986473  10.993562
    44  H   10.279054  11.691736  12.043654  12.158971  12.097047
    45  H    9.164625  10.566366  10.961869  10.915916  11.057370
    46  C    9.277409  10.674687  11.120820  11.246319  10.867968
    47  H   10.309287  11.712571  12.135880  12.273156  11.933688
    48  H    9.151917  10.516687  10.909546  11.179189  10.647077
    49  H    9.275595  10.659664  11.203287  11.184723  10.788408
                   41         42         43         44         45
    41  N    0.000000
    42  C    1.455777   0.000000
    43  H    2.124436   1.103237   0.000000
    44  H    2.092513   1.095202   1.779656   0.000000
    45  H    2.122177   1.102993   1.788873   1.778922   0.000000
    46  C    1.459975   2.512123   3.240820   2.539279   3.257870
    47  H    2.091268   2.533713   3.279775   2.084291   3.322502
    48  H    2.127487   3.255615   3.716436   3.324296   4.133751
    49  H    2.129063   3.241147   4.117877   3.283617   3.719845
                   46         47         48         49
    46  C    0.000000
    47  H    1.095296   0.000000
    48  H    1.101694   1.776825   0.000000
    49  H    1.102053   1.777497   1.789404   0.000000
 Symmetry turned off by external request.
 Stoichiometry    C23H23N2O(1+)
 Framework group  C1[X(C23H23N2O)]
 Deg. of freedom   141
 Full point group                 C1      NOp   1
 Rotational constants (GHZ):      0.3025118      0.1572134      0.1079473
 Leave Link  202 at Sat Apr  3 00:15:49 2021, MaxMem=  5242880000 cpu:         0.2
 (Enter /opt/nce/packages/global/g09/l301.exe)
 Standard basis: def2TZVP (5D, 7F)
 Ernie: Thresh=  0.10000D-02 Tol=  0.10000D-05 Strict=F.
   944 basis functions,  1510 primitive gaussians,  1074 cartesian basis functions
    91 alpha electrons       91 beta electrons
       nuclear repulsion energy      2265.4588529966 Hartrees.
 IExCor=    0 DFT=F Ex=HF Corr=None ExCW=0 ScaHFX=  1.000000
 ScaDFX=  1.000000  1.000000  1.000000  1.000000 ScalE2=  1.000000  1.000000
 IRadAn=      5 IRanWt=     -1 IRanGd=            0 ICorTp=0 IEmpDi=  4
 NAtoms=   49 NActive=   49 NUniq=   49 SFac= 1.00D+00 NAtFMM=   60 NAOKFM=F Big=F
 Integral buffers will be    131072 words long.
 Raffenetti 1 integral format.
 Two-electron integral symmetry is turned off.
 ------------------------------------------------------------------------------
 Polarizable Continuum Model (PCM)
 =================================
 Model                : PCM (using non-symmetric T matrix).
 Atomic radii         : SMD-Coulomb.
 Polarization charges : Total charges.
 Charge compensation  : None.
 Solution method      : On-the-fly selection.
 Cavity type          : VdW (van der Waals Surface) (Alpha=1.000).
 Cavity algorithm     : GePol (No added spheres)
                        Default sphere list used, NSphG=   49.
                        Lebedev-Laikov grids with approx.  5.0 points / Ang**2.
                        Smoothing algorithm: York/Karplus (Gamma=1.0000).
                        Polarization charges: spherical gaussians, with
                                              point-specific exponents (IZeta= 3).
                        Self-potential: point-specific (ISelfS= 7).
                        Self-field    : sphere-specific E.n sum rule (ISelfD= 2).
 1st derivatives      : Analytical E(r).r(x)/FMM algorithm (CHGder, D1EAlg=3).
                        Cavity 1st derivative terms included.
 Solvent              : Acetonitrile, Eps=  35.688000 Eps(inf)=   1.806874
 ------------------------------------------------------------------------------
 GePol: Number of generator spheres                  =      49
 GePol: Total number of spheres                      =      49
 GePol: Number of exposed spheres                    =      49 (100.00%)
 GePol: Number of points                             =    3423
 GePol: Average weight of points                     =       0.11
 GePol: Minimum weight of points                     =   0.53D-09
 GePol: Maximum weight of points                     =    0.21559
 GePol: Number of points with low weight             =     226
 GePol: Fraction of low-weight points (<1% of avg)   =       6.60%
 GePol: Cavity surface area                          =    371.417 Ang**2
 GePol: Cavity volume                                =    367.304 Ang**3
 ------------------------------------------------------------------------------
 Atomic radii for non-electrostatic terms: SMD-CDS.
 ------------------------------------------------------------------------------
 PCM non-electrostatic energy =        -0.0069084157 Hartrees.
 Nuclear repulsion after PCM non-electrostatic terms =     2265.4519445809 Hartrees.
 Leave Link  301 at Sat Apr  3 00:15:49 2021, MaxMem=  5242880000 cpu:         1.6
 (Enter /opt/nce/packages/global/g09/l302.exe)
 NPDir=0 NMtPBC=     1 NCelOv=     1 NCel=       1 NClECP=     1 NCelD=      1
         NCelK=      1 NCelE2=     1 NClLst=     1 CellRange=     0.0.
 One-electron integrals computed using PRISM.
   1 Symmetry operations used in ECPInt.
 ECPInt:  NShTT=   71631 NPrTT=  217452 LenC2=   60193 LenP2D=  127896.
 LDataN:  DoStor=T MaxTD1= 6 Len=  172
 NBasis=   944 RedAO= T EigKep=  4.90D-06  NBF=   944
 NBsUse=   944 1.00D-06 EigRej= -1.00D+00 NBFU=   944
 Leave Link  302 at Sat Apr  3 00:15:51 2021, MaxMem=  5242880000 cpu:        19.9
 (Enter /opt/nce/packages/global/g09/l303.exe)
 DipDrv:  MaxL=1.
 Leave Link  303 at Sat Apr  3 00:15:51 2021, MaxMem=  5242880000 cpu:         2.4
 (Enter /opt/nce/packages/global/g09/l401.exe)
 ExpMin= 9.52D-02 ExpMax= 2.70D+04 ExpMxC= 9.22D+02 IAcc=3 IRadAn=         5 AccDes= 0.00D+00
 Harris functional with IExCor=  205 and IRadAn=       5 diagonalized for initial guess.
 HarFok:  IExCor=  205 AccDes= 0.00D+00 IRadAn=         5 IDoV= 1 UseB2=F ITyADJ=14
 ICtDFT=  3500011 ScaDFX=  1.000000  1.000000  1.000000  1.000000
 FoFCou: FMM=F IPFlag=           0 FMFlag=      100000 FMFlg1=           0
         NFxFlg=           0 DoJE=T BraDBF=F KetDBF=T FulRan=T
         wScrn=  0.000000 ICntrl=     500 IOpCl=  0 I1Cent=   200000004 NGrid=           0
         NMat0=    1 NMatS0=      1 NMatT0=    0 NMatD0=    1 NMtDS0=    0 NMtDT0=    0
 Symmetry not used in FoFCou.
 Harris En= -1069.82650714294    
 JPrj=0 DoOrth=F DoCkMO=F.
 Leave Link  401 at Sat Apr  3 00:15:57 2021, MaxMem=  5242880000 cpu:        68.4
 (Enter /opt/nce/packages/global/g09/l502.exe)
 Closed shell SCF:
 Using DIIS extrapolation, IDIIS=  1040.
 Two-electron integral symmetry not used.
 IVT=     3498408 IEndB=     3498408 NGot=  5242880000 MDV=  5240552783
 LenX=  5240552783 LenY=  5239398233
 Requested convergence on RMS density matrix=1.00D-08 within 128 cycles.
 Requested convergence on MAX density matrix=1.00D-06.
 Requested convergence on             energy=1.00D-06.
 No special actions if energy rises.
 Fock matrices will be formed incrementally for  20 cycles.

 Cycle   1  Pass 1  IDiag  1:
 FoFJK:  IHMeth= 1 ICntrl=       0 DoSepK=F KAlg= 0 I1Cent=   0 FoldK=F
 IRaf= 730000000 NMat=   1 IRICut=       1 DoRegI=T DoRafI=F ISym2E= 0.
 FoFCou: FMM=F IPFlag=           0 FMFlag=      100000 FMFlg1=           0
         NFxFlg=           0 DoJE=F BraDBF=F KetDBF=F FulRan=T
         wScrn=  0.000000 ICntrl=       0 IOpCl=  0 I1Cent=           0 NGrid=           0
         NMat0=    1 NMatS0=      1 NMatT0=    0 NMatD0=    1 NMtDS0=    0 NMtDT0=    0
 Symmetry not used in FoFCou.
 Inv3:  Mode=1 IEnd=    35150787.
 Iteration    1 A*A^-1 deviation from unit magnitude is 7.55D-15 for   3420.
 Iteration    1 A*A^-1 deviation from orthogonality  is 3.91D-15 for   1828     66.
 Iteration    1 A^-1*A deviation from unit magnitude is 7.33D-15 for   3420.
 Iteration    1 A^-1*A deviation from orthogonality  is 2.16D-12 for   1973   1947.
 E= -1067.34258636841    
 DIIS: error= 2.39D-02 at cycle   1 NSaved=   1.
 NSaved= 1 IEnMin= 1 EnMin= -1067.34258636841     IErMin= 1 ErrMin= 2.39D-02
 ErrMax= 2.39D-02  0.00D+00 EMaxC= 1.00D-01 BMatC= 2.09D+00 BMatP= 2.09D+00
 IDIUse=3 WtCom= 7.61D-01 WtEn= 2.39D-01
 Coeff-Com:  0.100D+01
 Coeff-En:   0.100D+01
 Coeff:      0.100D+01
 Gap=     0.318 Goal=   None    Shift=    0.000
 GapD=    0.318 DampG=1.000 DampE=0.500 DampFc=0.5000 IDamp=-1.
 Damping current iteration by 5.00D-01
 RMSDP=1.83D-03 MaxDP=8.06D-02              OVMax= 1.65D-01

 Cycle   2  Pass 1  IDiag  1:
 RMSU=  8.87D-04    CP:  9.58D-01
 E= -1067.87206941641     Delta-E=       -0.529483048002 Rises=F Damp=T
 DIIS: error= 1.28D-02 at cycle   2 NSaved=   2.
 NSaved= 2 IEnMin= 2 EnMin= -1067.87206941641     IErMin= 2 ErrMin= 1.28D-02
 ErrMax= 1.28D-02  0.00D+00 EMaxC= 1.00D-01 BMatC= 5.00D-01 BMatP= 2.09D+00
 IDIUse=3 WtCom= 8.72D-01 WtEn= 1.28D-01
 Coeff-Com: -0.799D+00 0.180D+01
 Coeff-En:   0.000D+00 0.100D+01
 Coeff:     -0.697D+00 0.170D+01
 Gap=     0.311 Goal=   None    Shift=    0.000
 RMSDP=1.17D-03 MaxDP=1.07D-01 DE=-5.29D-01 OVMax= 6.05D-02

 Cycle   3  Pass 1  IDiag  1:
 RMSU=  6.77D-04    CP:  9.21D-01  2.05D+00
 E= -1068.35748201493     Delta-E=       -0.485412598524 Rises=F Damp=F
 DIIS: error= 2.97D-03 at cycle   3 NSaved=   3.
 NSaved= 3 IEnMin= 3 EnMin= -1068.35748201493     IErMin= 3 ErrMin= 2.97D-03
 ErrMax= 2.97D-03  0.00D+00 EMaxC= 1.00D-01 BMatC= 1.31D-02 BMatP= 5.00D-01
 IDIUse=3 WtCom= 9.70D-01 WtEn= 2.97D-02
 Coeff-Com: -0.209D+00 0.386D+00 0.823D+00
 Coeff-En:   0.000D+00 0.000D+00 0.100D+01
 Coeff:     -0.203D+00 0.374D+00 0.829D+00
 Gap=     0.305 Goal=   None    Shift=    0.000
 RMSDP=1.92D-04 MaxDP=1.21D-02 DE=-4.85D-01 OVMax= 2.97D-02

 Cycle   4  Pass 1  IDiag  1:
 RMSU=  1.66D-04    CP:  9.18D-01  2.15D+00  9.67D-01
 E= -1068.37025838165     Delta-E=       -0.012776366714 Rises=F Damp=F
 DIIS: error= 6.83D-04 at cycle   4 NSaved=   4.
 NSaved= 4 IEnMin= 4 EnMin= -1068.37025838165     IErMin= 4 ErrMin= 6.83D-04
 ErrMax= 6.83D-04  0.00D+00 EMaxC= 1.00D-01 BMatC= 1.22D-03 BMatP= 1.31D-02
 IDIUse=3 WtCom= 9.93D-01 WtEn= 6.83D-03
 Coeff-Com: -0.271D-01 0.389D-01 0.241D+00 0.747D+00
 Coeff-En:   0.000D+00 0.000D+00 0.000D+00 0.100D+01
 Coeff:     -0.270D-01 0.386D-01 0.240D+00 0.749D+00
 Gap=     0.307 Goal=   None    Shift=    0.000
 RMSDP=5.38D-05 MaxDP=3.05D-03 DE=-1.28D-02 OVMax= 8.79D-03

 Cycle   5  Pass 1  IDiag  1:
 RMSU=  4.89D-05    CP:  9.17D-01  2.15D+00  9.91D-01  9.17D-01
 E= -1068.37168792243     Delta-E=       -0.001429540784 Rises=F Damp=F
 DIIS: error= 3.85D-04 at cycle   5 NSaved=   5.
 NSaved= 5 IEnMin= 5 EnMin= -1068.37168792243     IErMin= 5 ErrMin= 3.85D-04
 ErrMax= 3.85D-04  0.00D+00 EMaxC= 1.00D-01 BMatC= 9.29D-05 BMatP= 1.22D-03
 IDIUse=3 WtCom= 9.96D-01 WtEn= 3.85D-03
 Coeff-Com:  0.216D-01-0.396D-01-0.885D-01-0.680D-01 0.117D+01
 Coeff-En:   0.000D+00 0.000D+00 0.000D+00 0.000D+00 0.100D+01
 Coeff:      0.215D-01-0.394D-01-0.882D-01-0.677D-01 0.117D+01
 Gap=     0.309 Goal=   None    Shift=    0.000
 RMSDP=3.54D-05 MaxDP=3.49D-03 DE=-1.43D-03 OVMax= 7.35D-03

 Cycle   6  Pass 1  IDiag  1:
 RMSU=  1.86D-05    CP:  9.17D-01  2.16D+00  1.01D+00  1.03D+00  1.32D+00
 E= -1068.37206468143     Delta-E=       -0.000376758999 Rises=F Damp=F
 DIIS: error= 1.53D-04 at cycle   6 NSaved=   6.
 NSaved= 6 IEnMin= 6 EnMin= -1068.37206468143     IErMin= 6 ErrMin= 1.53D-04
 ErrMax= 1.53D-04  0.00D+00 EMaxC= 1.00D-01 BMatC= 2.44D-05 BMatP= 9.29D-05
 IDIUse=3 WtCom= 9.98D-01 WtEn= 1.53D-03
 Coeff-Com:  0.509D-02-0.799D-02-0.370D-01-0.121D+00 0.886D-01 0.107D+01
 Coeff-En:   0.000D+00 0.000D+00 0.000D+00 0.000D+00 0.000D+00 0.100D+01
 Coeff:      0.509D-02-0.797D-02-0.370D-01-0.120D+00 0.884D-01 0.107D+01
 Gap=     0.311 Goal=   None    Shift=    0.000
 RMSDP=1.61D-05 MaxDP=1.59D-03 DE=-3.77D-04 OVMax= 4.02D-03

 Cycle   7  Pass 1  IDiag  1:
 RMSU=  8.24D-06    CP:  9.18D-01  2.16D+00  1.02D+00  1.08D+00  1.45D+00
                    CP:  1.42D+00
 E= -1068.37216483220     Delta-E=       -0.000100150770 Rises=F Damp=F
 DIIS: error= 7.39D-05 at cycle   7 NSaved=   7.
 NSaved= 7 IEnMin= 7 EnMin= -1068.37216483220     IErMin= 7 ErrMin= 7.39D-05
 ErrMax= 7.39D-05  0.00D+00 EMaxC= 1.00D-01 BMatC= 5.12D-06 BMatP= 2.44D-05
 IDIUse=1 WtCom= 1.00D+00 WtEn= 0.00D+00
 Coeff-Com: -0.574D-02 0.105D-01 0.254D-01 0.242D-01-0.264D+00-0.145D+00
 Coeff-Com:  0.135D+01
 Coeff:     -0.574D-02 0.105D-01 0.254D-01 0.242D-01-0.264D+00-0.145D+00
 Coeff:      0.135D+01
 Gap=     0.312 Goal=   None    Shift=    0.000
 RMSDP=9.56D-06 MaxDP=1.01D-03 DE=-1.00D-04 OVMax= 3.59D-03

 Cycle   8  Pass 1  IDiag  1:
 RMSU=  4.72D-06    CP:  9.18D-01  2.16D+00  1.02D+00  1.09D+00  1.51D+00
                    CP:  1.75D+00  1.53D+00
 E= -1068.37219686555     Delta-E=       -0.000032033348 Rises=F Damp=F
 DIIS: error= 3.95D-05 at cycle   8 NSaved=   8.
 NSaved= 8 IEnMin= 8 EnMin= -1068.37219686555     IErMin= 8 ErrMin= 3.95D-05
 ErrMax= 3.95D-05  0.00D+00 EMaxC= 1.00D-01 BMatC= 8.83D-07 BMatP= 5.12D-06
 IDIUse=1 WtCom= 1.00D+00 WtEn= 0.00D+00
 Coeff-Com: -0.152D-02 0.259D-02 0.817D-02 0.220D-01-0.287D-01-0.215D+00
 Coeff-Com:  0.109D+00 0.110D+01
 Coeff:     -0.152D-02 0.259D-02 0.817D-02 0.220D-01-0.287D-01-0.215D+00
 Coeff:      0.109D+00 0.110D+01
 Gap=     0.312 Goal=   None    Shift=    0.000
 RMSDP=4.01D-06 MaxDP=2.82D-04 DE=-3.20D-05 OVMax= 1.63D-03

 Cycle   9  Pass 1  IDiag  1:
 RMSU=  1.77D-06    CP:  9.18D-01  2.16D+00  1.02D+00  1.09D+00  1.52D+00
                    CP:  1.86D+00  1.79D+00  1.42D+00
 E= -1068.37220219812     Delta-E=       -0.000005332569 Rises=F Damp=F
 DIIS: error= 1.90D-05 at cycle   9 NSaved=   9.
 NSaved= 9 IEnMin= 9 EnMin= -1068.37220219812     IErMin= 9 ErrMin= 1.90D-05
 ErrMax= 1.90D-05  0.00D+00 EMaxC= 1.00D-01 BMatC= 1.80D-07 BMatP= 8.83D-07
 IDIUse=1 WtCom= 1.00D+00 WtEn= 0.00D+00
 Coeff-Com:  0.829D-03-0.152D-02-0.411D-02-0.410D-02 0.416D-01 0.202D-01
 Coeff-Com: -0.213D+00-0.159D-01 0.118D+01
 Coeff:      0.829D-03-0.152D-02-0.411D-02-0.410D-02 0.416D-01 0.202D-01
 Coeff:     -0.213D+00-0.159D-01 0.118D+01
 Gap=     0.312 Goal=   None    Shift=    0.000
 RMSDP=1.89D-06 MaxDP=1.22D-04 DE=-5.33D-06 OVMax= 9.07D-04

 Cycle  10  Pass 1  IDiag  1:
 RMSU=  8.12D-07    CP:  9.18D-01  2.16D+00  1.02D+00  1.09D+00  1.52D+00
                    CP:  1.88D+00  1.87D+00  1.67D+00  1.50D+00
 E= -1068.37220341204     Delta-E=       -0.000001213926 Rises=F Damp=F
 DIIS: error= 8.67D-06 at cycle  10 NSaved=  10.
 NSaved=10 IEnMin=10 EnMin= -1068.37220341204     IErMin=10 ErrMin= 8.67D-06
 ErrMax= 8.67D-06  0.00D+00 EMaxC= 1.00D-01 BMatC= 4.87D-08 BMatP= 1.80D-07
 IDIUse=1 WtCom= 1.00D+00 WtEn= 0.00D+00
 Coeff-Com:  0.461D-03-0.787D-03-0.256D-02-0.678D-02 0.926D-02 0.635D-01
 Coeff-Com: -0.301D-01-0.334D+00-0.186D-01 0.132D+01
 Coeff:      0.461D-03-0.787D-03-0.256D-02-0.678D-02 0.926D-02 0.635D-01
 Coeff:     -0.301D-01-0.334D+00-0.186D-01 0.132D+01
 Gap=     0.312 Goal=   None    Shift=    0.000
 RMSDP=1.28D-06 MaxDP=6.47D-05 DE=-1.21D-06 OVMax= 5.75D-04

 Cycle  11  Pass 1  IDiag  1:
 RMSU=  4.44D-07    CP:  9.18D-01  2.16D+00  1.02D+00  1.09D+00  1.52D+00
                    CP:  1.89D+00  1.90D+00  1.82D+00  1.95D+00  1.57D+00
 E= -1068.37220376849     Delta-E=       -0.000000356446 Rises=F Damp=F
 DIIS: error= 3.23D-06 at cycle  11 NSaved=  11.
 NSaved=11 IEnMin=11 EnMin= -1068.37220376849     IErMin=11 ErrMin= 3.23D-06
 ErrMax= 3.23D-06  0.00D+00 EMaxC= 1.00D-01 BMatC= 5.63D-09 BMatP= 4.87D-08
 IDIUse=1 WtCom= 1.00D+00 WtEn= 0.00D+00
 Coeff-Com: -0.880D-04 0.167D-03 0.492D-03 0.122D-03-0.570D-02 0.428D-03
 Coeff-Com:  0.361D-01-0.191D-01-0.183D+00 0.913D-01 0.108D+01
 Coeff:     -0.880D-04 0.167D-03 0.492D-03 0.122D-03-0.570D-02 0.428D-03
 Coeff:      0.361D-01-0.191D-01-0.183D+00 0.913D-01 0.108D+01
 Gap=     0.312 Goal=   None    Shift=    0.000
 RMSDP=3.64D-07 MaxDP=1.57D-05 DE=-3.56D-07 OVMax= 1.59D-04

 Cycle  12  Pass 1  IDiag  1:
 RMSU=  1.47D-07    CP:  9.18D-01  2.16D+00  1.02D+00  1.09D+00  1.52D+00
                    CP:  1.89D+00  1.91D+00  1.83D+00  2.02D+00  1.85D+00
                    CP:  1.38D+00
 E= -1068.37220380343     Delta-E=       -0.000000034944 Rises=F Damp=F
 DIIS: error= 1.13D-06 at cycle  12 NSaved=  12.
 NSaved=12 IEnMin=12 EnMin= -1068.37220380343     IErMin=12 ErrMin= 1.13D-06
 ErrMax= 1.13D-06  0.00D+00 EMaxC= 1.00D-01 BMatC= 1.29D-09 BMatP= 5.63D-09
 IDIUse=1 WtCom= 1.00D+00 WtEn= 0.00D+00
 Coeff-Com: -0.774D-04 0.135D-03 0.468D-03 0.997D-03-0.202D-02-0.107D-01
 Coeff-Com:  0.939D-02 0.488D-01-0.298D-01-0.208D+00 0.181D+00 0.101D+01
 Coeff:     -0.774D-04 0.135D-03 0.468D-03 0.997D-03-0.202D-02-0.107D-01
 Coeff:      0.939D-02 0.488D-01-0.298D-01-0.208D+00 0.181D+00 0.101D+01
 Gap=     0.312 Goal=   None    Shift=    0.000
 RMSDP=1.73D-07 MaxDP=7.69D-06 DE=-3.49D-08 OVMax= 7.29D-05

 Cycle  13  Pass 1  IDiag  1:
 RMSU=  5.11D-08    CP:  9.18D-01  2.16D+00  1.02D+00  1.09D+00  1.52D+00
                    CP:  1.89D+00  1.91D+00  1.84D+00  2.05D+00  1.94D+00
                    CP:  1.63D+00  1.31D+00
 E= -1068.37220380969     Delta-E=       -0.000000006258 Rises=F Damp=F
 DIIS: error= 4.57D-07 at cycle  13 NSaved=  13.
 NSaved=13 IEnMin=13 EnMin= -1068.37220380969     IErMin=13 ErrMin= 4.57D-07
 ErrMax= 4.57D-07  0.00D+00 EMaxC= 1.00D-01 BMatC= 1.79D-10 BMatP= 1.29D-09
 IDIUse=1 WtCom= 1.00D+00 WtEn= 0.00D+00
 Coeff-Com:  0.186D-04-0.353D-04-0.973D-04-0.109D-03 0.118D-02 0.126D-03
 Coeff-Com: -0.643D-02 0.213D-02 0.338D-01-0.749D-02-0.191D+00-0.506D-01
 Coeff-Com:  0.122D+01
 Coeff:      0.186D-04-0.353D-04-0.973D-04-0.109D-03 0.118D-02 0.126D-03
 Coeff:     -0.643D-02 0.213D-02 0.338D-01-0.749D-02-0.191D+00-0.506D-01
 Coeff:      0.122D+01
 Gap=     0.312 Goal=   None    Shift=    0.000
 RMSDP=6.15D-08 MaxDP=3.15D-06 DE=-6.26D-09 OVMax= 2.19D-05

 Cycle  14  Pass 1  IDiag  1:
 RMSU=  2.32D-08    CP:  9.18D-01  2.16D+00  1.02D+00  1.09D+00  1.52D+00
                    CP:  1.89D+00  1.91D+00  1.84D+00  2.05D+00  1.96D+00
                    CP:  1.70D+00  1.54D+00  1.47D+00
 E= -1068.37220381061     Delta-E=       -0.000000000919 Rises=F Damp=F
 DIIS: error= 2.40D-07 at cycle  14 NSaved=  14.
 NSaved=14 IEnMin=14 EnMin= -1068.37220381061     IErMin=14 ErrMin= 2.40D-07
 ErrMax= 2.40D-07  0.00D+00 EMaxC= 1.00D-01 BMatC= 3.31D-11 BMatP= 1.79D-10
 IDIUse=1 WtCom= 1.00D+00 WtEn= 0.00D+00
 Coeff-Com:  0.149D-04-0.264D-04-0.887D-04-0.182D-03 0.576D-03 0.170D-02
 Coeff-Com: -0.266D-02-0.699D-02 0.107D-01 0.308D-01-0.580D-01-0.164D+00
 Coeff-Com:  0.184D+00 0.100D+01
 Coeff:      0.149D-04-0.264D-04-0.887D-04-0.182D-03 0.576D-03 0.170D-02
 Coeff:     -0.266D-02-0.699D-02 0.107D-01 0.308D-01-0.580D-01-0.164D+00
 Coeff:      0.184D+00 0.100D+01
 Gap=     0.312 Goal=   None    Shift=    0.000
 RMSDP=2.09D-08 MaxDP=1.43D-06 DE=-9.19D-10 OVMax= 7.42D-06

 Cycle  15  Pass 1  IDiag  1:
 RMSU=  1.15D-08    CP:  9.18D-01  2.16D+00  1.02D+00  1.09D+00  1.52D+00
                    CP:  1.89D+00  1.91D+00  1.84D+00  2.05D+00  1.97D+00
                    CP:  1.71D+00  1.58D+00  1.68D+00  1.35D+00
 E= -1068.37220381080     Delta-E=       -0.000000000194 Rises=F Damp=F
 DIIS: error= 1.09D-07 at cycle  15 NSaved=  15.
 NSaved=15 IEnMin=15 EnMin= -1068.37220381080     IErMin=15 ErrMin= 1.09D-07
 ErrMax= 1.09D-07  0.00D+00 EMaxC= 1.00D-01 BMatC= 7.06D-12 BMatP= 3.31D-11
 IDIUse=1 WtCom= 1.00D+00 WtEn= 0.00D+00
 Coeff-Com: -0.499D-05 0.935D-05 0.257D-04 0.352D-04-0.290D-03-0.947D-04
 Coeff-Com:  0.146D-02 0.971D-05-0.806D-02-0.802D-03 0.467D-01 0.199D-01
 Coeff-Com: -0.292D+00 0.324D-02 0.123D+01
 Coeff:     -0.499D-05 0.935D-05 0.257D-04 0.352D-04-0.290D-03-0.947D-04
 Coeff:      0.146D-02 0.971D-05-0.806D-02-0.802D-03 0.467D-01 0.199D-01
 Coeff:     -0.292D+00 0.324D-02 0.123D+01
 Gap=     0.312 Goal=   None    Shift=    0.000
 RMSDP=1.28D-08 MaxDP=1.07D-06 DE=-1.94D-10 OVMax= 5.17D-06

 Cycle  16  Pass 1  IDiag  1:
 RMSU=  5.62D-09    CP:  9.18D-01  2.16D+00  1.02D+00  1.09D+00  1.52D+00
                    CP:  1.89D+00  1.91D+00  1.84D+00  2.06D+00  1.97D+00
                    CP:  1.71D+00  1.58D+00  1.75D+00  1.68D+00  1.45D+00
 E= -1068.37220381082     Delta-E=       -0.000000000011 Rises=F Damp=F
 DIIS: error= 4.25D-08 at cycle  16 NSaved=  16.
 NSaved=16 IEnMin=16 EnMin= -1068.37220381082     IErMin=16 ErrMin= 4.25D-08
 ErrMax= 4.25D-08  0.00D+00 EMaxC= 1.00D-01 BMatC= 1.33D-12 BMatP= 7.06D-12
 IDIUse=1 WtCom= 1.00D+00 WtEn= 0.00D+00
 Coeff-Com: -0.163D-05 0.289D-05 0.102D-04 0.287D-04-0.772D-04-0.223D-03
 Coeff-Com:  0.208D-03 0.117D-02-0.111D-02-0.503D-02 0.723D-02 0.226D-01
 Coeff-Com: -0.126D-01-0.125D+00-0.144D+00 0.126D+01
 Coeff:     -0.163D-05 0.289D-05 0.102D-04 0.287D-04-0.772D-04-0.223D-03
 Coeff:      0.208D-03 0.117D-02-0.111D-02-0.503D-02 0.723D-02 0.226D-01
 Coeff:     -0.126D-01-0.125D+00-0.144D+00 0.126D+01
 Gap=     0.312 Goal=   None    Shift=    0.000
 RMSDP=5.76D-09 MaxDP=2.75D-07 DE=-1.09D-11 OVMax= 2.76D-06

 Error on total polarization charges =  0.06351
 SCF Done:  E(RHF) =  -1068.37220381     A.U. after   16 cycles
            NFock= 16  Conv=0.58D-08     -V/T= 2.0018
 KE= 1.066487230703D+03 PE=-6.999662526489D+03 EE= 2.599351147395D+03
 SMD-CDS (non-electrostatic) energy       (kcal/mol) =      -4.34
 (included in total energy above)
 Leave Link  502 at Sat Apr  3 00:39:10 2021, MaxMem=  5242880000 cpu:     16694.2
 (Enter /opt/nce/packages/global/g09/l601.exe)
 Copying SCF densities to generalized density rwf, IOpCl= 0 IROHF=0.

 **********************************************************************

            Population analysis using the SCF density.

 **********************************************************************

 Alpha  occ. eigenvalues --  -20.59564 -15.64281 -15.59626 -11.33629 -11.32715
 Alpha  occ. eigenvalues --  -11.32690 -11.31865 -11.31371 -11.27995 -11.26816
 Alpha  occ. eigenvalues --  -11.26555 -11.26544 -11.26390 -11.25987 -11.25660
 Alpha  occ. eigenvalues --  -11.25578 -11.25541 -11.24013 -11.23990 -11.23985
 Alpha  occ. eigenvalues --  -11.23851 -11.23817 -11.23643 -11.23426 -11.23136
 Alpha  occ. eigenvalues --  -11.22896  -1.43519  -1.32630  -1.28014  -1.18347
 Alpha  occ. eigenvalues --   -1.16496  -1.14828  -1.10292  -1.05201  -1.03533
 Alpha  occ. eigenvalues --   -1.02720  -1.01846  -1.01698  -0.97450  -0.96217
 Alpha  occ. eigenvalues --   -0.95591  -0.92962  -0.89445  -0.86360  -0.83718
 Alpha  occ. eigenvalues --   -0.82908  -0.82095  -0.79048  -0.76744  -0.74839
 Alpha  occ. eigenvalues --   -0.72918  -0.69775  -0.69139  -0.68943  -0.67628
 Alpha  occ. eigenvalues --   -0.66497  -0.66137  -0.65216  -0.64758  -0.64153
 Alpha  occ. eigenvalues --   -0.63957  -0.63040  -0.62286  -0.62095  -0.60032
 Alpha  occ. eigenvalues --   -0.58662  -0.58633  -0.57465  -0.56958  -0.56277
 Alpha  occ. eigenvalues --   -0.55827  -0.55422  -0.55065  -0.53411  -0.53280
 Alpha  occ. eigenvalues --   -0.52932  -0.52473  -0.51501  -0.50412  -0.49753
 Alpha  occ. eigenvalues --   -0.49555  -0.48758  -0.48093  -0.45578  -0.43997
 Alpha  occ. eigenvalues --   -0.38543  -0.35863  -0.34292  -0.33573  -0.30405
 Alpha  occ. eigenvalues --   -0.29546
 Alpha virt. eigenvalues --    0.01645   0.09102   0.11371   0.11682   0.13142
 Alpha virt. eigenvalues --    0.13434   0.14879   0.15080   0.15654   0.16050
 Alpha virt. eigenvalues --    0.17264   0.17386   0.17965   0.18600   0.19224
 Alpha virt. eigenvalues --    0.19462   0.19680   0.20151   0.20570   0.20994
 Alpha virt. eigenvalues --    0.21242   0.21766   0.21977   0.22102   0.23173
 Alpha virt. eigenvalues --    0.24062   0.24286   0.24432   0.24912   0.25230
 Alpha virt. eigenvalues --    0.25433   0.25745   0.26385   0.27466   0.28114
 Alpha virt. eigenvalues --    0.28482   0.28594   0.28960   0.29818   0.30389
 Alpha virt. eigenvalues --    0.31347   0.32017   0.32357   0.33047   0.33302
 Alpha virt. eigenvalues --    0.33527   0.33962   0.34220   0.34793   0.35287
 Alpha virt. eigenvalues --    0.35481   0.35722   0.36374   0.36546   0.36933
 Alpha virt. eigenvalues --    0.37636   0.37908   0.38702   0.38968   0.39670
 Alpha virt. eigenvalues --    0.39770   0.40382   0.40552   0.41636   0.41842
 Alpha virt. eigenvalues --    0.42175   0.43108   0.43848   0.43896   0.44565
 Alpha virt. eigenvalues --    0.45153   0.45367   0.45670   0.45932   0.46167
 Alpha virt. eigenvalues --    0.46526   0.47061   0.47707   0.48464   0.48827
 Alpha virt. eigenvalues --    0.49300   0.49546   0.50164   0.51019   0.51322
 Alpha virt. eigenvalues --    0.51441   0.51918   0.52195   0.52348   0.52626
 Alpha virt. eigenvalues --    0.53565   0.54228   0.54263   0.54518   0.54686
 Alpha virt. eigenvalues --    0.55004   0.55412   0.55881   0.55929   0.56345
 Alpha virt. eigenvalues --    0.56699   0.57010   0.57315   0.57529   0.57903
 Alpha virt. eigenvalues --    0.58464   0.58797   0.59654   0.59934   0.60031
 Alpha virt. eigenvalues --    0.60753   0.61126   0.61380   0.62161   0.62705
 Alpha virt. eigenvalues --    0.62986   0.63498   0.63684   0.64106   0.64640
 Alpha virt. eigenvalues --    0.64807   0.65087   0.65437   0.65711   0.66026
[...]
    37  C    0.001668  -0.001726  -0.001368  -0.000091   0.000146  -0.000865
    38  H   -0.000043  -0.000645   0.000483  -0.000018  -0.000026   0.000047
    39  H   -0.000132   0.000497  -0.000595  -0.000008   0.000004   0.000036
    40  H    0.001078  -0.001435  -0.001469   0.000764   0.000659   0.000008
    41  N   -0.000017   0.000001   0.000000  -0.000000  -0.000000  -0.000000
    42  C   -0.000004  -0.000000  -0.000000  -0.000000  -0.000000   0.000000
    43  H   -0.000001  -0.000000   0.000000   0.000000  -0.000000   0.000000
    44  H    0.000000  -0.000000  -0.000000   0.000000   0.000000  -0.000000
    45  H    0.000000   0.000000  -0.000000   0.000000   0.000000  -0.000000
    46  C    0.000003   0.000002   0.000001  -0.000000  -0.000000  -0.000000
    47  H    0.000000   0.000000   0.000000   0.000000   0.000000  -0.000000
    48  H   -0.000003  -0.000001   0.000000  -0.000000  -0.000000   0.000000
    49  H    0.000002   0.000000  -0.000001   0.000000   0.000000  -0.000000
              31         32         33         34         35         36
     1  C    0.000000   0.000000   0.000028   0.000013  -0.000000  -0.000001
     2  C    0.000000   0.000000  -0.000014   0.000009   0.000000   0.000008
     3  C   -0.000004   0.000000   0.000680   0.000546   0.000000   0.000111
     4  C   -0.000060  -0.000045   0.002074   0.002585   0.000012   0.000532
     5  C    0.000014   0.000013  -0.000177  -0.000370   0.000003  -0.000030
     6  C   -0.000001  -0.000000   0.000130  -0.000024  -0.000001   0.000010
     7  C    0.000168   0.000180  -0.000022  -0.002198   0.000031  -0.007106
     8  C   -0.000005  -0.000028  -0.000083   0.001590  -0.000000  -0.105323
     9  C   -0.000002  -0.000002   0.000146   0.000374   0.000000  -0.001364
    10  C   -0.000000   0.000000  -0.000014  -0.000002  -0.000000  -0.000956
    11  H   -0.000000  -0.000000  -0.000000  -0.000000  -0.000000   0.000010
    12  C    0.000000  -0.000000  -0.000008  -0.000009   0.000000   0.005812
    13  C    0.000000   0.000001   0.000098   0.000036  -0.000000  -0.074149
    14  C    0.000021   0.000022   0.000676   0.000292  -0.000001   0.389956
    15  H   -0.000000  -0.000000  -0.000001  -0.000000   0.000000   0.000000
    16  H   -0.000026  -0.000018   0.000070   0.000171   0.000006  -0.000008
    17  H    0.000000   0.000000  -0.000001  -0.000000  -0.000000   0.000000
    18  H    0.000000   0.000000   0.000000   0.000000   0.000000  -0.000108
    19  H   -0.000000   0.000000  -0.000000  -0.000000  -0.000000  -0.004158
    20  N    0.000000  -0.000000   0.000001  -0.000007   0.000000  -0.000100
    21  C   -0.000000  -0.000000   0.000000   0.000002   0.000000   0.000003
    22  H    0.000000  -0.000000   0.000000  -0.000000   0.000000   0.000001
    23  H   -0.000000  -0.000000  -0.000000   0.000000  -0.000000  -0.000000
    24  H    0.000000   0.000000   0.000000  -0.000000   0.000000  -0.000000
    25  C    0.006371   0.006747  -0.044623  -0.047028  -0.000761  -0.044815
    26  C   -0.041828  -0.001725   0.446820   0.010168   0.004266   0.010432
    27  C   -0.001643  -0.042571   0.009643   0.449755   0.004230   0.013373
    28  C    0.446801   0.006056  -0.050915  -0.003205  -0.038935   0.000481
    29  C    0.005923   0.447185  -0.002930  -0.051456  -0.038797   0.000206
    30  C   -0.039257  -0.039572   0.007607   0.007985   0.443466   0.000734
    31  H    0.469703  -0.000115  -0.004584   0.000025  -0.003738   0.000019
    32  H   -0.000115   0.469625   0.000025  -0.004639  -0.003768   0.000019
    33  H   -0.004584   0.000025   0.470057  -0.000108  -0.000109  -0.000562
    34  H    0.000025  -0.004639  -0.000108   0.470350  -0.000106  -0.000401
    35  H   -0.003738  -0.003768  -0.000109  -0.000106   0.470187   0.000002
    36  O    0.000019   0.000019  -0.000562  -0.000401   0.000002   8.060214
    37  C    0.000009   0.000007   0.000010  -0.000003  -0.000006   0.222359
    38  H    0.000001  -0.000000   0.000065  -0.000006   0.000000  -0.034637
    39  H   -0.000001   0.000001  -0.000010   0.000042   0.000000  -0.034226
    40  H   -0.000000   0.000000  -0.000019  -0.000023  -0.000010  -0.034323
    41  N   -0.000000  -0.000000  -0.000000   0.000000  -0.000000   0.000000
    42  C    0.000000   0.000000   0.000000   0.000000   0.000000  -0.000000
    43  H    0.000000  -0.000000   0.000000  -0.000000   0.000000  -0.000000
    44  H    0.000000   0.000000   0.000000   0.000000  -0.000000  -0.000000
    45  H   -0.000000   0.000000  -0.000000  -0.000000  -0.000000  -0.000000
    46  C   -0.000000   0.000000   0.000000   0.000000  -0.000000   0.000000
    47  H    0.000000   0.000000   0.000000   0.000000  -0.000000   0.000000
    48  H    0.000000  -0.000000   0.000000  -0.000000   0.000000  -0.000000
    49  H   -0.000000   0.000000  -0.000000   0.000000  -0.000000  -0.000000
              37         38         39         40         41         42
     1  C   -0.000000  -0.000000   0.000000   0.000000   0.587934  -0.048942
     2  C    0.000001  -0.000000   0.000000   0.000000  -0.117953  -0.033505
     3  C    0.000015  -0.000005   0.000003   0.000002  -0.001491  -0.007860
     4  C    0.000011   0.000009  -0.000009  -0.000014  -0.001810  -0.000002
     5  C   -0.000008   0.000000  -0.000000   0.000000  -0.001725  -0.001380
     6  C   -0.000000   0.000000   0.000000   0.000000  -0.080348   0.020549
     7  C    0.001458  -0.000232   0.000091   0.000410   0.000046  -0.000002
     8  C    0.003150  -0.001214  -0.000654  -0.000418  -0.000011  -0.000001
     9  C   -0.000654  -0.000190  -0.000144   0.000055   0.000014  -0.000009
    10  C    0.000442  -0.000079   0.000114  -0.000019  -0.000001  -0.000001
    11  H    0.000002  -0.000000   0.000002  -0.000000   0.000000   0.000000
    12  C   -0.003054   0.000024  -0.000433   0.000162  -0.000000   0.000000
    13  C   -0.007668   0.003218   0.003442   0.001126   0.000000  -0.000000
    14  C   -0.042493  -0.005652  -0.006881   0.003796   0.000000   0.000000
    15  H    0.000000   0.000000   0.000000  -0.000000  -0.004142  -0.004612
    16  H   -0.000000  -0.000000  -0.000000  -0.000000  -0.000043   0.000008
    17  H   -0.000000   0.000000  -0.000000  -0.000000  -0.004326   0.000002
    18  H    0.000017   0.000010  -0.000011  -0.000001  -0.000000   0.000000
    19  H   -0.002614  -0.001831  -0.001825   0.000332   0.000000  -0.000000
    20  N    0.000002   0.000001  -0.000001  -0.000000   0.000004   0.000000
    21  C    0.000000  -0.000000   0.000000   0.000000  -0.000010   0.000086
    22  H    0.000000   0.000000  -0.000000   0.000000  -0.000001  -0.000009
    23  H    0.000000  -0.000000   0.000000   0.000000  -0.000011   0.000061
    24  H   -0.000000   0.000000  -0.000000  -0.000000  -0.000096   0.000058
    25  C    0.001668  -0.000043  -0.000132   0.001078  -0.000017  -0.000004
    26  C   -0.001726  -0.000645   0.000497  -0.001435   0.000001  -0.000000
    27  C   -0.001368   0.000483  -0.000595  -0.001469   0.000000  -0.000000
    28  C   -0.000091  -0.000018  -0.000008   0.000764  -0.000000  -0.000000
    29  C    0.000146  -0.000026   0.000004   0.000659  -0.000000  -0.000000
    30  C   -0.000865   0.000047   0.000036   0.000008  -0.000000   0.000000
    31  H    0.000009   0.000001  -0.000001  -0.000000  -0.000000   0.000000
    32  H    0.000007  -0.000000   0.000001   0.000000  -0.000000   0.000000
    33  H    0.000010   0.000065  -0.000010  -0.000019  -0.000000   0.000000
    34  H   -0.000003  -0.000006   0.000042  -0.000023   0.000000   0.000000
    35  H   -0.000006   0.000000   0.000000  -0.000010  -0.000000   0.000000
    36  O    0.222359  -0.034637  -0.034226  -0.034323   0.000000  -0.000000
    37  C    4.738649   0.430085   0.429591   0.419026  -0.000000   0.000000
    38  H    0.430085   0.529635  -0.036421  -0.020744  -0.000000  -0.000000
    39  H    0.429591  -0.036421   0.529677  -0.020652   0.000000  -0.000000
    40  H    0.419026  -0.020744  -0.020652   0.498218   0.000000   0.000000
    41  N   -0.000000  -0.000000   0.000000   0.000000   6.372304   0.291128
    42  C    0.000000  -0.000000  -0.000000   0.000000   0.291128   4.844054
    43  H    0.000000   0.000000  -0.000000  -0.000000  -0.046002   0.429798
    44  H    0.000000  -0.000000  -0.000000   0.000000  -0.022566   0.416180
    45  H   -0.000000  -0.000000   0.000000  -0.000000  -0.045434   0.431007
    46  C   -0.000000   0.000000   0.000000   0.000000   0.288086  -0.048373
    47  H   -0.000000   0.000000   0.000000   0.000000  -0.021878  -0.014189
    48  H    0.000000   0.000000  -0.000000  -0.000000  -0.045482   0.003619
    49  H   -0.000000  -0.000000   0.000000   0.000000  -0.043661   0.003701
              43         44         45         46         47         48
     1  C   -0.014047   0.006696  -0.002894  -0.051799   0.005405  -0.006196
     2  C    0.010384   0.000115  -0.001681   0.022911  -0.000581   0.001522
     3  C   -0.001604   0.000180   0.001951  -0.000957   0.000074  -0.000369
     4  C    0.000505  -0.000012  -0.000301   0.000258  -0.000003   0.000123
     5  C   -0.000239   0.000060   0.000128  -0.005753   0.000198  -0.000371
     6  C   -0.000108  -0.000283  -0.000173  -0.030142   0.001448   0.000072
     7  C   -0.000009   0.000000  -0.000007   0.000004   0.000001  -0.000005
     8  C    0.000005  -0.000000   0.000002  -0.000000  -0.000000   0.000001
     9  C   -0.000007   0.000000   0.000004  -0.000002   0.000000  -0.000000
    10  C    0.000002   0.000000  -0.000001   0.000000   0.000000  -0.000000
    11  H    0.000000   0.000000   0.000000   0.000000  -0.000000  -0.000000
    12  C    0.000000  -0.000000  -0.000000  -0.000000  -0.000000   0.000000
    13  C   -0.000000  -0.000000   0.000000   0.000000   0.000000  -0.000000
    14  C   -0.000000   0.000000   0.000000  -0.000000  -0.000000   0.000000
    15  H    0.000671   0.000817  -0.003895  -0.000119  -0.000004   0.000035
    16  H   -0.000001  -0.000000   0.000001   0.000040  -0.000002  -0.000017
    17  H    0.000022  -0.000021  -0.000010  -0.003440   0.000527  -0.002026
    18  H    0.000000  -0.000000  -0.000000   0.000000  -0.000000   0.000000
    19  H   -0.000000  -0.000000   0.000000  -0.000000   0.000000  -0.000000
    20  N   -0.000106  -0.000000   0.000012   0.000007  -0.000000  -0.000000
    21  C    0.000218  -0.000002  -0.000155   0.000009  -0.000000   0.000001
    22  H   -0.000005  -0.000000   0.000008   0.000000   0.000000  -0.000000
    23  H    0.000120   0.000000  -0.000079  -0.000000  -0.000000   0.000000
    24  H   -0.000115  -0.000001   0.000544   0.000003   0.000000  -0.000001
    25  C   -0.000001   0.000000   0.000000   0.000003   0.000000  -0.000003
    26  C   -0.000000  -0.000000   0.000000   0.000002   0.000000  -0.000001
    27  C    0.000000  -0.000000  -0.000000   0.000001   0.000000   0.000000
    28  C    0.000000   0.000000   0.000000  -0.000000   0.000000  -0.000000
    29  C   -0.000000   0.000000   0.000000  -0.000000   0.000000  -0.000000
    30  C    0.000000  -0.000000  -0.000000  -0.000000  -0.000000   0.000000
    31  H    0.000000   0.000000  -0.000000  -0.000000   0.000000   0.000000
    32  H   -0.000000   0.000000   0.000000   0.000000   0.000000  -0.000000
    33  H    0.000000   0.000000  -0.000000   0.000000   0.000000   0.000000
    34  H   -0.000000   0.000000  -0.000000   0.000000   0.000000  -0.000000
    35  H    0.000000  -0.000000  -0.000000  -0.000000  -0.000000   0.000000
    36  O   -0.000000  -0.000000  -0.000000   0.000000   0.000000  -0.000000
    37  C    0.000000   0.000000  -0.000000  -0.000000  -0.000000   0.000000
    38  H    0.000000  -0.000000  -0.000000   0.000000   0.000000   0.000000
    39  H   -0.000000  -0.000000   0.000000   0.000000   0.000000  -0.000000
    40  H   -0.000000   0.000000  -0.000000   0.000000   0.000000  -0.000000
    41  N   -0.046002  -0.022566  -0.045434   0.288086  -0.021878  -0.045482
    42  C    0.429798   0.416180   0.431007  -0.048373  -0.014189   0.003619
    43  H    0.535233  -0.019332  -0.039211   0.003495   0.000652   0.001156
    44  H   -0.019332   0.488231  -0.018180  -0.014022  -0.000959   0.000550
    45  H   -0.039211  -0.018180   0.533543   0.003993   0.000608  -0.000847
    46  C    0.003495  -0.014022   0.003993   4.833768   0.415239   0.431892
    47  H    0.000652  -0.000959   0.000608   0.415239   0.491966  -0.018503
    48  H    0.001156   0.000550  -0.000847   0.431892  -0.018503   0.530349
    49  H   -0.000867   0.000679   0.001068   0.431219  -0.019532  -0.037705
              49
     1  C   -0.008546
     2  C   -0.001761
     3  C    0.000243
     4  C   -0.000128
     5  C    0.001185
     6  C    0.001911
     7  C   -0.000011
     8  C   -0.000001
     9  C    0.000000
    10  C   -0.000000
    11  H    0.000000
    12  C   -0.000000
    13  C    0.000000
    14  C    0.000000
    15  H   -0.000028
    16  H    0.000002
    17  H   -0.001689
    18  H   -0.000000
    19  H   -0.000000
    20  N    0.000000
    21  C   -0.000002
    22  H    0.000000
    23  H   -0.000000
    24  H    0.000001
    25  C    0.000002
    26  C    0.000000
    27  C   -0.000001
    28  C    0.000000
    29  C    0.000000
    30  C   -0.000000
    31  H   -0.000000
    32  H    0.000000
    33  H   -0.000000
    34  H    0.000000
    35  H   -0.000000
    36  O   -0.000000
    37  C   -0.000000
    38  H   -0.000000
    39  H    0.000000
    40  H    0.000000
    41  N   -0.043661
    42  C    0.003701
    43  H   -0.000867
    44  H    0.000679
    45  H    0.001068
    46  C    0.431219
    47  H   -0.019532
    48  H   -0.037705
    49  H    0.532180
 Mulliken charges:
               1
     1  C    0.350733
     2  C   -0.488304
     3  C    0.209447
     4  C    0.112395
     5  C   -0.233222
     6  C   -0.348342
     7  C    0.326571
     8  C    0.078528
     9  C    0.245884
    10  C   -0.425458
    11  H    0.172317
    12  C   -0.017388
    13  C   -0.361400
    14  C    0.261718
    15  H    0.180546
    16  H    0.186247
    17  H    0.172991
    18  H    0.175222
    19  H    0.171519
    20  N   -0.033810
    21  C   -0.291953
    22  H    0.171045
    23  H    0.160518
    24  H    0.168809
    25  C    0.260120
    26  C   -0.300521
    27  C   -0.313765
    28  C   -0.193936
    29  C   -0.187945
    30  C   -0.135686
    31  H    0.162207
    32  H    0.162605
    33  H    0.166048
    34  H    0.165643
    35  H    0.164028
    36  O   -0.362015
    37  C   -0.186099
    38  H    0.138162
    39  H    0.138503
    40  H    0.153490
    41  N   -0.102509
    42  C   -0.281362
    43  H    0.139392
    44  H    0.161871
    45  H    0.139998
    46  C   -0.276323
    47  H    0.159535
    48  H    0.142207
    49  H    0.141740
 Sum of Mulliken charges =   1.00000
 Mulliken charges with hydrogens summed into heavy atoms:
               1
     1  C    0.350733
     2  C   -0.307758
     3  C    0.209447
     4  C    0.112395
     5  C   -0.046975
     6  C   -0.175352
     7  C    0.326571
     8  C    0.078528
     9  C    0.245884
    10  C   -0.253141
    12  C    0.157834
    13  C   -0.189881
    14  C    0.261718
    20  N   -0.033810
    21  C    0.208419
    25  C    0.260120
    26  C   -0.134473
    27  C   -0.148122
    28  C   -0.031729
    29  C   -0.025341
    30  C    0.028342
    36  O   -0.362015
    37  C    0.244057
    41  N   -0.102509
    42  C    0.159899
    46  C    0.167158
 Electronic spatial extent (au):  <R**2>=           9685.2321
 Charge=              1.0000 electrons
 Dipole moment (field-independent basis, Debye):
    X=             -5.4351    Y=              3.6602    Z=             -0.0512  Tot=              6.5528
 Quadrupole moment (field-independent basis, Debye-Ang):
   XX=            -65.8824   YY=           -109.0826   ZZ=           -149.6610
   XY=              3.1874   XZ=             -0.8944   YZ=              1.6901
 Traceless Quadrupole moment (field-independent basis, Debye-Ang):
   XX=             42.3263   YY=             -0.8739   ZZ=            -41.4524
   XY=              3.1874   XZ=             -0.8944   YZ=              1.6901
 Octapole moment (field-independent basis, Debye-Ang**2):
  XXX=           -187.5994  YYY=             72.3620  ZZZ=              2.3018  XYY=              6.3443
  XXY=             -0.4523  XXZ=            -17.8654  XZZ=             10.3470  YZZ=            -16.2421
  YYZ=              0.2241  XYZ=            -11.3133
 Hexadecapole moment (field-independent basis, Debye-Ang**3):
 XXXX=          -5715.2095 YYYY=          -3746.0292 ZZZZ=           -435.4403 XXXY=            321.5329
 XXXZ=             17.7027 YYYX=            -42.1884 YYYZ=             12.1019 ZZZX=              4.5391
 ZZZY=              6.7050 XXYY=          -1690.1879 XXZZ=          -1458.2217 YYZZ=           -793.2192
 XXYZ=             -2.8462 YYXZ=            -19.3549 ZZXY=            -59.5482
 N-N= 2.282980702945D+03 E-N=-7.036040510356D+03  KE= 1.068124874045D+03
 Leave Link  601 at Sat Apr  3 16:57:36 2021, MaxMem=  5242880000 cpu:         5.2
 (Enter /opt/nce/packages/global/g09/l9999.exe)
 1\1\GINC-CN008\SP\RTD-FC\Gen\C23H23N2O1(1+)\PNG4RJV\03-Apr-2021\0\\#p 
 hf chkbasis geom=allcheck Guess=Read int=ultrafine scrf=(SMD,solvent=A
 cetonitrile) td=(NStates=30)\\Title\\1,1\C,0,-3.5072707528,-0.52553235
 63,-0.0337022117\C,0,-2.8862055714,0.7244021883,0.0271598568\C,0,-1.50
 37429202,0.846120621,0.0938404298\C,0,-0.6736080491,-0.3134807448,0.06
 0596793\C,0,-1.3427884342,-1.5832531129,0.0365894746\C,0,-2.6737425643
 ,-1.6997534977,-0.0048427181\C,0,0.7005590095,-0.1999228576,0.04904282
 98\C,0,1.293250011,1.0947113345,-0.0044077353\C,0,0.437905927,2.220952
 9818,0.0411815421\C,0,0.9674618347,3.5162847503,-0.0875303129\H,0,0.33
 31605456,4.3729522796,-0.1164153432\C,0,2.3105548505,3.6809726021,-0.2
 212708681\C,0,3.1955547872,2.6049568151,-0.2258921902\C,0,2.7081000769
 ,1.3321623803,-0.1227810501\H,0,-3.4885900465,1.5993025857,-0.00976854
 93\H,0,-0.7528255942,-2.4747065275,0.0452239157\H,0,-3.1134298752,-2.6
 733257483,-0.0257421399\H,0,2.7042186428,4.6739228931,-0.3328620027\H,
 0,4.2441161892,2.7875515672,-0.3241656015\N,0,-0.911673092,2.061099528
 5,0.1989743333\C,0,-1.7413723468,3.2334567643,0.4964720999\H,0,-1.1710
 734477,3.9363337341,1.0750879631\H,0,-2.0958921167,3.7037717229,-0.411
 2240497\H,0,-2.5766263944,2.926898786,1.0988985047\C,0,1.497292105,-1.
 4710844411,0.0755427965\C,0,1.7980172558,-2.1343215935,-1.1004585674\C
 ,0,1.8778315768,-2.0158000935,1.2880939092\C,0,2.4895469152,-3.3303886
 017,-1.0635953031\C,0,2.5695951888,-3.212856216,1.3235586718\C,0,2.879
 0203803,-3.8725073391,0.1482981999\H,0,2.7209964539,-3.8388900296,-1.9
 810345986\H,0,2.8630799591,-3.6289924711,2.2693135841\H,0,1.4968354213
 ,-1.7182227291,-2.0438064315\H,0,1.6392667677,-1.5077270117,2.20403250
 78\H,0,3.4153030682,-4.8026508459,0.1761177266\O,0,3.4945093811,0.2711
 129047,-0.1333335093\C,0,4.8928384729,0.4034666354,-0.2570437357\H,0,5
 .1577649629,0.876123235,-1.1943776608\H,0,5.3053247114,0.9678076059,0.
 5697379746\H,0,5.284300032,-0.6013402825,-0.2373828354\N,0,-4.83051699
 37,-0.6449213778,-0.1181812461\C,0,-5.6767368163,0.5365559601,-0.14190
 18139\H,0,-5.468031231,1.1522566608,-1.0096367765\H,0,-6.7073981229,0.
 2279677786,-0.1843882399\H,0,-5.536938885,1.1351435458,0.7506164581\C,
 0,-5.468155151,-1.9519406399,-0.2066285759\H,0,-6.5323822814,-1.810411
 6377,-0.2899609086\H,0,-5.1297276487,-2.4976694728,-1.0788360881\H,0,-
 5.2736021914,-2.5474032329,0.6770574918\\Version=ES64L-G09RevE.01\Stat
 e=1-A\HF=-1068.384707\RMSD=5.516e-09\PG=C01 [X(C23H23N2O1)]\\@


 REVOLUTIONS HAVE NEVER LIGHTENED THE BURDEN OF TYRANNY:
 THEY HAVE MERELY SHIFTED IT TO OTHER SHOULDERS.
                                   -- G. B. SHAW (1903)
 Job cpu time:       2 days  7 hours 45 minutes 47.5 seconds.
 File lengths (MBytes):  RWF=   4429 Int=      0 D2E=      0 Chk=    797 Scr=      1
 Normal termination of Gaussian 09 at Sat Apr  3 16:57:37 2021.
