
                                 *****************
                                 * O   R   C   A *
                                 *****************

                                            #,                                       
                                            ###                                      
                                            ####                                     
                                            #####                                    
                                            ######                                   
                                           ########,                                 
                                     ,,################,,,,,                         
                               ,,#################################,,                 
                          ,,##########################################,,             
                       ,#########################################, ''#####,          
                    ,#############################################,,   '####,        
                  ,##################################################,,,,####,       
                ,###########''''           ''''###############################       
              ,#####''   ,,,,##########,,,,          '''####'''          '####       
            ,##' ,,,,###########################,,,                        '##       
           ' ,,###''''                  '''############,,,                           
         ,,##''                                '''############,,,,        ,,,,,,###''
      ,#''                                            '''#######################'''  
     '                                                          ''''####''''         
             ,#######,   #######,   ,#######,      ##                                
            ,#'     '#,  ##    ##  ,#'     '#,    #''#        ######   ,####,        
            ##       ##  ##   ,#'  ##            #'  '#       #        #'  '#        
            ##       ##  #######   ##           ,######,      #####,   #    #        
            '#,     ,#'  ##    ##  '#,     ,#' ,#      #,         ##   #,  ,#        
             '#######'   ##     ##  '#######'  #'      '#     #####' # '####'        



                  #######################################################
                  #                        -***-                        #
                  #          Department of theory and spectroscopy      #
                  #    Directorship and core code : Frank Neese         #
                  #        Max Planck Institute fuer Kohlenforschung    #
                  #                Kaiser Wilhelm Platz 1               #
                  #                 D-45470 Muelheim/Ruhr               #
                  #                      Germany                        #
                  #                                                     #
                  #                  All rights reserved                #
                  #                        -***-                        #
                  #######################################################


                         Program Version 5.0.2 -  RELEASE  -


 With contributions from (in alphabetic order):
   Daniel Aravena         : Magnetic Suceptibility
   Michael Atanasov       : Ab Initio Ligand Field Theory (pilot matlab implementation)
   Alexander A. Auer      : GIAO ZORA, VPT2 properties, NMR spectrum
   Ute Becker             : Parallelization
   Giovanni Bistoni       : ED, misc. LED, open-shell LED, HFLD
   Martin Brehm           : Molecular dynamics
   Dmytro Bykov           : SCF Hessian
   Vijay G. Chilkuri      : MRCI spin determinant printing, contributions to CSF-ICE
   Dipayan Datta          : RHF DLPNO-CCSD density
   Achintya Kumar Dutta   : EOM-CC, STEOM-CC
   Dmitry Ganyushin       : Spin-Orbit,Spin-Spin,Magnetic field MRCI
   Miquel Garcia          : C-PCM and meta-GGA Hessian, CC/C-PCM, Gaussian charge scheme
   Yang Guo               : DLPNO-NEVPT2, F12-NEVPT2, CIM, IAO-localization
   Andreas Hansen         : Spin unrestricted coupled pair/coupled cluster methods
   Benjamin Helmich-Paris : MC-RPA, TRAH-SCF, COSX integrals
   Lee Huntington         : MR-EOM, pCC
   Robert Izsak           : Overlap fitted RIJCOSX, COSX-SCS-MP3, EOM
   Marcus Kettner         : VPT2
   Christian Kollmar      : KDIIS, OOCD, Brueckner-CCSD(T), CCSD density, CASPT2, CASPT2-K
   Simone Kossmann        : Meta GGA functionals, TD-DFT gradient, OOMP2, MP2 Hessian
   Martin Krupicka        : Initial AUTO-CI
   Lucas Lang             : DCDCAS
   Marvin Lechner         : AUTO-CI (C++ implementation), FIC-MRCC
   Dagmar Lenk            : GEPOL surface, SMD
   Dimitrios Liakos       : Extrapolation schemes; Compound Job, initial MDCI parallelization
   Dimitrios Manganas     : Further ROCIS development; embedding schemes
   Dimitrios Pantazis     : SARC Basis sets
   Anastasios Papadopoulos: AUTO-CI, single reference methods and gradients
   Taras Petrenko         : DFT Hessian,TD-DFT gradient, ASA, ECA, R-Raman, ABS, FL, XAS/XES, NRVS
   Peter Pinski           : DLPNO-MP2, DLPNO-MP2 Gradient
   Christoph Reimann      : Effective Core Potentials
   Marius Retegan         : Local ZFS, SOC
   Christoph Riplinger    : Optimizer, TS searches, QM/MM, DLPNO-CCSD(T), (RO)-DLPNO pert. Triples
   Tobias Risthaus        : Range-separated hybrids, TD-DFT gradient, RPA, STAB
   Michael Roemelt        : Original ROCIS implementation
   Masaaki Saitow         : Open-shell DLPNO-CCSD energy and density
   Barbara Sandhoefer     : DKH picture change effects
   Avijit Sen             : IP-ROCIS
   Kantharuban Sivalingam : CASSCF convergence, NEVPT2, FIC-MRCI
   Bernardo de Souza      : ESD, SOC TD-DFT
   Georgi Stoychev        : AutoAux, RI-MP2 NMR, DLPNO-MP2 response
   Willem Van den Heuvel  : Paramagnetic NMR
   Boris Wezisla          : Elementary symmetry handling
   Frank Wennmohs         : Technical directorship


 We gratefully acknowledge several colleagues who have allowed us to
 interface, adapt or use parts of their codes:
   Stefan Grimme, W. Hujo, H. Kruse, P. Pracht,  : VdW corrections, initial TS optimization,
                  C. Bannwarth, S. Ehlert          DFT functionals, gCP, sTDA/sTD-DF
   Ed Valeev, F. Pavosevic, A. Kumar             : LibInt (2-el integral package), F12 methods
   Garnet Chan, S. Sharma, J. Yang, R. Olivares  : DMRG
   Ulf Ekstrom                                   : XCFun DFT Library
   Mihaly Kallay                                 : mrcc  (arbitrary order and MRCC methods)
   Jiri Pittner, Ondrej Demel                    : Mk-CCSD
   Frank Weinhold                                : gennbo (NPA and NBO analysis)
   Christopher J. Cramer and Donald G. Truhlar   : smd solvation model
   Lars Goerigk                                  : TD-DFT with DH, B97 family of functionals
   V. Asgeirsson, H. Jonsson                     : NEB implementation
   FAccTs GmbH                                   : IRC, NEB, NEB-TS, DLPNO-Multilevel, CI-OPT
                                                   MM, QMMM, 2- and 3-layer-ONIOM, Crystal-QMMM,
                                                   LR-CPCM, SF, NACMEs, symmetry and pop. for TD-DFT,
                                                   nearIR, NL-DFT gradient (VV10), updates on ESD,
                                                   ML-optimized integration grids
   S Lehtola, MJT Oliveira, MAL Marques          : LibXC Library
   Liviu Ungur et al                             : ANISO software


 Your calculation uses the libint2 library for the computation of 2-el integrals
 For citations please refer to: http://libint.valeyev.net

 Your ORCA version has been built with support for libXC version: 5.1.0
 For citations please refer to: https://tddft.org/programs/libxc/

 This ORCA versions uses:
   CBLAS   interface :  Fast vector & matrix operations
   LAPACKE interface :  Fast linear algebra routines
   SCALAPACK package :  Parallel linear algebra routines
   Shared memory     :  Shared parallel matrices
   BLAS/LAPACK       :  OpenBLAS 0.3.15  USE64BITINT DYNAMIC_ARCH NO_AFFINITY Zen SINGLE_THREADED
        Core in use  :  Zen
   Copyright (c) 2011-2014, The OpenBLAS Project


Your calculation utilizes the atom-pairwise dispersion correction
with the Becke-Johnson damping scheme (D3BJ)
Cite in your paper:
S.Grimme, S.Ehrlich, L.Goerigk, J Comput Chem, (2011), 32, 1456–1465 
S.Grimme, J.Antony, S.Ehrlich and H.Krieg, J.Chem.Phys., 132, (2010), 154104 
   

Your calculation utilizes the SMD solvation module
Please cite in your paper:
A.V. Marenich, C.J. Cramer, D.G. Truhlar J. Phys. Chem. B, 113, (2009), 6378 

================================================================================

----- Orbital basis set information -----
Your calculation utilizes the basis: def2-TZVP
   F. Weigend and R. Ahlrichs, Phys. Chem. Chem. Phys. 7, 3297 (2005).

----- AuxJ basis set information -----
Your calculation utilizes the auxiliary basis: def2/J
   F. Weigend, Phys. Chem. Chem. Phys. 8, 1057 (2006).

----- AuxC basis set information -----
Your calculation utilizes the auxiliary basis: def2-TZVP/C
  H-La, Hf-Rn : A. Hellweg, C. Hattig, S. Hofener and W. Klopper, Theor. Chem. Acc. 117, 587 (2007).
        Ce-Lu : J. Chmela and M. E. Harding, Mol. Phys. (2018).

================================================================================
                                        WARNINGS
                       Please study these warnings very carefully!
================================================================================

INFO   : Checking CIS options ...
  ===> : (D) CORRECTION FOUND - SETTING MODE=3
  ===> : JK MODE FOUND - ACTIVATING RI-MP2 CODE
  ===> : MP2 AND CIS FOUND - CHECKING
WARNING: CIS(D) and MP2 runs must have the same orbital window
  ===> : adjusting orbital windows

WARNING: No MP2 level density has been requested!
         To caclulate MP2 level properties use
         %mp2 Density relaxed end
         or
         %mp2 Density unrelaxed end
         Otherwise for double-hybrid DFT only the energy is correct!

WARNING: There are different parametrizations of Gershom Martin's DSD-DFs
         for use with and without D3(BJ)!
         You are using the D3(BJ) parametrized version,
         consistent with the GMTKN55 benchmark (L. Goerigk et al., PCCP 2017, 19, 32184)

WARNING: The frozen-core approximation is turned on by default for 
         the MP2 part of double-hybrid DFT.

WARNING: CIS/ROCIS methods need fully converged wavefunctions
  ===> : Setting SCFConvForced true
         You can overwrite this default with %scf ConvForced false 


INFO   : the flag for use of the SHARK integral package has been found!

================================================================================
                                       INPUT FILE
================================================================================
NAME = Ph-Acr_1_M06L_def2TZVP_coords.inp
|  1> %maxcore 24000
|  2> %pal
|  3>  nprocs= 8
|  4> end
|  5> ! RI-DSD-BLYP D3BJ def2-TZVP def2/J def2-TZVP/C RIJCOSX CPCM TightSCF
|  6> %TDDFT  
|  7>    NROOTS   30
|  8>    dcorr 4
|  9>    doscs true 
| 10>    scspar 0.333, 1.2, 0.43, 1.24 
| 11>    TDA      FALSE
| 12> END
| 13> 
| 14> %CPCM
| 15>    SMD          TRUE
| 16>    SMDsolvent   "ACETONITRILE"
| 17> END
| 18>    
| 19> 
| 20> * xyz 1 1
| 21> C                  -3.52189000   -0.52501000   -0.05008700
| 22> C                  -2.90087400    0.72989200    0.01676100
| 23> C                  -1.51934600    0.84488300    0.08802500
| 24> C                  -0.68841000   -0.31903600    0.04796800
| 25> C                  -1.34967100   -1.57914000    0.02689900
| 26> C                  -2.69765000   -1.69089300   -0.01917500
| 27> C                   0.70136100   -0.20537400    0.04004800
| 28> C                   1.29126100    1.07949500   -0.01169900
| 29> C                   0.44605700    2.22994900    0.07301100
| 30> C                   0.99140500    3.51785500   -0.00013100
| 31> H                   0.35649700    4.38755400    0.00881700
| 32> C                   2.34835600    3.67686100   -0.13387100
| 33> C                   3.21173200    2.58960400   -0.20917700
| 34> C                   2.70124100    1.30852400   -0.16632100
| 35> H                  -3.51054600    1.61539600   -0.01689900
| 36> H                  -0.74778900   -2.47656800    0.03877300
| 37> H                  -3.14974400   -2.67107200   -0.03973600
| 38> H                   2.75628500    4.67734800   -0.20064000
| 39> H                   4.27212500    2.75167000   -0.32506300
| 40> N                  -0.91226800    2.06891200    0.22154400
| 41> C                  -1.73695500    3.23562800    0.51809200
| 42> H                  -1.17652900    3.93035400    1.13248800
| 43> H                  -2.06346500    3.73798800   -0.39237700
| 44> H                  -2.60518900    2.92266000    1.08586300
| 45> C                   1.49472700   -1.45902700    0.09499600
| 46> C                   1.66751900   -2.24348600   -1.04172100
| 47> C                   2.03202800   -1.88512000    1.30659500
| 48> C                   2.38910600   -3.42548200   -0.97133300
| 49> C                   2.74520000   -3.07163300    1.37535800
| 50> C                   2.93047900   -3.84285400    0.23619400
| 51> H                   2.52369200   -4.02427700   -1.86344500
| 52> H                   3.15671600   -3.39460100    2.32346900
| 53> H                   1.24184700   -1.91901000   -1.98372700
| 54> H                   1.89485700   -1.27870500    2.19395500
| 55> H                   3.49035800   -4.76783200    0.29053700
| 56> O                   3.47015400    0.22073600   -0.29071000
| 57> C                   4.87155600    0.39021200   -0.45657100
| 58> H                   5.09947600    0.94873800   -1.36633100
| 59> H                   5.31488900    0.89671700    0.40244900
| 60> H                   5.28245100   -0.61239200   -0.53606400
| 61> N                  -4.86123200   -0.63897200   -0.13997700
| 62> C                  -5.69336200    0.54654000   -0.16347700
| 63> H                  -5.46776300    1.17398500   -1.02855700
| 64> H                  -6.73440500    0.24922500   -0.21756900
| 65> H                  -5.55183400    1.14735500    0.73735400
| 66> C                  -5.49772500   -1.94080700   -0.22465500
| 67> H                  -6.56977300   -1.80043600   -0.30515000
| 68> H                  -5.15827400   -2.49575300   -1.10060700
| 69> H                  -5.29749100   -2.54329800    0.66281000
| 70> *
| 71> 
| 72> 
| 73>                          ****END OF INPUT****
================================================================================

                       ****************************
                       * Single Point Calculation *
                       ****************************

---------------------------------
CARTESIAN COORDINATES (ANGSTROEM)
---------------------------------
  C     -3.521890   -0.525010   -0.050087
  C     -2.900874    0.729892    0.016761
  C     -1.519346    0.844883    0.088025
  C     -0.688410   -0.319036    0.047968
  C     -1.349671   -1.579140    0.026899
  C     -2.697650   -1.690893   -0.019175
  C      0.701361   -0.205374    0.040048
  C      1.291261    1.079495   -0.011699
  C      0.446057    2.229949    0.073011
  C      0.991405    3.517855   -0.000131
  H      0.356497    4.387554    0.008817
  C      2.348356    3.676861   -0.133871
  C      3.211732    2.589604   -0.209177
  C      2.701241    1.308524   -0.166321
  H     -3.510546    1.615396   -0.016899
  H     -0.747789   -2.476568    0.038773
  H     -3.149744   -2.671072   -0.039736
  H      2.756285    4.677348   -0.200640
  H      4.272125    2.751670   -0.325063
  N     -0.912268    2.068912    0.221544
  C     -1.736955    3.235628    0.518092
  H     -1.176529    3.930354    1.132488
  H     -2.063465    3.737988   -0.392377
  H     -2.605189    2.922660    1.085863
  C      1.494727   -1.459027    0.094996
  C      1.667519   -2.243486   -1.041721
  C      2.032028   -1.885120    1.306595
  C      2.389106   -3.425482   -0.971333
  C      2.745200   -3.071633    1.375358
  C      2.930479   -3.842854    0.236194
  H      2.523692   -4.024277   -1.863445
  H      3.156716   -3.394601    2.323469
  H      1.241847   -1.919010   -1.983727
  H      1.894857   -1.278705    2.193955
  H      3.490358   -4.767832    0.290537
  O      3.470154    0.220736   -0.290710
  C      4.871556    0.390212   -0.456571
  H      5.099476    0.948738   -1.366331
  H      5.314889    0.896717    0.402449
  H      5.282451   -0.612392   -0.536064
  N     -4.861232   -0.638972   -0.139977
  C     -5.693362    0.546540   -0.163477
  H     -5.467763    1.173985   -1.028557
  H     -6.734405    0.249225   -0.217569
  H     -5.551834    1.147355    0.737354
  C     -5.497725   -1.940807   -0.224655
  H     -6.569773   -1.800436   -0.305150
  H     -5.158274   -2.495753   -1.100607
  H     -5.297491   -2.543298    0.662810

----------------------------
CARTESIAN COORDINATES (A.U.)
----------------------------
  NO LB      ZA    FRAG     MASS         X           Y           Z
   0 C     6.0000    0    12.011   -6.655408   -0.992125   -0.094651
   1 C     6.0000    0    12.011   -5.481857    1.379296    0.031674
   2 C     6.0000    0    12.011   -2.871148    1.596597    0.166343
   3 C     6.0000    0    12.011   -1.300906   -0.602891    0.090646
   4 C     6.0000    0    12.011   -2.550509   -2.984142    0.050832
   5 C     6.0000    0    12.011   -5.097820   -3.195325   -0.036235
   6 C     6.0000    0    12.011    1.325380   -0.388101    0.075680
   7 C     6.0000    0    12.011    2.440130    2.039950   -0.022108
   8 C     6.0000    0    12.011    0.842926    4.213993    0.137971
   9 C     6.0000    0    12.011    1.873484    6.647783   -0.000248
  10 H     1.0000    0     1.008    0.673682    8.291275    0.016662
  11 C     6.0000    0    12.011    4.437750    6.948260   -0.252980
  12 C     6.0000    0    12.011    6.069294    4.893642   -0.395287
  13 C     6.0000    0    12.011    5.104606    2.472752   -0.314301
  14 H     1.0000    0     1.008   -6.633971    3.052656   -0.031934
  15 H     1.0000    0     1.008   -1.413116   -4.680035    0.073270
  16 H     1.0000    0     1.008   -5.952154   -5.047595   -0.075090
  17 H     1.0000    0     1.008    5.208624    8.838907   -0.379155
  18 H     1.0000    0     1.008    8.073146    5.199903   -0.614280
  19 N     7.0000    0    14.007   -1.723937    3.909677    0.418657
  20 C     6.0000    0    12.011   -3.282369    6.114451    0.979052
  21 H     1.0000    0     1.008   -2.223318    7.427293    2.140092
  22 H     1.0000    0     1.008   -3.899384    7.063774   -0.741485
  23 H     1.0000    0     1.008   -4.923094    5.523027    2.051984
  24 C     6.0000    0    12.011    2.824625   -2.757161    0.179516
  25 C     6.0000    0    12.011    3.151154   -4.239574   -1.968567
  26 C     6.0000    0    12.011    3.839976   -3.562361    2.469107
  27 C     6.0000    0    12.011    4.514756   -6.473223   -1.835553
  28 C     6.0000    0    12.011    5.187676   -5.804545    2.599050
  29 C     6.0000    0    12.011    5.537803   -7.261942    0.446342
  30 H     1.0000    0     1.008    4.769087   -7.604781   -3.521401
  31 H     1.0000    0     1.008    5.965329   -6.414866    4.390720
  32 H     1.0000    0     1.008    2.346751   -3.626403   -3.748701
  33 H     1.0000    0     1.008    3.580761   -2.416402    4.145974
  34 H     1.0000    0     1.008    6.595821   -9.009897    0.549035
  35 O     8.0000    0    15.999    6.557641    0.417131   -0.549362
  36 C     6.0000    0    12.011    9.205907    0.737394   -0.862794
  37 H     1.0000    0     1.008    9.636613    1.792855   -2.581991
  38 H     1.0000    0     1.008   10.043685    1.694550    0.760518
  39 H     1.0000    0     1.008    9.982386   -1.157253   -1.013014
  40 N     7.0000    0    14.007   -9.186397   -1.207482   -0.264518
  41 C     6.0000    0    12.011  -10.758895    1.032811   -0.308927
  42 H     1.0000    0     1.008  -10.332575    2.218510   -1.943691
  43 H     1.0000    0     1.008  -12.726181    0.470967   -0.411146
  44 H     1.0000    0     1.008  -10.491446    2.168187    1.393397
  45 C     6.0000    0    12.011  -10.389195   -3.667594   -0.424536
  46 H     1.0000    0     1.008  -12.415072   -3.402331   -0.576650
  47 H     1.0000    0     1.008   -9.747725   -4.716290   -2.079846
  48 H     1.0000    0     1.008  -10.010807   -4.806137    1.252529

--------------------------------
INTERNAL COORDINATES (ANGSTROEM)
--------------------------------
 C      0   0   0     0.000000000000     0.00000000     0.00000000
 C      1   0   0     1.401751959857     0.00000000     0.00000000
 C      2   1   0     1.388135837215   121.16657502     0.00000000
 C      3   2   1     1.430652521721   120.61142345     2.19528300
 C      4   3   2     1.423225949629   116.79958303   355.76710297
 C      5   4   3     1.353387945464   122.43734866     3.14167166
 C      4   3   2     1.394433651733   120.84463849   176.20634216
 C      7   4   3     1.414760795743   119.32756881   356.10403124
 C      8   7   4     1.430066429168   118.81707738     5.84105160
 C      9   8   7     1.400519924208   120.43475010   181.21194941
 H     10   9   8     1.076830806473   120.84276434   176.63361403
 C     10   9   8     1.372765570677   119.76917731   359.01933008
 C     12  10   9     1.390401702768   121.90431549     0.43680256
 C     13  12  10     1.379711442374   119.64587719     0.83297796
 H      2   1   3     1.075616231376   118.97324969   178.21855014
 H      5   4   3     1.080638676424   118.44636870   182.54483991
 H      6   5   4     1.079612250578   119.51809459   179.61555700
 H     12  10   9     1.082514852356   119.04879953   179.30887173
 H     13  12  10     1.078947759533   119.90972087   179.32545362
 N      3   2   1     1.372813903734   121.26270674   183.32879715
 C     20   3   2     1.459203751684   118.86475646    10.38683403
 H     21  20   3     1.083606921982   109.60587298   147.20644715
 H     21  20   3     1.089921166718   111.59653897   268.62378829
 H     21  20   3     1.083578864791   109.17146671    29.57385716
 C      7   4   3     1.484619391315   117.61724708   175.76112424
 C     25   7   4     1.391890274423   120.79893478    78.25474714
 C     25   7   4     1.392199607115   119.79473774   260.68855995
 C     26  25   7     1.386635068477   120.23607433   181.24882112
 C     27  25   7     1.386057629005   120.24825133   178.34541114
 C     28  26  25     1.387589841143   120.23874067     0.77522390
 H     28  26  25     1.082835474098   119.61941179   180.46001184
 H     29  27  25     1.082851889965   119.62315933   180.14361036
 H     26  25   7     1.083446643908   119.50478194     1.81338291
 H     27  25   7     1.083495641461   119.51050522   357.89507183
 H     30  28  26     1.082590391965   120.16256969   179.76196717
 O     14  13  12     1.337902297567   122.64282948   177.09946479
 C     36  14  13     1.421323169269   118.72214483     0.82770606
 H     37  36  14     1.091586953328   111.35449118   298.80341511
 H     37  36  14     1.091332591062   111.34750807    61.31918950
 H     37  36  14     1.086447706468   105.74768787   180.06031783
 N      1   2   3     1.347183930467   121.28948386   181.03009878
 C     41   1   2     1.448596316799   120.19522432   359.72406491
 H     42  41   1     1.092220464570   111.36663704    61.47835760
 H     42  41   1     1.084016919397   109.14837157   181.18069219
 H     42  41   1     1.092018923632   111.24982112   300.81999131
 C     41   1   2     1.451574341864   121.04365627   179.27212189
 H     46  41   1     1.084191116441   108.77118676   180.90927460
 H     46  41   1     1.091093007319   111.50381834   300.26360948
 H     46  41   1     1.091184304351   111.54796038    61.56945853

---------------------------
INTERNAL COORDINATES (A.U.)
---------------------------
 C      0   0   0     0.000000000000     0.00000000     0.00000000
 C      1   0   0     2.648927311818     0.00000000     0.00000000
 C      2   1   0     2.623196569018   121.16657502     0.00000000
 C      3   2   1     2.703541458856   120.61142345     2.19528300
 C      4   3   2     2.689507271489   116.79958303   355.76710297
 C      5   4   3     2.557532569876   122.43734866     3.14167166
 C      4   3   2     2.635097713699   120.84463849   176.20634216
 C      7   4   3     2.673510448962   119.32756881   356.10403124
 C      8   7   4     2.702433904441   118.81707738     5.84105160
 C      9   8   7     2.646599101854   120.43475010   181.21194941
 H     10   9   8     2.034915316803   120.84276434   176.63361403
 C     10   9   8     2.594150974656   119.76917731   359.01933008
 C     12  10   9     2.627478434370   121.90431549     0.43680256
 C     13  12  10     2.607276769924   119.64587719     0.83297796
 H      2   1   3     2.032620102502   118.97324969   178.21855014
 H      5   4   3     2.042111148165   118.44636870   182.54483991
 H      6   5   4     2.040171484419   119.51809459   179.61555700
 H     12  10   9     2.045656606855   119.04879953   179.30887173
 H     13  12  10     2.038915778325   119.90972087   179.32545362
 N      3   2   1     2.594242310897   121.26270674   183.32879715
 C     20   3   2     2.757495464273   118.86475646    10.38683403
 H     21  20   3     2.047720319368   109.60587298   147.20644715
 H     21  20   3     2.059652512662   111.59653897   268.62378829
 H     21  20   3     2.047667298960   109.17146671    29.57385716
 C      7   4   3     2.805524062695   117.61724708   175.76112424
 C     25   7   4     2.630291427128   120.79893478    78.25474714
 C     25   7   4     2.630875981200   119.79473774   260.68855995
 C     26  25   7     2.620360527112   120.23607433   181.24882112
 C     27  25   7     2.619269324651   120.24825133   178.34541114
 C     28  26  25     2.622164785971   120.23874067     0.77522390
 H     28  26  25     2.046262494140   119.61941179   180.46001184
 H     29  27  25     2.046293515633   119.62315933   180.14361036
 H     26  25   7     2.047417437703   119.50478194     1.81338291
 H     27  25   7     2.047510029660   119.51050522   357.89507183
 H     30  28  26     2.045799356027   120.16256969   179.76196717
 O     14  13  12     2.528268936345   122.64282948   177.09946479
 C     36  14  13     2.685911537715   118.72214483     0.82770606
 H     37  36  14     2.062800393151   111.35449118   298.80341511
 H     37  36  14     2.062319718130   111.34750807    61.31918950
 H     37  36  14     2.053088624052   105.74768787   180.06031783
 N      1   2   3     2.545808680602   121.28948386   181.03009878
 C     41   1   2     2.737450317357   120.19522432   359.72406491
 H     42  41   1     2.063997555902   111.36663704    61.47835760
 H     42  41   1     2.048495102196   109.14837157   181.18069219
 H     42  41   1     2.063616698724   111.24982112   300.81999131
 C     41   1   2     2.743077969150   121.04365627   179.27212189
 H     46  41   1     2.048824286904   108.77118676   180.90927460
 H     46  41   1     2.061866970470   111.50381834   300.26360948
 H     46  41   1     2.062039496857   111.54796038    61.56945853

---------------------
BASIS SET INFORMATION
---------------------
There are 4 groups of distinct atoms

 Group   1 Type C   : 11s6p2d1f contracted to 5s3p2d1f pattern {62111/411/11/1}
 Group   2 Type H   : 5s1p contracted to 3s1p pattern {311/1}
 Group   3 Type N   : 11s6p2d1f contracted to 5s3p2d1f pattern {62111/411/11/1}
 Group   4 Type O   : 11s6p2d1f contracted to 5s3p2d1f pattern {62111/411/11/1}

Atom   0C    basis set group =>   1
Atom   1C    basis set group =>   1
Atom   2C    basis set group =>   1
Atom   3C    basis set group =>   1
Atom   4C    basis set group =>   1
Atom   5C    basis set group =>   1
Atom   6C    basis set group =>   1
Atom   7C    basis set group =>   1
Atom   8C    basis set group =>   1
Atom   9C    basis set group =>   1
Atom  10H    basis set group =>   2
Atom  11C    basis set group =>   1
Atom  12C    basis set group =>   1
Atom  13C    basis set group =>   1
Atom  14H    basis set group =>   2
Atom  15H    basis set group =>   2
Atom  16H    basis set group =>   2
Atom  17H    basis set group =>   2
Atom  18H    basis set group =>   2
Atom  19N    basis set group =>   3
Atom  20C    basis set group =>   1
Atom  21H    basis set group =>   2
Atom  22H    basis set group =>   2
Atom  23H    basis set group =>   2
Atom  24C    basis set group =>   1
Atom  25C    basis set group =>   1
Atom  26C    basis set group =>   1
Atom  27C    basis set group =>   1
Atom  28C    basis set group =>   1
Atom  29C    basis set group =>   1
Atom  30H    basis set group =>   2
Atom  31H    basis set group =>   2
Atom  32H    basis set group =>   2
Atom  33H    basis set group =>   2
Atom  34H    basis set group =>   2
Atom  35O    basis set group =>   4
Atom  36C    basis set group =>   1
Atom  37H    basis set group =>   2
Atom  38H    basis set group =>   2
Atom  39H    basis set group =>   2
Atom  40N    basis set group =>   3
Atom  41C    basis set group =>   1
Atom  42H    basis set group =>   2
Atom  43H    basis set group =>   2
Atom  44H    basis set group =>   2
Atom  45C    basis set group =>   1
Atom  46H    basis set group =>   2
Atom  47H    basis set group =>   2
Atom  48H    basis set group =>   2
---------------------------------
AUXILIARY/J BASIS SET INFORMATION
---------------------------------
There are 4 groups of distinct atoms

 Group   1 Type C   : 12s5p4d2f1g contracted to 6s4p3d1f1g pattern {711111/2111/211/2/1}
 Group   2 Type H   : 5s2p1d contracted to 3s1p1d pattern {311/2/1}
 Group   3 Type N   : 12s5p4d2f1g contracted to 6s4p3d1f1g pattern {711111/2111/211/2/1}
 Group   4 Type O   : 12s5p4d2f1g contracted to 6s4p3d1f1g pattern {711111/2111/211/2/1}

Atom   0C    basis set group =>   1
Atom   1C    basis set group =>   1
Atom   2C    basis set group =>   1
Atom   3C    basis set group =>   1
Atom   4C    basis set group =>   1
Atom   5C    basis set group =>   1
Atom   6C    basis set group =>   1
Atom   7C    basis set group =>   1
Atom   8C    basis set group =>   1
Atom   9C    basis set group =>   1
Atom  10H    basis set group =>   2
Atom  11C    basis set group =>   1
Atom  12C    basis set group =>   1
Atom  13C    basis set group =>   1
Atom  14H    basis set group =>   2
Atom  15H    basis set group =>   2
Atom  16H    basis set group =>   2
Atom  17H    basis set group =>   2
Atom  18H    basis set group =>   2
Atom  19N    basis set group =>   3
Atom  20C    basis set group =>   1
Atom  21H    basis set group =>   2
Atom  22H    basis set group =>   2
Atom  23H    basis set group =>   2
Atom  24C    basis set group =>   1
Atom  25C    basis set group =>   1
Atom  26C    basis set group =>   1
Atom  27C    basis set group =>   1
Atom  28C    basis set group =>   1
Atom  29C    basis set group =>   1
Atom  30H    basis set group =>   2
Atom  31H    basis set group =>   2
Atom  32H    basis set group =>   2
Atom  33H    basis set group =>   2
Atom  34H    basis set group =>   2
Atom  35O    basis set group =>   4
Atom  36C    basis set group =>   1
Atom  37H    basis set group =>   2
Atom  38H    basis set group =>   2
Atom  39H    basis set group =>   2
Atom  40N    basis set group =>   3
Atom  41C    basis set group =>   1
Atom  42H    basis set group =>   2
Atom  43H    basis set group =>   2
Atom  44H    basis set group =>   2
Atom  45C    basis set group =>   1
Atom  46H    basis set group =>   2
Atom  47H    basis set group =>   2
Atom  48H    basis set group =>   2
---------------------------------
AUXILIARY/C BASIS SET INFORMATION
---------------------------------
There are 4 groups of distinct atoms

 Group   1 Type C   : 8s6p5d3f1g contracted to 8s6p4d3f1g pattern {11111111/111111/2111/111/1}
 Group   2 Type H   : 4s3p2d contracted to 4s2p1d pattern {1111/21/2}
 Group   3 Type N   : 8s6p5d3f1g contracted to 8s6p4d3f1g pattern {11111111/111111/2111/111/1}
 Group   4 Type O   : 8s6p5d3f1g contracted to 8s6p4d3f1g pattern {11111111/111111/2111/111/1}

Atom   0C    basis set group =>   1
Atom   1C    basis set group =>   1
Atom   2C    basis set group =>   1
Atom   3C    basis set group =>   1
Atom   4C    basis set group =>   1
Atom   5C    basis set group =>   1
Atom   6C    basis set group =>   1
Atom   7C    basis set group =>   1
Atom   8C    basis set group =>   1
Atom   9C    basis set group =>   1
Atom  10H    basis set group =>   2
Atom  11C    basis set group =>   1
Atom  12C    basis set group =>   1
Atom  13C    basis set group =>   1
Atom  14H    basis set group =>   2
Atom  15H    basis set group =>   2
Atom  16H    basis set group =>   2
Atom  17H    basis set group =>   2
Atom  18H    basis set group =>   2
Atom  19N    basis set group =>   3
Atom  20C    basis set group =>   1
Atom  21H    basis set group =>   2
Atom  22H    basis set group =>   2
Atom  23H    basis set group =>   2
Atom  24C    basis set group =>   1
Atom  25C    basis set group =>   1
Atom  26C    basis set group =>   1
Atom  27C    basis set group =>   1
Atom  28C    basis set group =>   1
Atom  29C    basis set group =>   1
Atom  30H    basis set group =>   2
Atom  31H    basis set group =>   2
Atom  32H    basis set group =>   2
Atom  33H    basis set group =>   2
Atom  34H    basis set group =>   2
Atom  35O    basis set group =>   4
Atom  36C    basis set group =>   1
Atom  37H    basis set group =>   2
Atom  38H    basis set group =>   2
Atom  39H    basis set group =>   2
Atom  40N    basis set group =>   3
Atom  41C    basis set group =>   1
Atom  42H    basis set group =>   2
Atom  43H    basis set group =>   2
Atom  44H    basis set group =>   2
Atom  45C    basis set group =>   1
Atom  46H    basis set group =>   2
Atom  47H    basis set group =>   2
Atom  48H    basis set group =>   2


           ************************************************************
           *        Program running with 8 parallel MPI-processes     *
           *              working on a common directory               *
           ************************************************************
------------------------------------------------------------------------------
                           ORCA GTO INTEGRAL CALCULATION
                           -- RI-GTO INTEGRALS CHOSEN --
------------------------------------------------------------------------------
------------------------------------------------------------------------------
                   ___                                                        
                  /   \      - P O W E R E D   B Y -                         
                 /     \                                                     
                 |  |  |   _    _      __       _____    __    __             
                 |  |  |  | |  | |    /  \     |  _  \  |  |  /  |          
                  \  \/   | |  | |   /    \    | | | |  |  | /  /          
                 / \  \   | |__| |  /  /\  \   | |_| |  |  |/  /          
                |  |  |   |  __  | /  /__\  \  |    /   |      \           
                |  |  |   | |  | | |   __   |  |    \   |  |\   \          
                \     /   | |  | | |  |  |  |  | |\  \  |  | \   \       
                 \___/    |_|  |_| |__|  |__|  |_| \__\ |__|  \__/        
                                                                              
                      - O R C A' S   B I G   F R I E N D -                    
                                      &                                       
                       - I N T E G R A L  F E E D E R -                       
                                                                              
 v1 FN, 2020, v2 2021                                                         
------------------------------------------------------------------------------


Reading SHARK input file Ph-Acr_1_M06L_def2TZVP_coords.SHARKINP.tmp ... ok
----------------------
SHARK INTEGRAL PACKAGE
----------------------

Number of atoms                             ...     49
Number of basis functions                   ...    944
Number of shells                            ...    378
Maximum angular momentum                    ...      3
Integral batch strategy                     ... SHARK/LIBINT Hybrid
RI-J (if used) integral strategy            ... SPLIT-RIJ (Revised 2003 algorithm where possible)
Printlevel                                  ...      1
Contraction scheme used                     ... SEGMENTED contraction
Coulomb Range Separation                    ... NOT USED
Exchange Range Separation                   ... NOT USED
Finite Nucleus Model                        ... NOT USED
Auxiliary Coulomb fitting basis             ... AVAILABLE
   # of basis functions in Aux-J            ...   1527
   # of shells in Aux-J                     ...    505
   Maximum angular momentum in Aux-J        ...      4
Auxiliary J/K fitting basis                 ... NOT available
Auxiliary Correlation fitting basis         ... AVAILABLE
   # of basis functions in Aux-C            ...   2321
   # of shells in Aux-C                     ...    733
   Maximum angular momentum in Aux-C        ...      4
Auxiliary 'external' fitting basis          ... NOT available
Integral threshold                          ...     2.500000e-11
Primitive cut-off                           ...     2.500000e-12
Primitive pair pre-selection threshold      ...     2.500000e-12

Calculating pre-screening integrals         ... done (  0.1 sec) Dimension = 378
Organizing shell pair data                  ... done (  0.6 sec)
Shell pair information
Total number of shell pairs                 ...     71631
Shell pairs after pre-screening             ...     48441
Total number of primitive shell pairs       ...    217452
Primitive shell pairs kept                  ...     97017
          la=0 lb=0:  12800 shell pairs
          la=1 lb=0:  14092 shell pairs
          la=1 lb=1:   3872 shell pairs
          la=2 lb=0:   6858 shell pairs
          la=2 lb=1:   3773 shell pairs
          la=2 lb=2:    954 shell pairs
          la=3 lb=0:   3177 shell pairs
          la=3 lb=1:   1810 shell pairs
          la=3 lb=2:    880 shell pairs
          la=3 lb=3:    225 shell pairs

Calculating one electron integrals          ... done (  0.1 sec)
Calculating RI/J V-Matrix + Cholesky decomp.... done (  0.1 sec)
Calculating RI/C V-Matrix + Cholesky decomp.... done (  0.2 sec)
Calculating Nuclear repulsion               ... done (  0.0 sec) ENN=   2278.414533673170 Eh

SHARK setup successfully completed in   1.4 seconds

Maximum memory used throughout the entire GTOINT-calculation: 76.4 MB


           ************************************************************
           *        Program running with 8 parallel MPI-processes     *
           *              working on a common directory               *
           ************************************************************
-------------------------------------------------------------------------------
                                 ORCA SCF
-------------------------------------------------------------------------------

------------
SCF SETTINGS
------------
Hamiltonian:
 Density Functional     Method          .... DFT(GTOs)
 Exchange Functional    Exchange        .... B88
   X-Alpha parameter    XAlpha          ....  0.666667
   Becke's b parameter  XBeta           ....  0.004200
 Correlation Functional Correlation     .... LYP
 LDA part of GGA corr.  LDAOpt          .... VWN-5
 Gradients option       PostSCFGGA      .... off
 Hybrid DFT is turned on
   Fraction HF Exchange ScalHFX         ....  0.690000
   Scaling of DF-GGA-X  ScalDFX         ....  0.310000
   Scaling of DF-GGA-C  ScalDFC         ....  0.540000
   Scaling of DF-LDA-C  ScalLDAC        ....  0.540000
   Perturbative correction              ....  1.000000
   Density functional embedding theory  .... OFF
   NL short-range parameter             .... 12.000000
 RI-approximation to the Coulomb term is turned on
   Number of AuxJ basis functions       .... 1527
   RIJ-COSX (HFX calculated with COS-X)).... on


General Settings:
 Integral files         IntName         .... Ph-Acr_1_M06L_def2TZVP_coords
 Hartree-Fock type      HFTyp           .... RHF
 Total Charge           Charge          ....    1
 Multiplicity           Mult            ....    1
 Number of Electrons    NEL             ....  182
 Basis Dimension        Dim             ....  944
 Nuclear Repulsion      ENuc            ....   2278.4145336732 Eh

Convergence Acceleration:
 DIIS                   CNVDIIS         .... on
   Start iteration      DIISMaxIt       ....    12
   Startup error        DIISStart       ....  0.200000
   # of expansion vecs  DIISMaxEq       ....     5
   Bias factor          DIISBfac        ....   1.050
   Max. coefficient     DIISMaxC        ....  10.000
 Trust-Rad. Augm. Hess. CNVTRAH         .... auto
   Auto Start mean grad. ratio tolernc. ....  1.125000
   Auto Start start iteration           ....    20
   Auto Start num. interpolation iter.  ....    10
   Max. Number of Micro iterations      ....    16
   Max. Number of Macro iterations      .... Maxiter - #DIIS iter
   Number of Davidson start vectors     ....     2
   Converg. threshold I  (grad. norm)   ....   1.000e-05
   Converg. threshold II (energy diff.) ....   1.000e-08
   Grad. Scal. Fac. for Micro threshold ....   0.100
   Minimum threshold for Micro iter.    ....   0.010
   NR start threshold (gradient norm)   ....   0.001
   Initial trust radius                 ....   0.400
   Minimum AH scaling param. (alpha)    ....   1.000
   Maximum AH scaling param. (alpha)    .... 1000.000
   Orbital update algorithm             .... Taylor
   White noise on init. David. guess    .... on
   Maximum white noise                  ....   0.010
   Quad. conv. algorithm                .... NR
 SOSCF                  CNVSOSCF        .... on
   Start iteration      SOSCFMaxIt      ....   150
   Startup grad/error   SOSCFStart      ....  0.003300
 Level Shifting         CNVShift        .... on
   Level shift para.    LevelShift      ....    0.2500
   Turn off err/grad.   ShiftErr        ....    0.0010
 Zerner damping         CNVZerner       .... off
 Static damping         CNVDamp         .... on
   Fraction old density DampFac         ....    0.7000
   Max. Damping (<1)    DampMax         ....    0.9800
   Min. Damping (>=0)   DampMin         ....    0.0000
   Turn off err/grad.   DampErr         ....    0.1000
 Fernandez-Rico         CNVRico         .... off

SCF Procedure:
 Maximum # iterations   MaxIter         ....   125
 SCF integral mode      SCFMode         .... Direct
   Integral package                     .... SHARK and LIBINT hybrid scheme
 Reset frequency        DirectResetFreq ....    20
 Integral Threshold     Thresh          ....  2.500e-11 Eh
 Primitive CutOff       TCut            ....  2.500e-12 Eh

Convergence Tolerance:
 Convergence Check Mode ConvCheckMode   .... Total+1el-Energy
 Convergence forced     ConvForced      .... 1
 Energy Change          TolE            ....  1.000e-08 Eh
 1-El. energy change                    ....  1.000e-05 Eh
 Orbital Gradient       TolG            ....  1.000e-05
 Orbital Rotation angle TolX            ....  1.000e-05
 DIIS Error             TolErr          ....  5.000e-07


Diagonalization of the overlap matrix:
Smallest eigenvalue                        ... 4.510e-06
Time for diagonalization                   ...    0.169 sec
Threshold for overlap eigenvalues          ... 1.000e-08
Number of eigenvalues below threshold      ... 0
Time for construction of square roots      ...    0.156 sec
Total time needed                          ...    0.329 sec

Time for model grid setup =    0.270 sec

------------------------------
INITIAL GUESS: MODEL POTENTIAL
------------------------------
Loading Hartree-Fock densities                     ... done
Calculating cut-offs                               ... done
Initializing the effective Hamiltonian             ... done
Setting up the integral package (SHARK)            ... done
Starting the Coulomb interaction                   ... done (   0.6 sec)
Reading the grid                                   ... done
Mapping shells                                     ... done
Starting the XC term evaluation                    ... done (   0.3 sec)
  promolecular density results
     # of electrons  =    182.982794941
     EX              =   -146.657691339
     EC              =     -0.810322988
     EX+EC           =   -147.468014327
Transforming the Hamiltonian                       ... done (   0.1 sec)
Diagonalizing the Hamiltonian                      ... done (   0.1 sec)
Back transforming the eigenvectors                 ... done (   0.0 sec)
Now organizing SCF variables                       ... done
                      ------------------
                      INITIAL GUESS DONE (   1.4 sec)
                      ------------------
-------------------
DFT GRID GENERATION
-------------------

General Integration Accuracy     IntAcc      ... 4.388
Radial Grid Type                 RadialGrid  ... OptM3 with GC (2021)
Angular Grid (max. ang.)         AngularGrid ... 4 (Lebedev-302)
Angular grid pruning method      GridPruning ... 4 (adaptive)
Weight generation scheme         WeightScheme... Becke
Basis function cutoff            BFCut       ... 1.0000e-11
Integration weight cutoff        WCut        ... 1.0000e-14
Angular grids for H and He will be reduced by one unit
Partially contracted basis set               ... off
Rotationally invariant grid construction     ... off

Total number of grid points                  ...   227536
Total number of batches                      ...     3583
Average number of points per batch           ...       63
Average number of grid points per atom       ...     4644
Time for grid setup =    1.216 sec

--------------------
COSX GRID GENERATION
--------------------

GRIDX 1
-------
General Integration Accuracy     IntAcc      ... 3.816
Radial Grid Type                 RadialGrid  ... OptM3 with GC (2021)
Angular Grid (max. ang.)         AngularGrid ... 1 (Lebedev-50)
Angular grid pruning method      GridPruning ... 4 (adaptive)
Weight generation scheme         WeightScheme... Becke
Basis function cutoff            BFCut       ... 1.0000e-11
Integration weight cutoff        WCut        ... 1.0000e-14
Angular grids for H and He will be reduced by one unit
Partially contracted basis set               ... on
Rotationally invariant grid construction     ... off

Total number of grid points                  ...    28980
Total number of batches                      ...      478
Average number of points per batch           ...       60
Average number of grid points per atom       ...      591
UseSFitting                                  ... on

GRIDX 2
-------
General Integration Accuracy     IntAcc      ... 4.020
Radial Grid Type                 RadialGrid  ... OptM3 with GC (2021)
Angular Grid (max. ang.)         AngularGrid ... 2 (Lebedev-110)
Angular grid pruning method      GridPruning ... 4 (adaptive)
Weight generation scheme         WeightScheme... Becke
Basis function cutoff            BFCut       ... 1.0000e-11
Integration weight cutoff        WCut        ... 1.0000e-14
Angular grids for H and He will be reduced by one unit
Partially contracted basis set               ... on
Rotationally invariant grid construction     ... off

Total number of grid points                  ...    61924
Total number of batches                      ...      994
Average number of points per batch           ...       62
Average number of grid points per atom       ...     1264
UseSFitting                                  ... on

GRIDX 3
-------
General Integration Accuracy     IntAcc      ... 4.338
Radial Grid Type                 RadialGrid  ... OptM3 with GC (2021)
Angular Grid (max. ang.)         AngularGrid ... 3 (Lebedev-194)
Angular grid pruning method      GridPruning ... 4 (adaptive)
Weight generation scheme         WeightScheme... Becke
Basis function cutoff            BFCut       ... 1.0000e-11
Integration weight cutoff        WCut        ... 1.0000e-14
Angular grids for H and He will be reduced by one unit
Partially contracted basis set               ... on
Rotationally invariant grid construction     ... off

Total number of grid points                  ...   135139
Total number of batches                      ...     2136
Average number of points per batch           ...       63
Average number of grid points per atom       ...     2758
UseSFitting                                  ... on

Time for X-Grid setup             =    1.523 sec


--------------------
CPCM SOLVATION MODEL
--------------------
CPCM parameters:
  Epsilon                                         ...      35.6880
  Refrac                                          ...       1.3442
  Rsolv                                           ...       1.3000
  Surface type                                    ... GAUSSIAN VDW
  Epsilon function type                           ...         CPCM
Solvent:                                     ... ACETONITRILE
SMD-CDS solvent descriptors:
  Soln                                       ...    1.3442
  Soln25                                     ...    1.3416
  Sola                                       ...    0.0700
  Solb                                       ...    0.3200
  Solg                                       ...   41.2500
  Solc                                       ...    0.0000
  Solh                                       ...    0.0000
Radii:
 Radius for C  used is    3.4960 Bohr (=   1.8500 Ang.)
 Radius for H  used is    2.2677 Bohr (=   1.2000 Ang.)
 Radius for N  used is    3.5716 Bohr (=   1.8900 Ang.)
 Radius for O  used is    4.0969 Bohr (=   2.1680 Ang.)
Calculating surface                               ...        done! (  0.0s)
GEPOL surface points                              ...         2675
GEPOL Volume                                      ...    2428.7677
GEPOL Surface-area                                ...    1290.6886
Calculating surface distance matrix               ...        done! (  0.0s)
Performing Cholesky decomposition & store         ...        done! (  0.2s)
Overall time for CPCM initialization              ...                 0.3s
--------------
SCF ITERATIONS
--------------
ITER       Energy         Delta-E        Max-DP      RMS-DP      [F,P]     Damp
               ***  Starting incremental Fock matrix formation  ***
  0  -1071.0860481788   0.000000000000 0.03224593  0.00052386  0.1713978 0.7000
  1  -1071.3211319387  -0.235083759830 0.02194560  0.00041286  0.1044925 0.7000
                               ***Turning on DIIS***
  2  -1071.4591918097  -0.138059871044 0.05635115  0.00094966  0.0614204 0.0000
  3  -1071.7153181087  -0.256126298930 0.03145544  0.00028155  0.0303700 0.0000
  4  -1071.7356212057  -0.020303097090 0.00599973  0.00010844  0.0048308 0.0000
                      *** Initiating the SOSCF procedure ***
                           *** Shutting down DIIS ***
                      *** Re-Reading the Fockian *** 
                      *** Removing any level shift *** 
ITER      Energy       Delta-E        Grad      Rot      Max-DP    RMS-DP
  5  -1071.73645720  -0.0008359983  0.002117  0.002117  0.003791  0.000047
               *** Restarting incremental Fock matrix formation ***
  6  -1071.73658932  -0.0001321127  0.001102  0.003475  0.007674  0.000119
  7  -1071.73667009  -0.0000807686  0.000485  0.003454  0.004375  0.000050
  8  -1071.73669116  -0.0000210783  0.000225  0.000703  0.002543  0.000039
  9  -1071.73669583  -0.0000046674  0.000062  0.000234  0.000356  0.000005
 10  -1071.73669632  -0.0000004841  0.000041  0.000184  0.000265  0.000003
 11  -1071.73669643  -0.0000001164  0.000015  0.000103  0.000181  0.000002
 12  -1071.73669646  -0.0000000309  0.000008  0.000047  0.000182  0.000001
                  ***Gradient check signals convergence***
              ***Rediagonalizing the Fockian in SOSCF/NRSCF***

               *****************************************************
               *                     SUCCESS                       *
               *           SCF CONVERGED AFTER  13 CYCLES          *
               *****************************************************

Old exchange energy                            =   -102.874890341 Eh
New exchange energy                            =   -102.874844362 Eh
Exchange energy change after final integration =      0.000045979 Eh
Total energy after final integration           =  -1071.736650512 Eh
Final COS-X integration done in                =    30.565 sec

SMD CDS free energy correction energy :                -4.65458     Kcal/mol
Total Energy after SMD CDS correction =             -1071.744068063 Eh

----------------
TOTAL SCF ENERGY
----------------

Total Energy       :        -1071.74406806 Eh          -29163.63874 eV

Components:
Nuclear Repulsion  :         2278.41453367 Eh           61998.81142 eV
Electronic Energy  :        -3350.15860174 Eh          -91162.45016 eV
One Electron Energy:        -5960.60214969 Eh         -162196.23039 eV
Two Electron Energy:         2610.44354795 Eh           71033.78023 eV
Max COSX asymmetry :            0.00000555 Eh               0.00015 eV
CPCM Dielectric    :           -0.07489838 Eh              -2.03809 eV
SMD CDS (Gcds)     :           -0.00741755 Eh              -0.20184 eV

Virial components:
Potential Energy   :        -2140.52203750 Eh          -58246.56584 eV
Kinetic Energy     :         1068.77796944 Eh           29082.92710 eV
Virial Ratio       :            2.00277522


DFT components:
N(Alpha)           :       91.000006094680 electrons
N(Beta)            :       91.000006094680 electrons
N(Total)           :      182.000012189359 electrons
E(X)               :      -46.271231899396 Eh       
E(C)               :       -3.337242665371 Eh       
E(XC)              :      -49.608474564767 Eh       
DFET-embed. en.    :        0.000000000000 Eh       
CPCM Solvation Model Properties:
Surface-charge          :           -1.06405406
Charge-correction       :            0.00646633 Eh               0.17596 eV
Free-energy (cav+disp)  :           -0.00741755 Eh              -0.20184 eV

---------------
SCF CONVERGENCE
---------------

  Last Energy change         ...   -2.8977e-08  Tolerance :   1.0000e-08
  Last MAX-Density change    ...    2.2204e-15  Tolerance :   1.0000e-07
  Last RMS-Density change    ...    1.2663e-17  Tolerance :   5.0000e-09
  Last Orbital Gradient      ...    2.4342e-06  Tolerance :   1.0000e-05
  Last Orbital Rotation      ...    8.5959e-06  Tolerance :   1.0000e-05

             **** THE GBW FILE WAS UPDATED (Ph-Acr_1_M06L_def2TZVP_coords.gbw) ****
             **** DENSITY Ph-Acr_1_M06L_def2TZVP_coords.scfp WAS UPDATED ****
             **** ENERGY FILE WAS UPDATED (Ph-Acr_1_M06L_def2TZVP_coords.en.tmp) ****
             **** THE GBW FILE WAS UPDATED (Ph-Acr_1_M06L_def2TZVP_coords.gbw) ****
             **** DENSITY Ph-Acr_1_M06L_def2TZVP_coords.scfp WAS UPDATED ****
----------------
ORBITAL ENERGIES
----------------

  NO   OCC          E(Eh)            E(eV) 
   0   2.0000     -20.050094      -545.5908 
   1   2.0000     -15.167800      -412.7368 
   2   2.0000     -15.123103      -411.5206 
   3   2.0000     -10.922322      -297.2115 
   4   2.0000     -10.913344      -296.9672 
   5   2.0000     -10.912962      -296.9568 
   6   2.0000     -10.904407      -296.7240 
   7   2.0000     -10.898900      -296.5741 
   8   2.0000     -10.871411      -295.8261 
   9   2.0000     -10.864432      -295.6362 
  10   2.0000     -10.858721      -295.4808 
  11   2.0000     -10.857776      -295.4551 
  12   2.0000     -10.853119      -295.3284 
  13   2.0000     -10.852798      -295.3196 
  14   2.0000     -10.848818      -295.2113 
  15   2.0000     -10.848679      -295.2076 
  16   2.0000     -10.848403      -295.2001 
  17   2.0000     -10.836689      -294.8813 
  18   2.0000     -10.832136      -294.7574 
  19   2.0000     -10.832055      -294.7552 
  20   2.0000     -10.830515      -294.7133 
  21   2.0000     -10.830171      -294.7039 
  22   2.0000     -10.830059      -294.7009 
  23   2.0000     -10.828805      -294.6668 
  24   2.0000     -10.827677      -294.6361 
  25   2.0000     -10.825963      -294.5894 
  26   2.0000      -1.301541       -35.4167 
  27   2.0000      -1.212309       -32.9886 
  28   2.0000      -1.168420       -31.7943 
  29   2.0000      -1.076055       -29.2810 
  30   2.0000      -1.060694       -28.8629 
  31   2.0000      -1.043904       -28.4061 
  32   2.0000      -1.002560       -27.2810 
  33   2.0000      -0.955392       -25.9975 
  34   2.0000      -0.939392       -25.5621 
  35   2.0000      -0.932041       -25.3621 
  36   2.0000      -0.922841       -25.1118 
  37   2.0000      -0.919627       -25.0243 
  38   2.0000      -0.887036       -24.1375 
  39   2.0000      -0.873269       -23.7628 
  40   2.0000      -0.867397       -23.6031 
  41   2.0000      -0.844293       -22.9744 
  42   2.0000      -0.811703       -22.0875 
  43   2.0000      -0.783518       -21.3206 
  44   2.0000      -0.759414       -20.6647 
  45   2.0000      -0.749819       -20.4036 
  46   2.0000      -0.742890       -20.2151 
  47   2.0000      -0.715394       -19.4668 
  48   2.0000      -0.697346       -18.9758 
  49   2.0000      -0.681549       -18.5459 
  50   2.0000      -0.663490       -18.0545 
  51   2.0000      -0.633661       -17.2428 
  52   2.0000      -0.628588       -17.1047 
  53   2.0000      -0.625764       -17.0279 
  54   2.0000      -0.613158       -16.6849 
  55   2.0000      -0.600543       -16.3416 
  56   2.0000      -0.599515       -16.3136 
  57   2.0000      -0.590129       -16.0582 
  58   2.0000      -0.584826       -15.9139 
  59   2.0000      -0.581542       -15.8246 
  60   2.0000      -0.578250       -15.7350 
  61   2.0000      -0.570517       -15.5246 
  62   2.0000      -0.562856       -15.3161 
  63   2.0000      -0.562505       -15.3065 
  64   2.0000      -0.541567       -14.7368 
  65   2.0000      -0.528304       -14.3759 
  66   2.0000      -0.527645       -14.3579 
  67   2.0000      -0.518632       -14.1127 
  68   2.0000      -0.514083       -13.9889 
  69   2.0000      -0.508120       -13.8266 
  70   2.0000      -0.504442       -13.7266 
  71   2.0000      -0.503859       -13.7107 
  72   2.0000      -0.498053       -13.5527 
  73   2.0000      -0.482187       -13.1210 
  74   2.0000      -0.480146       -13.0654 
  75   2.0000      -0.478879       -13.0310 
  76   2.0000      -0.472168       -12.8484 
  77   2.0000      -0.465494       -12.6667 
  78   2.0000      -0.452203       -12.3051 
  79   2.0000      -0.446603       -12.1527 
  80   2.0000      -0.442932       -12.0528 
  81   2.0000      -0.435966       -11.8632 
  82   2.0000      -0.430287       -11.7087 
  83   2.0000      -0.412106       -11.2140 
  84   2.0000      -0.399486       -10.8706 
  85   2.0000      -0.351701        -9.5703 
  86   2.0000      -0.329189        -8.9577 
  87   2.0000      -0.315949        -8.5974 
  88   2.0000      -0.308513        -8.3951 
  89   2.0000      -0.277565        -7.5529 
  90   2.0000      -0.267152        -7.2696 
  91   0.0000      -0.034290        -0.9331 
  92   0.0000       0.038934         1.0595 
  93   0.0000       0.060884         1.6567 
  94   0.0000       0.064467         1.7542 
  95   0.0000       0.075263         2.0480 
  96   0.0000       0.093732         2.5506 
  97   0.0000       0.094294         2.5659 
  98   0.0000       0.108067         2.9406 
  99   0.0000       0.115668         3.1475 
 100   0.0000       0.118879         3.2349 
 101   0.0000       0.129889         3.5345 
 102   0.0000       0.132747         3.6122 
 103   0.0000       0.133514         3.6331 
 104   0.0000       0.136118         3.7040 
 105   0.0000       0.145569         3.9611 
 106   0.0000       0.152469         4.1489 
 107   0.0000       0.154282         4.1982 
 108   0.0000       0.155977         4.2443 
 109   0.0000       0.161972         4.4075 
 110   0.0000       0.164673         4.4810 
 111   0.0000       0.169851         4.6219 
 112   0.0000       0.175021         4.7626 
 113   0.0000       0.177429         4.8281 
 114   0.0000       0.180411         4.9092 
 115   0.0000       0.187614         5.1052 
 116   0.0000       0.194864         5.3025 
 117   0.0000       0.197441         5.3726 
 118   0.0000       0.198980         5.4145 
 119   0.0000       0.203082         5.5261 
 120   0.0000       0.207923         5.6579 
 121   0.0000       0.208615         5.6767 
 122   0.0000       0.212193         5.7741 
 123   0.0000       0.219618         5.9761 
 124   0.0000       0.226790         6.1713 
 125   0.0000       0.230707         6.2779 
 126   0.0000       0.234452         6.3798 
 127   0.0000       0.238136         6.4800 
 128   0.0000       0.240651         6.5484 
 129   0.0000       0.247397         6.7320 
 130   0.0000       0.253361         6.8943 
 131   0.0000       0.257579         7.0091 
 132   0.0000       0.264603         7.2002 
 133   0.0000       0.270304         7.3553 
 134   0.0000       0.278989         7.5917 
 135   0.0000       0.280760         7.6399 
 136   0.0000       0.281185         7.6514 
 137   0.0000       0.284924         7.7532 
 138   0.0000       0.291071         7.9205 
 139   0.0000       0.296291         8.0625 
 140   0.0000       0.300210         8.1691 
 141   0.0000       0.303650         8.2627 
 142   0.0000       0.304261         8.2794 
 143   0.0000       0.306685         8.3453 
 144   0.0000       0.308239         8.3876 
 145   0.0000       0.315134         8.5752 
 146   0.0000       0.317958         8.6521 
 147   0.0000       0.325011         8.8440 
 148   0.0000       0.328261         8.9324 
 149   0.0000       0.335000         9.1158 
 150   0.0000       0.338844         9.2204 
 151   0.0000       0.341995         9.3061 
 152   0.0000       0.344881         9.3847 
 153   0.0000       0.348685         9.4882 
 154   0.0000       0.360356         9.8058 
 155   0.0000       0.362432         9.8623 
 156   0.0000       0.367420         9.9980 
 157   0.0000       0.374847        10.2001 
 158   0.0000       0.376291        10.2394 
 159   0.0000       0.379549        10.3281 
 160   0.0000       0.387808        10.5528 
 161   0.0000       0.388465        10.5707 
 162   0.0000       0.394112        10.7243 
 163   0.0000       0.397384        10.8134 
 164   0.0000       0.402186        10.9440 
 165   0.0000       0.403950        10.9920 
 166   0.0000       0.408773        11.1233 
 167   0.0000       0.413044        11.2395 
 168   0.0000       0.420452        11.4411 
 169   0.0000       0.424041        11.5387 
 170   0.0000       0.431352        11.7377 
 171   0.0000       0.432293        11.7633 
 172   0.0000       0.435840        11.8598 
 173   0.0000       0.442615        12.0442 
 174   0.0000       0.447387        12.1740 
 175   0.0000       0.453603        12.3432 
 176   0.0000       0.454130        12.3575 
 177   0.0000       0.454826        12.3764 
 178   0.0000       0.461878        12.5683 
 179   0.0000       0.463424        12.6104 
 180   0.0000       0.466897        12.7049 
 181   0.0000       0.472702        12.8629 
 182   0.0000       0.475807        12.9474 
 183   0.0000       0.481281        13.0963 
 184   0.0000       0.486660        13.2427 
 185   0.0000       0.488205        13.2847 
 186   0.0000       0.489236        13.3128 
 187   0.0000       0.491623        13.3777 
 188   0.0000       0.493333        13.4243 
 189   0.0000       0.497235        13.5305 
 190   0.0000       0.503156        13.6916 
 191   0.0000       0.505264        13.7489 
 192   0.0000       0.510595        13.8940 
 193   0.0000       0.513184        13.9644 
 194   0.0000       0.516717        14.0606 
 195   0.0000       0.520170        14.1546 
 196   0.0000       0.523054        14.2330 
 197   0.0000       0.525694        14.3049 
 198   0.0000       0.532361        14.4863 
 199   0.0000       0.534536        14.5455 
 200   0.0000       0.536502        14.5990 
 201   0.0000       0.543830        14.7984 
 202   0.0000       0.546161        14.8618 
 203   0.0000       0.548238        14.9183 
 204   0.0000       0.552364        15.0306 
 205   0.0000       0.559033        15.2121 
 206   0.0000       0.563370        15.3301 
 207   0.0000       0.564684        15.3658 
 208   0.0000       0.567862        15.4523 
 209   0.0000       0.574995        15.6464 
 210   0.0000       0.577528        15.7153 
 211   0.0000       0.582191        15.8422 
 212   0.0000       0.584830        15.9140 
 213   0.0000       0.586016        15.9463 
 214   0.0000       0.588425        16.0119 
 215   0.0000       0.592585        16.1251 
 216   0.0000       0.595334        16.1998 
 217   0.0000       0.600478        16.3398 
 218   0.0000       0.601865        16.3776 
 219   0.0000       0.608454        16.5569 
 220   0.0000       0.610736        16.6190 
 221   0.0000       0.616528        16.7766 
 222   0.0000       0.619694        16.8627 
 223   0.0000       0.625737        17.0272 
 224   0.0000       0.629101        17.1187 
 225   0.0000       0.634833        17.2747 
 226   0.0000       0.638835        17.3836 
 227   0.0000       0.644993        17.5512 
 228   0.0000       0.648095        17.6356 
 229   0.0000       0.656773        17.8717 
 230   0.0000       0.658572        17.9207 
 231   0.0000       0.668892        18.2015 
 232   0.0000       0.672621        18.3029 
 233   0.0000       0.675734        18.3877 
 234   0.0000       0.677177        18.4269 
 235   0.0000       0.686948        18.6928 
 236   0.0000       0.694196        18.8900 
 237   0.0000       0.704715        19.1763 
 238   0.0000       0.708566        19.2811 
 239   0.0000       0.712554        19.3896 
 240   0.0000       0.721507        19.6332 
 241   0.0000       0.727714        19.8021 
 242   0.0000       0.729750        19.8575 
 243   0.0000       0.736243        20.0342 
 244   0.0000       0.739527        20.1236 
 245   0.0000       0.744147        20.2493 
 246   0.0000       0.749828        20.4039 
 247   0.0000       0.752615        20.4797 
 248   0.0000       0.757229        20.6052 
 249   0.0000       0.761087        20.7102 
 250   0.0000       0.767315        20.8797 
 251   0.0000       0.772291        21.0151 
 252   0.0000       0.774939        21.0872 
 253   0.0000       0.778988        21.1974 
 254   0.0000       0.782073        21.2813 
 255   0.0000       0.794035        21.6068 
 256   0.0000       0.797956        21.7135 
 257   0.0000       0.800247        21.7758 
 258   0.0000       0.810444        22.0533 
 259   0.0000       0.812008        22.0959 
 260   0.0000       0.813809        22.1449 
 261   0.0000       0.824754        22.4427 
 262   0.0000       0.831178        22.6175 
 263   0.0000       0.831410        22.6238 
 264   0.0000       0.833619        22.6839 
 265   0.0000       0.839195        22.8356 
 266   0.0000       0.842829        22.9345 
 267   0.0000       0.845669        23.0118 
 268   0.0000       0.848943        23.1009 
 269   0.0000       0.853913        23.2361 
 270   0.0000       0.857971        23.3466 
 271   0.0000       0.865911        23.5626 
 272   0.0000       0.867196        23.5976 
 273   0.0000       0.876120        23.8404 
 274   0.0000       0.883902        24.0522 
 275   0.0000       0.889427        24.2025 
 276   0.0000       0.899222        24.4691 
 277   0.0000       0.901870        24.5411 
 278   0.0000       0.911653        24.8074 
 279   0.0000       0.920628        25.0516 
 280   0.0000       0.923996        25.1432 
 281   0.0000       0.927687        25.2436 
 282   0.0000       0.933187        25.3933 
 283   0.0000       0.936935        25.4953 
 284   0.0000       0.941889        25.6301 
 285   0.0000       0.945999        25.7419 
 286   0.0000       0.948589        25.8124 
 287   0.0000       0.954666        25.9778 
 288   0.0000       0.963248        26.2113 
 289   0.0000       0.965033        26.2599 
 290   0.0000       0.974120        26.5072 
 291   0.0000       0.981634        26.7116 
 292   0.0000       0.987109        26.8606 
 293   0.0000       0.991862        26.9899 
 294   0.0000       0.996345        27.1119 
 295   0.0000       1.004461        27.3328 
 296   0.0000       1.011914        27.5356 
 297   0.0000       1.019067        27.7302 
 298   0.0000       1.024058        27.8660 
 299   0.0000       1.028831        27.9959 
 300   0.0000       1.040316        28.3084 
 301   0.0000       1.045975        28.4624 
 302   0.0000       1.050191        28.5771 
 303   0.0000       1.054660        28.6987 
 304   0.0000       1.070785        29.1375 
 305   0.0000       1.075437        29.2641 
 306   0.0000       1.077493        29.3201 
 307   0.0000       1.085827        29.5468 
 308   0.0000       1.089296        29.6413 
 309   0.0000       1.100518        29.9466 
 310   0.0000       1.109493        30.1908 
 311   0.0000       1.115592        30.3568 
 312   0.0000       1.116712        30.3873 
 313   0.0000       1.133381        30.8409 
 314   0.0000       1.135300        30.8931 
 315   0.0000       1.146300        31.1924 
 316   0.0000       1.149345        31.2753 
 317   0.0000       1.153628        31.3918 
 318   0.0000       1.165861        31.7247 
 319   0.0000       1.171149        31.8686 
 320   0.0000       1.173604        31.9354 
 321   0.0000       1.178972        32.0815 
 322   0.0000       1.185771        32.2665 
 323   0.0000       1.190447        32.3937 
 324   0.0000       1.196784        32.5662 
 325   0.0000       1.201834        32.7036 
 326   0.0000       1.214197        33.0400 
 327   0.0000       1.223654        33.2973 
 328   0.0000       1.233697        33.5706 
 329   0.0000       1.243232        33.8301 
 330   0.0000       1.243789        33.8452 
 331   0.0000       1.247372        33.9427 
 332   0.0000       1.256715        34.1970 
 333   0.0000       1.267652        34.4946 
 334   0.0000       1.270913        34.5833 
 335   0.0000       1.277762        34.7697 
 336   0.0000       1.284169        34.9440 
 337   0.0000       1.288223        35.0543 
 338   0.0000       1.296961        35.2921 
 339   0.0000       1.306811        35.5601 
 340   0.0000       1.310949        35.6727 
 341   0.0000       1.319716        35.9113 
 342   0.0000       1.332397        36.2564 
 343   0.0000       1.338586        36.4248 
 344   0.0000       1.344204        36.5776 
 345   0.0000       1.359635        36.9976 
 346   0.0000       1.363966        37.1154 
 347   0.0000       1.369284        37.2601 
 348   0.0000       1.375978        37.4423 
 349   0.0000       1.381650        37.5966 
 350   0.0000       1.390931        37.8491 
 351   0.0000       1.391714        37.8705 
 352   0.0000       1.404684        38.2234 
 353   0.0000       1.409860        38.3643 
 354   0.0000       1.413257        38.4567 
 355   0.0000       1.415427        38.5157 
 356   0.0000       1.418880        38.6097 
 357   0.0000       1.429556        38.9002 
 358   0.0000       1.432001        38.9667 
 359   0.0000       1.435462        39.0609 
 360   0.0000       1.450801        39.4783 
 361   0.0000       1.460571        39.7441 
 362   0.0000       1.469428        39.9852 
 363   0.0000       1.482316        40.3359 
 364   0.0000       1.487714        40.4827 
 365   0.0000       1.501142        40.8482 
 366   0.0000       1.510110        41.0922 
 367   0.0000       1.514928        41.2233 
 368   0.0000       1.528311        41.5875 
 369   0.0000       1.536635        41.8140 
 370   0.0000       1.543465        41.9998 
 371   0.0000       1.545502        42.0552 
 372   0.0000       1.550730        42.1975 
 373   0.0000       1.556484        42.3541 
 374   0.0000       1.569572        42.7102 
 375   0.0000       1.574547        42.8456 
 376   0.0000       1.588201        43.2172 
 377   0.0000       1.597317        43.4652 
 378   0.0000       1.600698        43.5572 
 379   0.0000       1.602099        43.5953 
 380   0.0000       1.609717        43.8026 
 381   0.0000       1.611340        43.8468 
 382   0.0000       1.615303        43.9546 
 383   0.0000       1.626160        44.2501 
 384   0.0000       1.630479        44.3676 
 385   0.0000       1.639112        44.6025 
 386   0.0000       1.645733        44.7827 
 387   0.0000       1.652901        44.9777 
 388   0.0000       1.653669        44.9986 
 389   0.0000       1.661903        45.2227 
 390   0.0000       1.667743        45.3816 
 391   0.0000       1.676752        45.6267 
 392   0.0000       1.684726        45.8437 
 393   0.0000       1.688174        45.9375 
 394   0.0000       1.690967        46.0136 
 395   0.0000       1.696699        46.1695 
 396   0.0000       1.698460        46.2174 
 397   0.0000       1.704028        46.3690 
 398   0.0000       1.705696        46.4143 
 399   0.0000       1.708956        46.5031 
 400   0.0000       1.715500        46.6811 
 401   0.0000       1.717624        46.7389 
 402   0.0000       1.720150        46.8077 
 403   0.0000       1.725406        46.9507 
 404   0.0000       1.734202        47.1900 
 405   0.0000       1.737848        47.2892 
 406   0.0000       1.744332        47.4657 
 407   0.0000       1.747085        47.5406 
 408   0.0000       1.753482        47.7147 
 409   0.0000       1.757269        47.8177 
 410   0.0000       1.764536        48.0155 
 411   0.0000       1.770913        48.1890 
 412   0.0000       1.778431        48.3936 
 413   0.0000       1.780821        48.4586 
 414   0.0000       1.785148        48.5763 
 415   0.0000       1.788483        48.6671 
 416   0.0000       1.797105        48.9017 
 417   0.0000       1.798135        48.9297 
 418   0.0000       1.803008        49.0623 
 419   0.0000       1.806823        49.1662 
 420   0.0000       1.816368        49.4259 
 421   0.0000       1.823214        49.6122 
 422   0.0000       1.826408        49.6991 
 423   0.0000       1.831225        49.8302 
 424   0.0000       1.837424        49.9989 
 425   0.0000       1.842087        50.1257 
 426   0.0000       1.849788        50.3353 
 427   0.0000       1.855939        50.5027 
 428   0.0000       1.867782        50.8249 
 429   0.0000       1.875256        51.0283 
 430   0.0000       1.877144        51.0797 
 431   0.0000       1.885548        51.3084 
 432   0.0000       1.892139        51.4877 
 433   0.0000       1.896026        51.5935 
 434   0.0000       1.897619        51.6368 
 435   0.0000       1.902129        51.7596 
 436   0.0000       1.910640        51.9912 
 437   0.0000       1.914058        52.0842 
 438   0.0000       1.919902        52.2432 
 439   0.0000       1.930361        52.5278 
 440   0.0000       1.936830        52.7038 
 441   0.0000       1.947484        52.9937 
 442   0.0000       1.957018        53.2532 
 443   0.0000       1.967591        53.5409 
 444   0.0000       1.976453        53.7820 
 445   0.0000       1.978979        53.8507 
 446   0.0000       1.987949        54.0948 
 447   0.0000       1.995513        54.3007 
 448   0.0000       2.004861        54.5551 
 449   0.0000       2.005570        54.5743 
 450   0.0000       2.020634        54.9843 
 451   0.0000       2.033421        55.3322 
 452   0.0000       2.036636        55.4197 
 453   0.0000       2.050082        55.7856 
 454   0.0000       2.057739        55.9939 
 455   0.0000       2.064042        56.1654 
 456   0.0000       2.067043        56.2471 
 457   0.0000       2.071749        56.3751 
 458   0.0000       2.092574        56.9418 
 459   0.0000       2.099825        57.1392 
 460   0.0000       2.114670        57.5431 
 461   0.0000       2.124947        57.8227 
 462   0.0000       2.133486        58.0551 
 463   0.0000       2.145128        58.3719 
 464   0.0000       2.146507        58.4094 
 465   0.0000       2.152961        58.5850 
 466   0.0000       2.156197        58.6731 
 467   0.0000       2.161458        58.8163 
 468   0.0000       2.166756        58.9604 
 469   0.0000       2.179939        59.3192 
 470   0.0000       2.184481        59.4428 
 471   0.0000       2.191070        59.6221 
 472   0.0000       2.202052        59.9209 
 473   0.0000       2.203482        59.9598 
 474   0.0000       2.208669        60.1009 
 475   0.0000       2.217278        60.3352 
 476   0.0000       2.224685        60.5368 
 477   0.0000       2.230790        60.7029 
 478   0.0000       2.235951        60.8433 
 479   0.0000       2.244777        61.0835 
 480   0.0000       2.254569        61.3499 
 481   0.0000       2.255997        61.3888 
 482   0.0000       2.260291        61.5056 
 483   0.0000       2.271600        61.8134 
 484   0.0000       2.275302        61.9141 
 485   0.0000       2.283578        62.1393 
 486   0.0000       2.296918        62.5023 
 487   0.0000       2.307132        62.7802 
 488   0.0000       2.315277        63.0019 
 489   0.0000       2.329305        63.3836 
 490   0.0000       2.331634        63.4470 
 491   0.0000       2.342384        63.7395 
 492   0.0000       2.348148        63.8964 
 493   0.0000       2.364244        64.3344 
 494   0.0000       2.374902        64.6244 
 495   0.0000       2.378698        64.7277 
 496   0.0000       2.387918        64.9785 
 497   0.0000       2.394653        65.1618 
 498   0.0000       2.399446        65.2922 
 499   0.0000       2.411559        65.6219 
 500   0.0000       2.422912        65.9308 
 501   0.0000       2.425522        66.0018 
 502   0.0000       2.443149        66.4815 
 503   0.0000       2.455131        66.8075 
 504   0.0000       2.457668        66.8765 
 505   0.0000       2.463856        67.0449 
 506   0.0000       2.466183        67.1083 
 507   0.0000       2.471997        67.2665 
 508   0.0000       2.481326        67.5203 
 509   0.0000       2.491582        67.7994 
 510   0.0000       2.498510        67.9879 
 511   0.0000       2.499988        68.0281 
 512   0.0000       2.505901        68.1890 
 513   0.0000       2.513855        68.4055 
 514   0.0000       2.519641        68.5629 
 515   0.0000       2.524937        68.7070 
 516   0.0000       2.535836        69.0036 
 517   0.0000       2.541410        69.1553 
 518   0.0000       2.552140        69.4472 
 519   0.0000       2.560723        69.6808 
 520   0.0000       2.571987        69.9873 
 521   0.0000       2.588270        70.4304 
 522   0.0000       2.589178        70.4551 
 523   0.0000       2.592626        70.5489 
 524   0.0000       2.600679        70.7681 
 525   0.0000       2.618497        71.2529 
 526   0.0000       2.620893        71.3181 
 527   0.0000       2.624814        71.4248 
 528   0.0000       2.633827        71.6701 
 529   0.0000       2.635157        71.7063 
 530   0.0000       2.649153        72.0871 
 531   0.0000       2.654123        72.2223 
 532   0.0000       2.668310        72.6084 
 533   0.0000       2.670336        72.6635 
 534   0.0000       2.682707        73.0002 
 535   0.0000       2.687104        73.1198 
 536   0.0000       2.694434        73.3193 
 537   0.0000       2.699878        73.4674 
 538   0.0000       2.710094        73.7454 
 539   0.0000       2.710713        73.7623 
 540   0.0000       2.713035        73.8254 
 541   0.0000       2.718123        73.9639 
 542   0.0000       2.726247        74.1849 
[...]
    89a ->  94a  :     0.061864 
    89a ->  95a  :     0.013340 
    89a ->  96a  :     0.054425 
    90a ->  93a  :     0.021178 
    90a ->  95a  :     0.043619 

STATE 18:  E=   0.200445 au      5.454 eV    43992.5 cm**-1 <S**2> =   0.000000
    85a ->  97a  :     0.010044 
    85a ->  98a  :     0.010864 
    89a ->  93a  :     0.041370 
    90a ->  96a  :     0.015578 
    90a ->  97a  :     0.720220 
    90a ->  98a  :     0.032791 
    90a -> 100a  :     0.010191 
    90a -> 101a  :     0.022367 

STATE 19:  E=   0.165183 au      4.495 eV    36253.5 cm**-1 <S**2> =   0.000000
    75a ->  91a  :     0.013897 
    76a ->  91a  :     0.025869 
    81a ->  91a  :     0.142405 
    82a ->  91a  :     0.294902 
    83a ->  91a  :     0.088533 
    84a ->  91a  :     0.012176 
    85a ->  92a  :     0.011777 
    87a ->  92a  :     0.013293 
    87a ->  94a  :     0.017120 
    88a ->  92a  :     0.037335 
    88a ->  93a  :     0.020462 
    89a ->  93a  :     0.052123 
    89a ->  95a  :     0.013302 
    90a ->  93a  :     0.062064 
    90a ->  94a  :     0.016706 
    90a ->  95a  :     0.020983 
    90a ->  96a  :     0.034765 

STATE 20:  E=   0.184399 au      5.018 eV    40470.8 cm**-1 <S**2> =   0.000000
    81a ->  91a  :     0.031718 
    82a ->  91a  :     0.091378 
    84a ->  91a  :     0.078012 
    87a ->  92a  :     0.099490 
    87a ->  93a  :     0.060715 
    87a ->  94a  :     0.065157 
    87a ->  95a  :     0.034023 
    88a ->  92a  :     0.020782 
    88a ->  93a  :     0.173264 
    88a ->  94a  :     0.051995 
    89a ->  93a  :     0.026179 
    89a ->  96a  :     0.036952 
    90a ->  93a  :     0.069249 
    90a ->  94a  :     0.053331 

STATE 21:  E=   0.162221 au      4.414 eV    35603.4 cm**-1 <S**2> =   0.000000
    81a ->  91a  :     0.023750 
    82a ->  91a  :     0.045022 
    83a ->  91a  :     0.021664 
    84a ->  91a  :     0.011190 
    85a ->  92a  :     0.017235 
    85a ->  96a  :     0.015862 
    86a ->  92a  :     0.110105 
    88a ->  92a  :     0.016757 
    89a ->  92a  :     0.018953 
    89a ->  94a  :     0.073809 
    89a ->  95a  :     0.196583 
    90a ->  94a  :     0.084116 
    90a ->  95a  :     0.225754 
    90a ->  96a  :     0.028236 
    90a ->  97a  :     0.013544 

STATE 22:  E=   0.158573 au      4.315 eV    34802.7 cm**-1 <S**2> =   0.000000
    85a ->  92a  :     0.060859 
    85a ->  96a  :     0.011777 
    87a ->  93a  :     0.020551 
    87a ->  94a  :     0.011521 
    88a ->  92a  :     0.011410 
    88a ->  93a  :     0.014405 
    89a ->  93a  :     0.059709 
    89a ->  94a  :     0.301354 
    90a ->  93a  :     0.197452 
    90a ->  96a  :     0.192367 
    90a -> 103a  :     0.022303 

STATE 23:  E=   0.163489 au      4.449 eV    35881.7 cm**-1 <S**2> =   0.000000
    82a ->  91a  :     0.019720 
    83a ->  91a  :     0.045817 
    84a ->  91a  :     0.075975 
    85a ->  92a  :     0.019909 
    86a ->  92a  :     0.051423 
    86a ->  94a  :     0.013350 
    87a ->  92a  :     0.010324 
    87a ->  94a  :     0.027636 
    88a ->  92a  :     0.105484 
    88a ->  93a  :     0.010990 
    89a ->  93a  :     0.112546 
    89a ->  96a  :     0.138522 
    89a ->  97a  :     0.054106 
    89a ->  98a  :     0.014707 
    90a ->  93a  :     0.040484 
    90a ->  94a  :     0.099134 
    90a -> 103a  :     0.012175 

STATE 24:  E=   0.175476 au      4.775 eV    38512.6 cm**-1 <S**2> =   0.000000
    83a ->  91a  :     0.064378 
    85a ->  92a  :     0.046168 
    86a ->  92a  :     0.020231 
    87a ->  93a  :     0.026915 
    88a ->  92a  :     0.265660 
    88a ->  93a  :     0.027076 
    88a ->  94a  :     0.178480 
    88a ->  95a  :     0.010915 
    89a ->  97a  :     0.060249 
    89a ->  98a  :     0.024694 
    89a -> 101a  :     0.011637 
    90a ->  94a  :     0.029853 
    90a ->  96a  :     0.076300 

STATE 25:  E=   0.205501 au      5.592 eV    45102.2 cm**-1 <S**2> =   0.000000
    86a ->  92a  :     0.013030 
    89a ->  94a  :     0.013943 
    89a ->  96a  :     0.033256 
    89a ->  97a  :     0.316856 
    89a ->  98a  :     0.115567 
    89a -> 100a  :     0.016092 
    89a -> 101a  :     0.021903 
    89a -> 102a  :     0.035823 
    90a ->  94a  :     0.096764 
    90a ->  95a  :     0.026499 
    90a ->  96a  :     0.031273 
    90a ->  98a  :     0.052251 
    90a ->  99a  :     0.049498 

STATE 26:  E=   0.167355 au      4.554 eV    36730.1 cm**-1 <S**2> =   0.000000
    81a ->  91a  :     0.015680 
    82a ->  91a  :     0.010881 
    83a ->  91a  :     0.083373 
    85a ->  92a  :     0.030959 
    86a ->  92a  :     0.049054 
    86a ->  95a  :     0.013040 
    88a ->  92a  :     0.070352 
    88a ->  93a  :     0.036341 
    88a ->  94a  :     0.062910 
    89a ->  92a  :     0.021761 
    89a ->  93a  :     0.018551 
    89a ->  94a  :     0.125814 
    89a ->  95a  :     0.071006 
    89a ->  96a  :     0.032738 
    89a ->  97a  :     0.020363 
    89a ->  98a  :     0.016925 
    90a ->  93a  :     0.031256 
    90a ->  94a  :     0.094461 
    90a ->  95a  :     0.035588 
    90a ->  96a  :     0.022983 
    90a -> 103a  :     0.016485 

STATE 27:  E=   0.167423 au      4.556 eV    36745.1 cm**-1 <S**2> =   0.000000
    81a ->  91a  :     0.011668 
    83a ->  91a  :     0.102899 
    85a ->  92a  :     0.118482 
    86a ->  92a  :     0.073610 
    86a ->  94a  :     0.015555 
    87a ->  94a  :     0.030632 
    88a ->  92a  :     0.042793 
    88a ->  93a  :     0.026554 
    88a ->  94a  :     0.016888 
    89a ->  93a  :     0.013850 
    89a ->  94a  :     0.040302 
    89a ->  95a  :     0.088531 
    89a ->  96a  :     0.040141 
    89a ->  97a  :     0.010367 
    89a -> 102a  :     0.010310 
    89a -> 103a  :     0.027201 
    90a ->  94a  :     0.060401 
    90a ->  95a  :     0.130570 

STATE 28:  E=   0.177272 au      4.824 eV    38906.6 cm**-1 <S**2> =   0.000000
    74a ->  91a  :     0.088144 
    75a ->  91a  :     0.086216 
    77a ->  91a  :     0.045524 
    81a ->  91a  :     0.322258 
    81a ->  95a  :     0.011288 
    82a ->  91a  :     0.212075 
    88a ->  92a  :     0.016571 
    88a ->  95a  :     0.044612 

STATE 29:  E=   0.214923 au      5.848 eV    47170.1 cm**-1 <S**2> =   0.000000
    83a ->  91a  :     0.042706 
    85a ->  97a  :     0.033347 
    89a ->  97a  :     0.020937 
    89a ->  98a  :     0.065211 
    90a ->  97a  :     0.014678 
    90a ->  98a  :     0.361610 
    90a ->  99a  :     0.092109 
    90a -> 100a  :     0.142281 
    90a -> 101a  :     0.039677 
    90a -> 102a  :     0.025233 
    90a -> 109a  :     0.014249 

STATE 30:  E=   0.160256 au      4.361 eV    35172.0 cm**-1 <S**2> =   0.000000
    81a ->  91a  :     0.013019 
    83a ->  91a  :     0.332933 
    85a ->  92a  :     0.231337 
    86a ->  96a  :     0.015709 
    87a ->  92a  :     0.021693 
    88a ->  95a  :     0.010129 
    89a ->  95a  :     0.015554 
    90a ->  96a  :     0.027824 
    90a ->  98a  :     0.031490 
    90a -> 102a  :     0.035036 
    90a -> 103a  :     0.102846 


-------------------------
TD-DFT-EXCITATION SPECTRA
-------------------------

Center of mass = (  0.0690, -0.0026,  0.0028)
Calculating the Dipole integrals                  ... done
Transforming integrals                            ... done
Calculating the Linear Momentum integrals         ... done
Transforming integrals                            ... done
Calculating angular momentum integrals            ... done
Transforming integrals                            ... done

-----------------------------------------------------------------------------
         ABSORPTION SPECTRUM VIA TRANSITION ELECTRIC DIPOLE MOMENTS
-----------------------------------------------------------------------------
State   Energy    Wavelength  fosc         T2        TX        TY        TZ  
        (cm-1)      (nm)                 (au**2)    (au)      (au)      (au) 
-----------------------------------------------------------------------------
   1   10550.8    947.8   0.218982898   6.83284   2.12608   1.51929   0.06606
   2   15159.1    659.7   0.231935801   5.03697  -2.24275  -0.00354   0.08387
   3   21852.7    457.6   0.017699606   0.26665   0.12313   0.48898  -0.11129
   4   22778.1    439.0   0.036691250   0.53030  -0.72631   0.05130  -0.01186
   5   23124.7    432.4   0.024147933   0.34378  -0.57016   0.11179   0.07877
   6   26574.4    376.3   0.579592507   7.18018  -2.65829  -0.32871  -0.07487
   7   23911.4    418.2   0.062815662   0.86485  -0.71460   0.59468   0.02343
   8   29986.5    333.5   0.054219231   0.59526  -0.31122  -0.70579   0.01613
   9   32403.2    308.6   0.354650612   3.60320   0.71952   1.75295  -0.11258
  10   46562.9    214.8   0.006558660   0.04637   0.18710   0.08618  -0.06275
  11   29221.2    342.2   0.110742134   1.24764  -0.12168   1.10857  -0.06247
  12   35293.3    283.3   0.057648414   0.53774  -0.18003   0.70889   0.05297
  13   37879.5    264.0   0.110028623   0.95626   0.94474   0.15136   0.20203
  14   33559.5    298.0   0.103583946   1.01614  -0.64150  -0.76114   0.15898
  15   38706.8    258.4   0.284950326   2.42358  -0.76241   0.80581  -1.09224
  16   33683.6    296.9   0.095485437   0.93324   0.33179  -0.90523  -0.06092
  17   42482.2    235.4   0.368379774   2.85473   0.49721  -1.21419  -1.06454
  18   43992.5    227.3   0.045477938   0.34033  -0.03443  -0.14253   0.56465
  19   36253.5    275.8   0.054976120   0.49923  -0.34578   0.55629   0.26495
  20   40470.8    247.1   0.196871504   1.60146  -0.56393   0.96201  -0.59832
  21   35603.4    280.9   0.073940569   0.68370   0.15632  -0.79374  -0.17100
  22   34802.7    287.3   0.066869042   0.63254   0.58666  -0.46986  -0.26000
  23   35881.7    278.7   0.019916128   0.18273   0.35367  -0.23797  -0.03193
  24   38512.6    259.7   0.056753151   0.48514   0.48041   0.12862   0.48765
  25   45102.2    221.7   0.008821698   0.06439   0.01340  -0.15598  -0.19970
  26   36730.1    272.3   0.025013778   0.22420  -0.36606  -0.04856  -0.29638
  27   36745.1    272.1   0.043196133   0.38701   0.49881  -0.28127  -0.24308
  28   38906.6    257.0   0.002459073   0.02081   0.00879  -0.14397  -0.00185
  29   47170.1    212.0   0.008199770   0.05723  -0.10893   0.11806   0.17727
  30   35172.0    284.3   0.019548446   0.18297  -0.24721   0.34890   0.01155

-----------------------------------------------------------------------------
         ABSORPTION SPECTRUM VIA TRANSITION VELOCITY DIPOLE MOMENTS
-----------------------------------------------------------------------------
State   Energy    Wavelength   fosc        P2         PX        PY        PZ  
        (cm-1)      (nm)                 (au**2)     (au)      (au)      (au) 
-----------------------------------------------------------------------------
   1   10550.8    947.8   1.516678620   0.10937  -0.26785  -0.19379  -0.00847
   2   15159.1    659.7   0.876228775   0.09078   0.30109  -0.00098  -0.01133
   3   21852.7    457.6   0.050623324   0.00756  -0.02180  -0.08206   0.01876
   4   22778.1    439.0   0.103057281   0.01604   0.12634  -0.00879   0.00189
   5   23124.7    432.4   0.079408114   0.01255   0.10876  -0.02204  -0.01534
   6   26574.4    376.3   1.519970275   0.27606   0.52138   0.06326   0.01482
   7   23911.4    418.2   0.216291860   0.03535   0.14284  -0.12215  -0.00464
   8   29986.5    333.5   0.126634623   0.02595   0.06522   0.14727  -0.00320
   9   32403.2    308.6   0.722319467   0.15996  -0.15128  -0.36947   0.02398
  10   46562.9    214.8   0.006709402   0.00214  -0.04013  -0.01840   0.01364
  11   29221.2    342.2   0.315622731   0.06303   0.02719  -0.24918   0.01430
  12   35293.3    283.3   0.121628677   0.02934   0.04232  -0.16549  -0.01271
  13   37879.5    264.0   0.215057194   0.05568  -0.22778  -0.03784  -0.04860
  14   33559.5    298.0   0.262422182   0.06019   0.15596   0.18532  -0.03900
  15   38706.8    258.4   0.575727708   0.15230   0.19161  -0.20166   0.27372
  16   33683.6    296.9   0.256253686   0.05899  -0.08315   0.22781   0.01347
  17   42482.2    235.4   0.626691269   0.18196  -0.12564   0.30597   0.26936
  18   43992.5    227.3   0.062139877   0.01868   0.00784   0.03569  -0.13171
  19   36253.5    275.8   0.136778920   0.03389   0.09031  -0.14459  -0.06948
  20   40470.8    247.1   0.395376493   0.10936   0.14767  -0.25124   0.15631
  21   35603.4    280.9   0.195469097   0.04756  -0.04250   0.20932   0.04408
  22   34802.7    287.3   0.186053314   0.04425  -0.15503   0.12363   0.07026
  23   35881.7    278.7   0.051879666   0.01272  -0.09387   0.06204   0.00786
  24   38512.6    259.7   0.134337441   0.03536  -0.12892  -0.03470  -0.13242
  25   45102.2    221.7   0.015327174   0.00472  -0.00383   0.04382   0.05281
  26   36730.1    272.3   0.066152413   0.01661   0.09946   0.01299   0.08091
  27   36745.1    272.1   0.117046921   0.02939  -0.13661   0.07883   0.06721
  28   38906.6    257.0   0.006017244   0.00160  -0.00224   0.03993   0.00063
  29   47170.1    212.0   0.014508410   0.00468   0.03115  -0.03258  -0.05143
  30   35172.0    284.3   0.059940871   0.01441   0.06928  -0.09800  -0.00237

-------------------------------------------------------------------
                             CD SPECTRUM
-------------------------------------------------------------------
State  Energy     Wavelength     R         MX        MY        MZ   
       (cm-1)       (nm)     (1e40*cgs)   (au)      (au)      (au)  
-------------------------------------------------------------------
   1   10550.8    947.8     35.63435   0.00920   0.03142   0.12553
   2   15159.1    659.7    -53.21282   0.05880  -0.02363   0.22554
   3   21852.7    457.6     27.32848   0.03888  -0.00239  -0.48835
   4   22778.1    439.0    -26.94615   0.06233  -0.03139   0.86604
   5   23124.7    432.4     13.73920  -0.05977  -0.06021   0.02280
   6   26574.4    376.3    -44.02127   0.03406  -0.06418   0.31956
   7   23911.4    418.2     -4.20153  -0.01759  -0.03872   0.06585
   8   29986.5    333.5    -25.30658   0.07283   0.04575   0.07906
   9   32403.2    308.6      0.13962  -0.03737   0.00320  -0.19163
  10   46562.9    214.8      4.03128   0.01575   0.02505  -0.05492
  11   29221.2    342.2     25.19393  -0.01743   0.03131  -0.26582
  12   35293.3    283.3      0.88644   0.02725  -0.06319   0.97383
  13   37879.5    264.0    -81.37065  -0.14658  -0.09652  -0.09655
  14   33559.5    298.0    133.87350  -0.14051  -0.13054   0.59419
  15   38706.8    258.4    -75.87711   0.78206   0.51087  -0.02164
  16   33683.6    296.9     99.17598   0.00462  -0.23713   0.09567
  17   42482.2    235.4    -56.25471   0.85609   0.72012  -0.30941
  18   43992.5    227.3    -37.68741   0.19620   0.60838   0.02396
  19   36253.5    275.8     25.98513  -0.13583  -0.22440   0.50190
  20   40470.8    247.1     21.52220   0.36416   0.24386  -0.02744
  21   35603.4    280.9     83.27527  -0.07635  -0.10202  -0.62920
  22   34802.7    287.3    108.69083   0.19808   0.09364  -0.60898
  23   35881.7    278.7    -14.04932  -0.07889   0.06624  -0.43408
  24   38512.6    259.7    -55.26995  -0.31991  -0.24463   0.13928
  25   45102.2    221.7     -6.68586   0.36314   0.07886   0.03379
  26   36730.1    272.3    -64.10042   0.28035   0.26558   0.06898
  27   36745.1    272.1     -0.30892   0.07553   0.10426   0.03704
  28   38906.6    257.0     -6.02146   0.00280   0.08934  -0.03543
  29   47170.1    212.0     26.73043  -0.11869   0.35029   0.01363
  30   35172.0    284.3    -25.23736   0.14699  -0.05253   0.09821

Total run time:     3207.150 sec

           *** ORCA-CIS/TD-DFT FINISHED WITHOUT ERROR ***

Maximum memory used throughout the entire CIS-calculation: 4286.3 MB

-----------------------
CIS/TD-DFT TOTAL ENERGY
-----------------------

    E(SCF)  =  -1071.744068063 Eh
    DE(CIS) =      0.048072919 Eh (Root  1)
    ----------------------------- ---------
    E(tot)  =  -1071.695995144 Eh



-------------------------------------------------------------------------------
                          DFT DISPERSION CORRECTION                            
                                                                               
                              DFTD3 V3.1  Rev 1                                
                          USING Becke-Johnson damping                          
-------------------------------------------------------------------------------
The DSD-BLYP functional is recognized
Active option DFTDOPT                   ...         4   

molecular C6(AA) [au] = 26628.322994 


            DFT-D V3
 parameters
 s6 scaling factor         :     0.5000 
 a1 scaling factor         :     0.0000 
 s8 scaling factor         :     0.2130 
 a2 scaling factor         :     6.0520 
 ad hoc parameters k1-k3   :    16.0000     1.3333    -4.0000 

 Edisp/kcal,au: -27.745202069407  -0.044214789189 
 E6   /kcal   : -21.711604685 
 E8   /kcal   :  -6.033597384 
 % E8         :  21.746453203 

-------------------------   ----------------
Dispersion correction           -0.044214789
-------------------------   ----------------


-------------------------   --------------------
FINAL SINGLE POINT ENERGY     -1071.740209933651
-------------------------   --------------------


                            ***************************************
                            *     ORCA property calculations      *
                            ***************************************


  WARNING: The energy has been calculated at the MP2 level but the densities
           used in the property calculations are still SCF densities
           MP2 response densities have not been calculated 
           use %mp2 Density relaxed end
           or  %mp2 Density unrelaxed end

                                    ---------------------
                                    Active property flags
                                    ---------------------
   (+) Dipole Moment


------------------------------------------------------------------------------
                       ORCA ELECTRIC PROPERTIES CALCULATION
------------------------------------------------------------------------------

Dipole Moment Calculation                       ... on
Quadrupole Moment Calculation                   ... off
Polarizability Calculation                      ... off
GBWName                                         ... Ph-Acr_1_M06L_def2TZVP_coords.gbw
Electron density                                ... Ph-Acr_1_M06L_def2TZVP_coords.scfp
The origin for moment calculation is the CENTER OF MASS  = ( 0.069025, -0.002553  0.002755)

-------------
DIPOLE MOMENT
-------------
                                X             Y             Z
Electronic contribution:     10.53148       1.11745       0.46000
Nuclear contribution   :    -12.63152       0.46724      -0.50410
                        -----------------------------------------
Total Dipole Moment    :     -2.10003       1.58469      -0.04410
                        -----------------------------------------
Magnitude (a.u.)       :      2.63122
Magnitude (Debye)      :      6.68804



--------------------
Rotational spectrum 
--------------------
 
Rotational constants in cm-1:     0.010162     0.005301     0.003642 
Rotational constants in MHz :   304.643415   158.912869   109.175082 

 Dipole components along the rotational axes: 
x,y,z [a.u.] :    -2.098604     1.586709    -0.039376 
x,y,z [Debye]:    -5.334227     4.033094    -0.100086 

 

Timings for individual modules:

Sum of individual times         ...     3608.095 sec (=  60.135 min)
GTO integral calculation        ...        1.718 sec (=   0.029 min)   0.0 %
SCF iterations                  ...      226.986 sec (=   3.783 min)   6.3 %
MP2 module                      ...      171.640 sec (=   2.861 min)   4.8 %
CIS module                      ...     3207.752 sec (=  53.463 min)  88.9 %
                             ****ORCA TERMINATED NORMALLY****
TOTAL RUN TIME: 0 days 1 hours 0 minutes 10 seconds 947 msec
