 Entering Gaussian System, Link 0=g09
 Input=/home/png4rjv/fotokatalizis/benchmark/OPCs/Ph-Acr_1_PBE-D3_def2TZVP.gjf
 Output=/home/png4rjv/fotokatalizis/benchmark/OPCs/Ph-Acr_1_PBE-D3_def2TZVP.log
 Initial command:
 /opt/nce/packages/global/g09/l1.exe "/home/png4rjv/fotokatalizis/benchmark/OPCs/Ph-Acr_1_PBE-D3_def2TZVP/Gau-9506.inp" -scrdir="/home/png4rjv/fotokatalizis/benchmark/OPCs/Ph-Acr_1_PBE-D3_def2TZVP/"
 Default is to use a total of  12 processors:
                               12 via shared-memory
                                1 via Linda
 Entering Link 1 = /opt/nce/packages/global/g09/l1.exe PID=      9507.
  
 Copyright (c) 1988,1990,1992,1993,1995,1998,2003,2009,2015,
            Gaussian, Inc.  All Rights Reserved.
  
 This is part of the Gaussian(R) 09 program.  It is based on
 the Gaussian(R) 03 system (copyright 2003, Gaussian, Inc.),
 the Gaussian(R) 98 system (copyright 1998, Gaussian, Inc.),
 the Gaussian(R) 94 system (copyright 1995, Gaussian, Inc.),
 the Gaussian 92(TM) system (copyright 1992, Gaussian, Inc.),
 the Gaussian 90(TM) system (copyright 1990, Gaussian, Inc.),
 the Gaussian 88(TM) system (copyright 1988, Gaussian, Inc.),
 the Gaussian 86(TM) system (copyright 1986, Carnegie Mellon
 University), and the Gaussian 82(TM) system (copyright 1983,
 Carnegie Mellon University). Gaussian is a federally registered
 trademark of Gaussian, Inc.
  
 This software contains proprietary and confidential information,
 including trade secrets, belonging to Gaussian, Inc.
  
 This software is provided under written license and may be
 used, copied, transmitted, or stored only in accord with that
 written license.
  
 The following legend is applicable only to US Government
 contracts under FAR:
  
                    RESTRICTED RIGHTS LEGEND
  
 Use, reproduction and disclosure by the US Government is
 subject to restrictions as set forth in subparagraphs (a)
 and (c) of the Commercial Computer Software - Restricted
 Rights clause in FAR 52.227-19.
  
 Gaussian, Inc.
 340 Quinnipiac St., Bldg. 40, Wallingford CT 06492
  
  
 ---------------------------------------------------------------
 Warning -- This program may not be used in any manner that
 competes with the business of Gaussian, Inc. or will provide
 assistance to any competitor of Gaussian, Inc.  The licensee
 of this program is prohibited from giving any competitor of
 Gaussian, Inc. access to this program.  By using this program,
 the user acknowledges that Gaussian, Inc. is engaged in the
 business of creating and licensing software in the field of
 computational chemistry and represents and warrants to the
 licensee that it is not a competitor of Gaussian, Inc. and that
 it will not use this program in any manner prohibited above.
 ---------------------------------------------------------------
  

 Cite this work as:
 Gaussian 09, Revision E.01,
 M. J. Frisch, G. W. Trucks, H. B. Schlegel, G. E. Scuseria, 
 M. A. Robb, J. R. Cheeseman, G. Scalmani, V. Barone, B. Mennucci, 
 G. A. Petersson, H. Nakatsuji, M. Caricato, X. Li, H. P. Hratchian, 
 A. F. Izmaylov, J. Bloino, G. Zheng, J. L. Sonnenberg, M. Hada, 
 M. Ehara, K. Toyota, R. Fukuda, J. Hasegawa, M. Ishida, T. Nakajima, 
 Y. Honda, O. Kitao, H. Nakai, T. Vreven, J. A. Montgomery, Jr., 
 J. E. Peralta, F. Ogliaro, M. Bearpark, J. J. Heyd, E. Brothers, 
 K. N. Kudin, V. N. Staroverov, T. Keith, R. Kobayashi, J. Normand, 
 K. Raghavachari, A. Rendell, J. C. Burant, S. S. Iyengar, J. Tomasi, 
 M. Cossi, N. Rega, J. M. Millam, M. Klene, J. E. Knox, J. B. Cross, 
 V. Bakken, C. Adamo, J. Jaramillo, R. Gomperts, R. E. Stratmann, 
 O. Yazyev, A. J. Austin, R. Cammi, C. Pomelli, J. W. Ochterski, 
 R. L. Martin, K. Morokuma, V. G. Zakrzewski, G. A. Voth, 
 P. Salvador, J. J. Dannenberg, S. Dapprich, A. D. Daniels, 
 O. Farkas, J. B. Foresman, J. V. Ortiz, J. Cioslowski, 
 and D. J. Fox, Gaussian, Inc., Wallingford CT, 2013.
 
 ******************************************
 Gaussian 09:  ES64L-G09RevE.01 30-Nov-2015
                27-Mar-2021 
 ******************************************
 %chk=cp.chk
 Default route:  MaxDisk=500GB
 ----------------------------------------------------------------------
 #p PBEPBE/def2TZVP opt freq=noraman nosymm int=ultrafine scrf=(SMD,sol
 vent=Acetonitrile) EmpiricalDispersion=GD3BJ
 ----------------------------------------------------------------------
 1/14=-1,18=20,19=15,26=4,38=1/1,3;
 2/9=110,12=2,15=1,17=6,18=5,40=1/2;
 3/5=44,7=101,11=2,16=1,25=1,30=1,70=32201,71=1,72=2,74=1009,75=-5,124=41/1,2,3;
 4//1;
 5/5=2,38=5,53=2/2;
 6/7=2,8=2,9=2,10=2,28=1/1;
 7/30=1/1,2,3,16;
 1/14=-1,18=20,19=15,26=4/3(2);
 2/9=110,15=1/2;
 99//99;
 2/9=110,15=1/2;
 3/5=44,7=101,11=2,16=1,25=1,30=1,70=32205,71=1,72=2,74=1009,75=-5,124=41/1,2,3;
 4/5=5,16=3,69=1/1;
 5/5=2,38=5,53=2/2;
 7/30=1/1,2,3,16;
 1/14=-1,18=20,19=15,26=4/3(-5);
 2/9=110,15=1/2;
 6/7=2,8=2,9=2,10=2,19=2,28=1/1;
 99/9=1/99;
 Leave Link    1 at Sat Mar 27 13:36:20 2021, MaxMem=           0 cpu:         1.3
 (Enter /opt/nce/packages/global/g09/l101.exe)
 -----
 Title
 -----
 Symbolic Z-matrix:
 Charge =  1 Multiplicity = 1
 C                    -3.54604  -0.53922  -0.03539 
 C                    -2.92489   0.72938   0.01229 
 C                    -1.53212   0.85917   0.07309 
 C                    -0.69379  -0.30957   0.04648 
 C                    -1.34722  -1.58446   0.02511 
 C                    -2.70447  -1.70709  -0.0103 
 C                     0.70553  -0.19285   0.04332 
 C                     1.29649   1.10008   0.00314 
 C                     0.4427    2.25851   0.03773 
 C                     0.99955   3.54968  -0.06801 
 H                     0.37047   4.43382  -0.10401 
 C                     2.37186   3.70161  -0.17048 
 C                     3.24186   2.6047   -0.17278 
 C                     2.72567   1.31606  -0.09373 
 H                    -3.54371   1.61634  -0.02801 
 H                    -0.72682  -2.47932   0.0322 
 H                    -3.14465  -2.70135  -0.02628 
 H                     2.78753   4.70751  -0.26113 
 H                     4.31438   2.76837  -0.25136 
 N                    -0.92721   2.09577   0.16992 
 C                    -1.76673   3.27102   0.41457 
 H                    -1.19735   4.02208   0.96858 
 H                    -2.1346    3.70981  -0.52607 
 H                    -2.61839   2.98096   1.03828 
 C                     1.50304  -1.45393   0.06411 
 C                     1.78733  -2.12812  -1.13048 
 C                     1.93299  -1.98929   1.2849 
 C                     2.51344  -3.32057  -1.10363 
 C                     2.65608  -3.18345   1.30738 
 C                     2.95175  -3.84897   0.11402 
 H                     2.73499  -3.84042  -2.03837 
 H                     2.98826  -3.59686   2.26226 
 H                     1.44754  -1.71258  -2.08183 
 H                     1.70677  -1.46612   2.21668 
 H                     3.51749  -4.78292   0.13367 
 O                     3.48971   0.2257   -0.11203 
 C                     4.90185   0.32252  -0.21651 
 H                     5.1976    0.81485  -1.15725 
 H                     5.32648   0.8729    0.63878 
 H                     5.27182  -0.70935  -0.20944 
 N                    -4.89325  -0.66318  -0.10634 
 C                    -5.73709   0.52303  -0.11749 
 H                    -5.53367   1.1555   -0.99824 
 H                    -6.78927   0.22096  -0.15132 
 H                    -5.58532   1.13174   0.78973 
 C                    -5.52166  -1.97916  -0.17564 
 H                    -6.60688  -1.85284  -0.25322 
 H                    -5.18163  -2.54374  -1.05846 
 H                    -5.31236  -2.57753   0.72584 
 
 NAtoms=     49 NQM=       49 NQMF=       0 NMMI=      0 NMMIF=      0
                NMic=       0 NMicF=      0.
                    Isotopes and Nuclear Properties:
 (Nuclear quadrupole moments (NQMom) in fm**2, nuclear magnetic moments (NMagM)
  in nuclear magnetons)

  Atom         1           2           3           4           5           6           7           8           9          10
 IAtWgt=          12          12          12          12          12          12          12          12          12          12
 AtmWgt=  12.0000000  12.0000000  12.0000000  12.0000000  12.0000000  12.0000000  12.0000000  12.0000000  12.0000000  12.0000000
 NucSpn=           0           0           0           0           0           0           0           0           0           0
 AtZEff=   0.0000000   0.0000000   0.0000000   0.0000000   0.0000000   0.0000000   0.0000000   0.0000000   0.0000000   0.0000000
 NQMom=    0.0000000   0.0000000   0.0000000   0.0000000   0.0000000   0.0000000   0.0000000   0.0000000   0.0000000   0.0000000
 NMagM=    0.0000000   0.0000000   0.0000000   0.0000000   0.0000000   0.0000000   0.0000000   0.0000000   0.0000000   0.0000000
 AtZNuc=   6.0000000   6.0000000   6.0000000   6.0000000   6.0000000   6.0000000   6.0000000   6.0000000   6.0000000   6.0000000

  Atom        11          12          13          14          15          16          17          18          19          20
 IAtWgt=           1          12          12          12           1           1           1           1           1          14
 AtmWgt=   1.0078250  12.0000000  12.0000000  12.0000000   1.0078250   1.0078250   1.0078250   1.0078250   1.0078250  14.0030740
 NucSpn=           1           0           0           0           1           1           1           1           1           2
 AtZEff=   0.0000000   0.0000000   0.0000000   0.0000000   0.0000000   0.0000000   0.0000000   0.0000000   0.0000000   0.0000000
 NQMom=    0.0000000   0.0000000   0.0000000   0.0000000   0.0000000   0.0000000   0.0000000   0.0000000   0.0000000   2.0440000
 NMagM=    2.7928460   0.0000000   0.0000000   0.0000000   2.7928460   2.7928460   2.7928460   2.7928460   2.7928460   0.4037610
 AtZNuc=   1.0000000   6.0000000   6.0000000   6.0000000   1.0000000   1.0000000   1.0000000   1.0000000   1.0000000   7.0000000

  Atom        21          22          23          24          25          26          27          28          29          30
 IAtWgt=          12           1           1           1          12          12          12          12          12          12
 AtmWgt=  12.0000000   1.0078250   1.0078250   1.0078250  12.0000000  12.0000000  12.0000000  12.0000000  12.0000000  12.0000000
 NucSpn=           0           1           1           1           0           0           0           0           0           0
 AtZEff=   0.0000000   0.0000000   0.0000000   0.0000000   0.0000000   0.0000000   0.0000000   0.0000000   0.0000000   0.0000000
 NQMom=    0.0000000   0.0000000   0.0000000   0.0000000   0.0000000   0.0000000   0.0000000   0.0000000   0.0000000   0.0000000
 NMagM=    0.0000000   2.7928460   2.7928460   2.7928460   0.0000000   0.0000000   0.0000000   0.0000000   0.0000000   0.0000000
 AtZNuc=   6.0000000   1.0000000   1.0000000   1.0000000   6.0000000   6.0000000   6.0000000   6.0000000   6.0000000   6.0000000

  Atom        31          32          33          34          35          36          37          38          39          40
 IAtWgt=           1           1           1           1           1          16          12           1           1           1
 AtmWgt=   1.0078250   1.0078250   1.0078250   1.0078250   1.0078250  15.9949146  12.0000000   1.0078250   1.0078250   1.0078250
 NucSpn=           1           1           1           1           1           0           0           1           1           1
 AtZEff=   0.0000000   0.0000000   0.0000000   0.0000000   0.0000000   0.0000000   0.0000000   0.0000000   0.0000000   0.0000000
 NQMom=    0.0000000   0.0000000   0.0000000   0.0000000   0.0000000   0.0000000   0.0000000   0.0000000   0.0000000   0.0000000
 NMagM=    2.7928460   2.7928460   2.7928460   2.7928460   2.7928460   0.0000000   0.0000000   2.7928460   2.7928460   2.7928460
 AtZNuc=   1.0000000   1.0000000   1.0000000   1.0000000   1.0000000   8.0000000   6.0000000   1.0000000   1.0000000   1.0000000

  Atom        41          42          43          44          45          46          47          48          49
 IAtWgt=          14          12           1           1           1          12           1           1           1
 AtmWgt=  14.0030740  12.0000000   1.0078250   1.0078250   1.0078250  12.0000000   1.0078250   1.0078250   1.0078250
 NucSpn=           2           0           1           1           1           0           1           1           1
 AtZEff=   0.0000000   0.0000000   0.0000000   0.0000000   0.0000000   0.0000000   0.0000000   0.0000000   0.0000000
 NQMom=    2.0440000   0.0000000   0.0000000   0.0000000   0.0000000   0.0000000   0.0000000   0.0000000   0.0000000
 NMagM=    0.4037610   0.0000000   2.7928460   2.7928460   2.7928460   0.0000000   2.7928460   2.7928460   2.7928460
 AtZNuc=   7.0000000   6.0000000   1.0000000   1.0000000   1.0000000   6.0000000   1.0000000   1.0000000   1.0000000
 Leave Link  101 at Sat Mar 27 13:36:20 2021, MaxMem=  5242880000 cpu:         4.7
 (Enter /opt/nce/packages/global/g09/l103.exe)

 GradGradGradGradGradGradGradGradGradGradGradGradGradGradGradGradGradGrad
 Berny optimization.
 Initialization pass.
                           ----------------------------
                           !    Initial Parameters    !
                           ! (Angstroms and Degrees)  !
 --------------------------                            --------------------------
 ! Name  Definition              Value          Derivative Info.                !
 --------------------------------------------------------------------------------
 ! R1    R(1,2)                  1.4133         estimate D2E/DX2                !
 ! R2    R(1,6)                  1.4397         estimate D2E/DX2                !
 ! R3    R(1,41)                 1.3548         estimate D2E/DX2                !
 ! R4    R(2,3)                  1.4001         estimate D2E/DX2                !
 ! R5    R(2,15)                 1.0822         estimate D2E/DX2                !
 ! R6    R(3,4)                  1.4386         estimate D2E/DX2                !
 ! R7    R(3,20)                 1.38           estimate D2E/DX2                !
 ! R8    R(4,5)                  1.4327         estimate D2E/DX2                !
 ! R9    R(4,7)                  1.4042         estimate D2E/DX2                !
 ! R10   R(5,6)                  1.3632         estimate D2E/DX2                !
 ! R11   R(5,16)                 1.0889         estimate D2E/DX2                !
 ! R12   R(6,17)                 1.0875         estimate D2E/DX2                !
 ! R13   R(7,8)                  1.4221         estimate D2E/DX2                !
 ! R14   R(7,25)                 1.4922         estimate D2E/DX2                !
 ! R15   R(8,9)                  1.4395         estimate D2E/DX2                !
 ! R16   R(8,14)                 1.4486         estimate D2E/DX2                !
 ! R17   R(9,10)                 1.4101         estimate D2E/DX2                !
 ! R18   R(9,20)                 1.3859         estimate D2E/DX2                !
 ! R19   R(10,11)                1.0857         estimate D2E/DX2                !
 ! R20   R(10,12)                1.3845         estimate D2E/DX2                !
 ! R21   R(12,13)                1.4            estimate D2E/DX2                !
 ! R22   R(12,18)                1.0922         estimate D2E/DX2                !
 ! R23   R(13,14)                1.3904         estimate D2E/DX2                !
 ! R24   R(13,19)                1.0878         estimate D2E/DX2                !
 ! R25   R(14,36)                1.3315         estimate D2E/DX2                !
 ! R26   R(20,21)                1.4649         estimate D2E/DX2                !
 ! R27   R(21,22)                1.0933         estimate D2E/DX2                !
 ! R28   R(21,23)                1.1012         estimate D2E/DX2                !
 ! R29   R(21,24)                1.0947         estimate D2E/DX2                !
 ! R30   R(25,26)                1.4009         estimate D2E/DX2                !
 ! R31   R(25,27)                1.4006         estimate D2E/DX2                !
 ! R32   R(26,28)                1.3964         estimate D2E/DX2                !
 ! R33   R(26,33)                1.0923         estimate D2E/DX2                !
 ! R34   R(27,29)                1.3962         estimate D2E/DX2                !
 ! R35   R(27,34)                1.0923         estimate D2E/DX2                !
 ! R36   R(28,30)                1.3978         estimate D2E/DX2                !
 ! R37   R(28,31)                1.0923         estimate D2E/DX2                !
 ! R38   R(29,30)                1.398          estimate D2E/DX2                !
 ! R39   R(29,32)                1.0923         estimate D2E/DX2                !
 ! R40   R(30,35)                1.0921         estimate D2E/DX2                !
 ! R41   R(36,37)                1.4193         estimate D2E/DX2                !
 ! R42   R(37,38)                1.1022         estimate D2E/DX2                !
 ! R43   R(37,39)                1.1022         estimate D2E/DX2                !
 ! R44   R(37,40)                1.0962         estimate D2E/DX2                !
 ! R45   R(41,42)                1.4558         estimate D2E/DX2                !
 ! R46   R(41,46)                1.46           estimate D2E/DX2                !
 ! R47   R(42,43)                1.1032         estimate D2E/DX2                !
 ! R48   R(42,44)                1.0952         estimate D2E/DX2                !
 ! R49   R(42,45)                1.103          estimate D2E/DX2                !
 ! R50   R(46,47)                1.0953         estimate D2E/DX2                !
 ! R51   R(46,48)                1.1017         estimate D2E/DX2                !
 ! R52   R(46,49)                1.1021         estimate D2E/DX2                !
 ! A1    A(2,1,6)              118.0753         estimate D2E/DX2                !
 ! A2    A(2,1,41)             121.3956         estimate D2E/DX2                !
 ! A3    A(6,1,41)             120.5289         estimate D2E/DX2                !
 ! A4    A(1,2,3)              121.457          estimate D2E/DX2                !
 ! A5    A(1,2,15)             118.8869         estimate D2E/DX2                !
 ! A6    A(3,2,15)             119.6325         estimate D2E/DX2                !
 ! A7    A(2,3,4)              120.2374         estimate D2E/DX2                !
 ! A8    A(2,3,20)             121.4759         estimate D2E/DX2                !
 ! A9    A(4,3,20)             118.2848         estimate D2E/DX2                !
 ! A10   A(3,4,5)              117.2208         estimate D2E/DX2                !
 ! A11   A(3,4,7)              120.8807         estimate D2E/DX2                !
 ! A12   A(5,4,7)              121.8985         estimate D2E/DX2                !
 ! A13   A(4,5,6)              122.3097         estimate D2E/DX2                !
 ! A14   A(4,5,16)             118.1196         estimate D2E/DX2                !
 ! A15   A(6,5,16)             119.5698         estimate D2E/DX2                !
 ! A16   A(1,6,5)              120.6273         estimate D2E/DX2                !
 ! A17   A(1,6,17)             120.3179         estimate D2E/DX2                !
 ! A18   A(5,6,17)             119.0534         estimate D2E/DX2                !
 ! A19   A(4,7,8)              119.3228         estimate D2E/DX2                !
 ! A20   A(4,7,25)             117.5363         estimate D2E/DX2                !
 ! A21   A(8,7,25)             123.1355         estimate D2E/DX2                !
 ! A22   A(7,8,9)              118.9788         estimate D2E/DX2                !
 ! A23   A(7,8,14)             123.1878         estimate D2E/DX2                !
 ! A24   A(9,8,14)             117.8253         estimate D2E/DX2                !
 ! A25   A(8,9,10)             120.0563         estimate D2E/DX2                !
 ! A26   A(8,9,20)             119.6093         estimate D2E/DX2                !
 ! A27   A(10,9,20)            120.334          estimate D2E/DX2                !
 ! A28   A(9,10,11)            121.2878         estimate D2E/DX2                !
 ! A29   A(9,10,12)            119.8321         estimate D2E/DX2                !
 ! A30   A(11,10,12)           118.8492         estimate D2E/DX2                !
 ! A31   A(10,12,13)           122.0113         estimate D2E/DX2                !
 ! A32   A(10,12,18)           118.9768         estimate D2E/DX2                !
 ! A33   A(13,12,18)           119.0096         estimate D2E/DX2                !
 ! A34   A(12,13,14)           119.6918         estimate D2E/DX2                !
 ! A35   A(12,13,19)           119.6648         estimate D2E/DX2                !
 ! A36   A(14,13,19)           120.637          estimate D2E/DX2                !
 ! A37   A(8,14,13)            120.5464         estimate D2E/DX2                !
 ! A38   A(8,14,36)            116.4189         estimate D2E/DX2                !
 ! A39   A(13,14,36)           123.0327         estimate D2E/DX2                !
 ! A40   A(3,20,9)             122.1288         estimate D2E/DX2                !
 ! A41   A(3,20,21)            118.6471         estimate D2E/DX2                !
 ! A42   A(9,20,21)            119.2235         estimate D2E/DX2                !
 ! A43   A(20,21,22)           109.7144         estimate D2E/DX2                !
 ! A44   A(20,21,23)           111.6211         estimate D2E/DX2                !
 ! A45   A(20,21,24)           109.1735         estimate D2E/DX2                !
 ! A46   A(22,21,23)           109.4567         estimate D2E/DX2                !
 ! A47   A(22,21,24)           107.3663         estimate D2E/DX2                !
 ! A48   A(23,21,24)           109.4109         estimate D2E/DX2                !
 ! A49   A(7,25,26)            120.218          estimate D2E/DX2                !
 ! A50   A(7,25,27)            119.9484         estimate D2E/DX2                !
 ! A51   A(26,25,27)           119.8022         estimate D2E/DX2                !
 ! A52   A(25,26,28)           120.0074         estimate D2E/DX2                !
 ! A53   A(25,26,33)           119.7678         estimate D2E/DX2                !
 ! A54   A(28,26,33)           120.2221         estimate D2E/DX2                !
 ! A55   A(25,27,29)           119.995          estimate D2E/DX2                !
 ! A56   A(25,27,34)           119.7929         estimate D2E/DX2                !
 ! A57   A(29,27,34)           120.2107         estimate D2E/DX2                !
 ! A58   A(26,28,30)           120.1724         estimate D2E/DX2                !
 ! A59   A(26,28,31)           119.6986         estimate D2E/DX2                !
 ! A60   A(30,28,31)           120.1288         estimate D2E/DX2                !
 ! A61   A(27,29,30)           120.1955         estimate D2E/DX2                !
 ! A62   A(27,29,32)           119.6892         estimate D2E/DX2                !
 ! A63   A(30,29,32)           120.1152         estimate D2E/DX2                !
 ! A64   A(28,30,29)           119.8212         estimate D2E/DX2                !
 ! A65   A(28,30,35)           120.0907         estimate D2E/DX2                !
 ! A66   A(29,30,35)           120.0866         estimate D2E/DX2                !
 ! A67   A(14,36,37)           121.0685         estimate D2E/DX2                !
 ! A68   A(36,37,38)           111.1173         estimate D2E/DX2                !
 ! A69   A(36,37,39)           111.1167         estimate D2E/DX2                !
 ! A70   A(36,37,40)           105.7301         estimate D2E/DX2                !
 ! A71   A(38,37,39)           109.6272         estimate D2E/DX2                !
 ! A72   A(38,37,40)           109.597          estimate D2E/DX2                !
 ! A73   A(39,37,40)           109.5738         estimate D2E/DX2                !
 ! A74   A(1,41,42)            120.1502         estimate D2E/DX2                !
 ! A75   A(1,41,46)            120.8632         estimate D2E/DX2                !
 ! A76   A(42,41,46)           118.9865         estimate D2E/DX2                !
 ! A77   A(41,42,43)           111.4915         estimate D2E/DX2                !
 ! A78   A(41,42,44)           109.413          estimate D2E/DX2                !
 ! A79   A(41,42,45)           111.323          estimate D2E/DX2                !
 ! A80   A(43,42,44)           108.0954         estimate D2E/DX2                !
 ! A81   A(43,42,45)           108.3538         estimate D2E/DX2                !
 ! A82   A(44,42,45)           108.0479         estimate D2E/DX2                !
 ! A83   A(41,46,47)           109.0183         estimate D2E/DX2                !
 ! A84   A(41,46,48)           111.5373         estimate D2E/DX2                !
 ! A85   A(41,46,49)           111.6432         estimate D2E/DX2                !
 ! A86   A(47,46,48)           107.9484         estimate D2E/DX2                !
 ! A87   A(47,46,49)           107.9822         estimate D2E/DX2                !
 ! A88   A(48,46,49)           108.5802         estimate D2E/DX2                !
 ! D1    D(6,1,2,3)              0.4296         estimate D2E/DX2                !
 ! D2    D(6,1,2,15)           178.6574         estimate D2E/DX2                !
 ! D3    D(41,1,2,3)          -179.398          estimate D2E/DX2                !
 ! D4    D(41,1,2,15)           -1.1703         estimate D2E/DX2                !
 ! D5    D(2,1,6,5)             -1.5866         estimate D2E/DX2                !
 ! D6    D(2,1,6,17)           178.8349         estimate D2E/DX2                !
 ! D7    D(41,1,6,5)           178.2426         estimate D2E/DX2                !
 ! D8    D(41,1,6,17)           -1.3359         estimate D2E/DX2                !
 ! D9    D(2,1,41,42)           -0.8029         estimate D2E/DX2                !
 ! D10   D(2,1,41,46)          179.0565         estimate D2E/DX2                !
 ! D11   D(6,1,41,42)          179.3736         estimate D2E/DX2                !
 ! D12   D(6,1,41,46)           -0.767          estimate D2E/DX2                !
 ! D13   D(1,2,3,4)              1.9356         estimate D2E/DX2                !
 ! D14   D(1,2,3,20)          -177.5495         estimate D2E/DX2                !
 ! D15   D(15,2,3,4)          -176.2792         estimate D2E/DX2                !
 ! D16   D(15,2,3,20)            4.2358         estimate D2E/DX2                !
 ! D17   D(2,3,4,5)             -3.0847         estimate D2E/DX2                !
 ! D18   D(2,3,4,7)            176.9834         estimate D2E/DX2                !
 ! D19   D(20,3,4,5)           176.4166         estimate D2E/DX2                !
 ! D20   D(20,3,4,7)            -3.5153         estimate D2E/DX2                !
 ! D21   D(2,3,20,9)          -170.5053         estimate D2E/DX2                !
 ! D22   D(2,3,20,21)            9.2205         estimate D2E/DX2                !
 ! D23   D(4,3,20,9)             9.9999         estimate D2E/DX2                !
 ! D24   D(4,3,20,21)         -170.2743         estimate D2E/DX2                !
 ! D25   D(3,4,5,6)              1.9734         estimate D2E/DX2                !
 ! D26   D(3,4,5,16)          -178.3678         estimate D2E/DX2                !
 ! D27   D(7,4,5,6)           -178.0955         estimate D2E/DX2                !
 ! D28   D(7,4,5,16)             1.5634         estimate D2E/DX2                !
 ! D29   D(3,4,7,8)             -2.942          estimate D2E/DX2                !
 ! D30   D(3,4,7,25)           177.8743         estimate D2E/DX2                !
 ! D31   D(5,4,7,8)            177.1293         estimate D2E/DX2                !
 ! D32   D(5,4,7,25)            -2.0544         estimate D2E/DX2                !
 ! D33   D(4,5,6,1)              0.3493         estimate D2E/DX2                !
 ! D34   D(4,5,6,17)           179.9331         estimate D2E/DX2                !
 ! D35   D(16,5,6,1)          -179.3047         estimate D2E/DX2                !
 ! D36   D(16,5,6,17)            0.279          estimate D2E/DX2                !
 ! D37   D(4,7,8,9)              3.2331         estimate D2E/DX2                !
 ! D38   D(4,7,8,14)          -175.7151         estimate D2E/DX2                !
 ! D39   D(25,7,8,9)          -177.6312         estimate D2E/DX2                !
 ! D40   D(25,7,8,14)            3.4206         estimate D2E/DX2                !
 ! D41   D(4,7,25,26)           84.8693         estimate D2E/DX2                !
 ! D42   D(4,7,25,27)          -93.0871         estimate D2E/DX2                !
 ! D43   D(8,7,25,26)          -94.2809         estimate D2E/DX2                !
 ! D44   D(8,7,25,27)           87.7628         estimate D2E/DX2                !
 ! D45   D(7,8,9,10)          -176.8425         estimate D2E/DX2                !
 ! D46   D(7,8,9,20)             2.8997         estimate D2E/DX2                !
 ! D47   D(14,8,9,10)            2.1622         estimate D2E/DX2                !
 ! D48   D(14,8,9,20)         -178.0956         estimate D2E/DX2                !
 ! D49   D(7,8,14,13)          177.9018         estimate D2E/DX2                !
 ! D50   D(7,8,14,36)           -1.6002         estimate D2E/DX2                !
 ! D51   D(9,8,14,13)           -1.0578         estimate D2E/DX2                !
 ! D52   D(9,8,14,36)          179.4402         estimate D2E/DX2                !
 ! D53   D(8,9,10,11)          176.2969         estimate D2E/DX2                !
 ! D54   D(8,9,10,12)           -1.6587         estimate D2E/DX2                !
 ! D55   D(20,9,10,11)          -3.4434         estimate D2E/DX2                !
 ! D56   D(20,9,10,12)         178.601          estimate D2E/DX2                !
 ! D57   D(8,9,20,3)            -9.7748         estimate D2E/DX2                !
 ! D58   D(8,9,20,21)          170.5009         estimate D2E/DX2                !
 ! D59   D(10,9,20,3)          169.9666         estimate D2E/DX2                !
 ! D60   D(10,9,20,21)          -9.7577         estimate D2E/DX2                !
 ! D61   D(9,10,12,13)          -0.0201         estimate D2E/DX2                !
 ! D62   D(9,10,12,18)         179.4308         estimate D2E/DX2                !
 ! D63   D(11,10,12,13)       -178.0255         estimate D2E/DX2                !
 ! D64   D(11,10,12,18)          1.4255         estimate D2E/DX2                !
 ! D65   D(10,12,13,14)          1.143          estimate D2E/DX2                !
 ! D66   D(10,12,13,19)       -179.7661         estimate D2E/DX2                !
 ! D67   D(18,12,13,14)       -178.3077         estimate D2E/DX2                !
 ! D68   D(18,12,13,19)          0.7831         estimate D2E/DX2                !
 ! D69   D(12,13,14,8)          -0.5627         estimate D2E/DX2                !
 ! D70   D(12,13,14,36)        178.9053         estimate D2E/DX2                !
 ! D71   D(19,13,14,8)        -179.6446         estimate D2E/DX2                !
 ! D72   D(19,13,14,36)         -0.1765         estimate D2E/DX2                !
 ! D73   D(8,14,36,37)         179.4358         estimate D2E/DX2                !
 ! D74   D(13,14,36,37)         -0.0526         estimate D2E/DX2                !
 ! D75   D(3,20,21,22)         150.3143         estimate D2E/DX2                !
 ! D76   D(3,20,21,23)         -88.1762         estimate D2E/DX2                !
 ! D77   D(3,20,21,24)          32.9088         estimate D2E/DX2                !
 ! D78   D(9,20,21,22)         -29.9518         estimate D2E/DX2                !
 ! D79   D(9,20,21,23)          91.5578         estimate D2E/DX2                !
 ! D80   D(9,20,21,24)        -147.3573         estimate D2E/DX2                !
 ! D81   D(7,25,26,28)        -178.8496         estimate D2E/DX2                !
 ! D82   D(7,25,26,33)           1.7439         estimate D2E/DX2                !
 ! D83   D(27,25,26,28)         -0.8903         estimate D2E/DX2                !
 ! D84   D(27,25,26,33)        179.7033         estimate D2E/DX2                !
 ! D85   D(7,25,27,29)         178.7083         estimate D2E/DX2                !
 ! D86   D(7,25,27,34)          -1.7209         estimate D2E/DX2                !
 ! D87   D(26,25,27,29)          0.7434         estimate D2E/DX2                !
 ! D88   D(26,25,27,34)       -179.6858         estimate D2E/DX2                !
 ! D89   D(25,26,28,30)          0.374          estimate D2E/DX2                !
 ! D90   D(25,26,28,31)       -179.8066         estimate D2E/DX2                !
 ! D91   D(33,26,28,30)        179.7777         estimate D2E/DX2                !
 ! D92   D(33,26,28,31)         -0.4029         estimate D2E/DX2                !
 ! D93   D(25,27,29,30)         -0.0799         estimate D2E/DX2                !
 ! D94   D(25,27,29,32)       -179.9537         estimate D2E/DX2                !
 ! D95   D(34,27,29,30)       -179.6488         estimate D2E/DX2                !
 ! D96   D(34,27,29,32)          0.4773         estimate D2E/DX2                !
 ! D97   D(26,28,30,29)          0.2907         estimate D2E/DX2                !
 ! D98   D(26,28,30,35)        179.8535         estimate D2E/DX2                !
 ! D99   D(31,28,30,29)       -179.5279         estimate D2E/DX2                !
 ! D100  D(31,28,30,35)          0.0349         estimate D2E/DX2                !
 ! D101  D(27,29,30,28)         -0.4381         estimate D2E/DX2                !
 ! D102  D(27,29,30,35)        179.9992         estimate D2E/DX2                !
 ! D103  D(32,29,30,28)        179.4352         estimate D2E/DX2                !
 ! D104  D(32,29,30,35)         -0.1275         estimate D2E/DX2                !
 ! D105  D(14,36,37,38)        -61.113          estimate D2E/DX2                !
 ! D106  D(14,36,37,39)         61.2416         estimate D2E/DX2                !
 ! D107  D(14,36,37,40)       -179.9497         estimate D2E/DX2                !
 ! D108  D(1,41,42,43)          61.977          estimate D2E/DX2                !
 ! D109  D(1,41,42,44)        -178.5056         estimate D2E/DX2                !
 ! D110  D(1,41,42,45)         -59.1527         estimate D2E/DX2                !
 ! D111  D(46,41,42,43)       -117.8851         estimate D2E/DX2                !
 ! D112  D(46,41,42,44)          1.6324         estimate D2E/DX2                !
 ! D113  D(46,41,42,45)        120.9853         estimate D2E/DX2                !
 ! D114  D(1,41,46,47)        -178.5119         estimate D2E/DX2                !
 ! D115  D(1,41,46,48)         -59.4041         estimate D2E/DX2                !
 ! D116  D(1,41,46,49)          62.2732         estimate D2E/DX2                !
 ! D117  D(42,41,46,47)          1.3492         estimate D2E/DX2                !
 ! D118  D(42,41,46,48)        120.457          estimate D2E/DX2                !
 ! D119  D(42,41,46,49)       -117.8658         estimate D2E/DX2                !
 --------------------------------------------------------------------------------
 Trust Radius=3.00D-01 FncErr=1.00D-07 GrdErr=1.00D-06
 Number of steps in this run=    269 maximum allowed number of steps=    294.
 GradGradGradGradGradGradGradGradGradGradGradGradGradGradGradGradGradGrad

 Leave Link  103 at Sat Mar 27 13:36:20 2021, MaxMem=  5242880000 cpu:         0.2
 (Enter /opt/nce/packages/global/g09/l202.exe)
                          Input orientation:                          
 ---------------------------------------------------------------------
 Center     Atomic      Atomic             Coordinates (Angstroms)
 Number     Number       Type             X           Y           Z
 ---------------------------------------------------------------------
      1          6           0       -3.546038   -0.539222   -0.035394
      2          6           0       -2.924890    0.729381    0.012289
      3          6           0       -1.532119    0.859167    0.073085
      4          6           0       -0.693790   -0.309567    0.046475
      5          6           0       -1.347220   -1.584457    0.025113
      6          6           0       -2.704472   -1.707088   -0.010297
      7          6           0        0.705534   -0.192852    0.043315
      8          6           0        1.296492    1.100077    0.003144
      9          6           0        0.442696    2.258512    0.037728
     10          6           0        0.999551    3.549684   -0.068005
     11          1           0        0.370473    4.433820   -0.104013
     12          6           0        2.371857    3.701614   -0.170483
     13          6           0        3.241862    2.604700   -0.172777
     14          6           0        2.725665    1.316055   -0.093731
     15          1           0       -3.543709    1.616340   -0.028011
     16          1           0       -0.726819   -2.479323    0.032204
     17          1           0       -3.144649   -2.701350   -0.026279
     18          1           0        2.787528    4.707514   -0.261131
     19          1           0        4.314384    2.768374   -0.251356
     20          7           0       -0.927207    2.095766    0.169916
     21          6           0       -1.766727    3.271016    0.414573
     22          1           0       -1.197352    4.022085    0.968577
     23          1           0       -2.134599    3.709805   -0.526067
     24          1           0       -2.618388    2.980960    1.038277
     25          6           0        1.503038   -1.453928    0.064113
     26          6           0        1.787329   -2.128117   -1.130477
     27          6           0        1.932987   -1.989290    1.284899
     28          6           0        2.513441   -3.320571   -1.103626
     29          6           0        2.656081   -3.183445    1.307376
     30          6           0        2.951752   -3.848973    0.114017
     31          1           0        2.734988   -3.840420   -2.038372
     32          1           0        2.988260   -3.596860    2.262260
     33          1           0        1.447536   -1.712579   -2.081832
     34          1           0        1.706774   -1.466116    2.216680
     35          1           0        3.517485   -4.782923    0.133666
     36          8           0        3.489713    0.225696   -0.112031
     37          6           0        4.901848    0.322518   -0.216512
     38          1           0        5.197602    0.814848   -1.157249
     39          1           0        5.326481    0.872895    0.638777
     40          1           0        5.271817   -0.709349   -0.209444
     41          7           0       -4.893245   -0.663178   -0.106336
     42          6           0       -5.737089    0.523030   -0.117485
     43          1           0       -5.533670    1.155498   -0.998244
     44          1           0       -6.789265    0.220957   -0.151315
     45          1           0       -5.585322    1.131742    0.789725
     46          6           0       -5.521661   -1.979163   -0.175644
     47          1           0       -6.606879   -1.852837   -0.253216
     48          1           0       -5.181625   -2.543736   -1.058459
     49          1           0       -5.312365   -2.577525    0.725843
 ---------------------------------------------------------------------
                    Distance matrix (angstroms):
                    1          2          3          4          5
     1  C    0.000000
     2  C    1.413312   0.000000
     3  C    2.454206   1.400126   0.000000
     4  C    2.862650   2.461379   1.438556   0.000000
     5  C    2.435360   2.800545   2.451079   1.432750   0.000000
     6  C    1.439713   2.446523   2.822593   2.449312   1.363241
     7  C    4.266384   3.745858   2.472796   1.404187   2.480059
     8  C    5.112620   4.237637   2.839713   2.439302   3.767814
     9  C    4.872644   3.698584   2.420601   2.808328   4.239383
    10  C    6.114131   4.833404   3.697045   4.215961   5.645831
    11  H    6.330475   4.959416   4.053315   4.863643   6.259936
    12  C    7.281787   6.076438   4.835272   5.053201   6.466246
    13  C    7.481892   6.448248   5.089030   4.902079   6.216741
    14  C    6.540620   5.681919   4.285475   3.788796   5.001548
    15  H    2.155576   1.082246   2.151749   3.440451   3.882330
    16  H    3.422946   3.889434   3.434486   2.170054   1.088914
    17  H    2.199089   3.437979   3.909911   3.425293   2.116800
    18  H    8.227591   6.966493   5.794896   6.114352   7.534386
    19  H    8.530713   7.525562   6.158890   5.885935   7.146841
    20  N    3.720697   2.425405   1.380026   2.419783   3.706942
    21  C    4.229224   2.821893   2.447176   3.755964   4.889098
    22  H    5.227792   3.839372   3.304244   4.457248   5.687345
    23  H    4.504126   3.130066   2.974576   4.308026   5.380797
    24  H    3.795390   2.493231   2.571688   3.938949   4.846174
    25  C    5.132227   4.937213   3.816106   2.477080   2.853512
    26  C    5.671737   5.628163   4.625058   3.293674   3.384723
    27  C    5.819415   5.710488   4.646414   3.354865   3.537048
    28  C    6.752356   6.871886   5.934763   4.547000   4.380964
    29  C    6.874680   6.937917   5.950395   4.590281   4.497486
    30  C    7.293699   7.450275   6.501796   5.081529   4.859742
    31  H    7.372999   7.557944   6.689736   5.345094   5.100173
    32  H    7.571355   7.664468   6.714350   5.410498   5.277403
    33  H    5.522722   5.428317   4.487303   3.329176   3.502327
    34  H    5.789905   5.579593   4.526850   3.436583   3.760831
    35  H    8.242023   8.479648   7.572011   6.144376   5.823000
    36  O    7.077624   6.435549   5.065012   4.220584   5.166370
    37  C    8.493655   7.840645   6.462800   5.637363   6.538026
    38  H    8.918705   8.206705   6.841406   6.117333   7.070314
    39  H    9.009449   8.276364   6.881903   6.163822   7.138168
    40  H    8.821213   8.324969   6.988105   5.984462   6.680755
    41  N    1.354756   2.414066   3.694170   4.217086   3.666105
    42  C    2.436354   2.822744   4.222686   5.114193   4.871631
    43  H    2.783853   2.829927   4.153067   5.163554   5.106954
    44  H    3.333141   3.901110   5.300495   6.121715   5.736419
    45  H    2.762539   2.800750   4.125085   5.153337   5.091550
    46  C    2.448711   3.756960   4.902492   5.113240   4.197863
    47  H    3.337930   4.505040   5.763213   6.118506   5.273851
    48  H    2.782065   4.117359   5.116545   5.133522   4.098415
    49  H    2.802512   4.140631   5.150457   5.190030   4.147238
                    6          7          8          9         10
     6  C    0.000000
     7  C    3.731478   0.000000
     8  C    4.887542   1.422150   0.000000
     9  C    5.062900   2.465421   1.439491   0.000000
    10  C    6.430923   3.755717   2.468564   1.410104   0.000000
    11  H    6.868393   4.641128   3.461623   2.181117   1.085694
    12  C    7.419490   4.241369   2.820381   2.418172   1.384488
    13  C    7.346891   3.782321   2.465624   2.828337   2.435555
    14  C    6.215524   2.525175   1.448643   2.473349   2.822982
    15  H    3.427799   4.618910   4.867756   4.038333   4.937675
    16  H    2.123503   2.698093   4.111780   4.880049   6.272107
    17  H    1.087459   4.595793   5.845977   6.121550   7.500104
    18  H    8.448201   5.333008   3.912369   3.403699   2.138862
    19  H    8.327797   4.677552   3.457695   3.915801   3.410598
    20  N    4.201529   2.814186   2.442140   1.385855   2.425465
    21  C    5.083444   4.271802   3.776978   2.459416   2.821849
    22  H    6.004417   4.716225   3.960991   2.581942   2.474681
    23  H    5.471152   4.860173   4.343170   3.011074   3.171491
    24  H    4.804655   4.702286   4.464920   3.300495   3.825806
    25  C    4.215776   1.492233   2.563068   3.860988   5.030615
    26  C    4.648478   2.508649   3.456480   4.734475   5.829825
    27  C    4.823194   2.505067   3.404734   4.671212   5.777706
    28  C    5.570037   3.790333   4.716782   6.059442   7.110891
    29  C    5.714142   3.787629   4.679537   6.010489   7.069002
    30  C    6.049462   4.291587   5.219701   6.603223   7.654041
    31  H    6.184814   4.664425   5.535844   6.838257   7.842686
    32  H    6.414277   4.660668   5.479681   6.761200   7.775486
    33  H    4.640092   2.715950   3.504422   4.612136   5.652221
    34  H    4.947382   2.710572   3.413711   4.496507   5.556816
    35  H    6.942207   5.383678   6.289637   7.684096   8.707066
    36  O    6.489525   2.819746   2.363901   3.665935   4.153522
    37  C    7.875146   4.235820   3.694785   4.867930   5.066022
    38  H    8.373675   4.757677   4.080016   5.110897   5.127320
    39  H    8.460131   4.779492   4.086129   5.112001   5.136834
    40  H    8.040916   4.602347   4.372920   5.673597   6.034204
    41  N    2.426870   5.620492   6.436917   6.085170   7.243944
    42  C    3.765857   6.484268   7.058243   6.420727   7.385486
    43  H    4.144249   6.467655   6.903402   6.164968   7.020003
    44  H    4.519157   7.508737   8.134874   7.515892   8.470715
    45  H    4.122898   6.471982   6.926693   6.178358   7.067015
    46  C    2.835122   6.482037   7.483375   7.319629   8.550201
    47  H    3.912676   7.504323   8.440894   8.166048   9.331630
    48  H    2.816897   6.434221   7.508021   7.476376   8.736000
    49  H    2.846167   6.509041   7.597634   7.548608   8.832506
                   11         12         13         14         15
    11  H    0.000000
    12  C    2.132154   0.000000
    13  C    3.405185   1.400048   0.000000
    14  C    3.907364   2.412874   1.390436   0.000000
    15  H    4.823359   6.273961   6.858702   6.276905   0.000000
    16  H    7.001011   6.917142   6.452886   5.132290   4.971212
    17  H    7.954419   8.452845   8.304406   7.113697   4.336093
    18  H    2.437570   1.092170   2.153149   3.396151   7.049416
    19  H    4.283673   2.156592   1.087781   2.158264   7.945231
    20  N    2.688030   3.684894   4.213975   3.744454   2.667416
    21  C    2.487703   4.201855   5.086740   4.925630   2.468096
    22  H    1.943721   3.760241   4.797738   4.882741   3.505166
    23  H    2.641536   4.520470   5.500219   5.434990   2.572207
    24  H    3.514103   5.184881   5.995895   5.710714   1.963511
    25  C    5.998045   5.233497   4.421774   3.031920   5.908019
    26  C    6.791180   5.937089   5.043056   3.717208   6.607296
    27  C    6.754766   5.890427   4.994268   3.668006   6.687189
    28  C    8.106918   7.085329   6.042012   4.750077   7.887909
    29  C    8.077051   7.047616   6.003050   4.713114   7.953527
    30  C    8.678433   7.578165   6.466553   5.174146   8.490043
    31  H    8.820188   7.778377   6.728814   5.510984   8.558026
    32  H    8.771766   7.717896   6.667313   5.454941   8.665415
    33  H    6.545995   5.815592   5.050049   3.841716   6.341325
    34  H    6.479241   5.731171   4.963622   3.757208   6.489048
    35  H    9.742101   8.566933   7.399111   6.154366   9.530853
    36  O    5.238132   3.651715   2.392651   1.331536   7.170075
    37  C    6.119544   4.221524   2.822379   2.395405   8.546165
    38  H    6.124332   4.158360   2.828016   2.737289   8.850316
    39  H    6.147678   4.169695   2.829029   2.738102   8.926230
    40  H    7.105384   5.279004   3.886513   3.255540   9.118950
    41  N    7.327081   8.475685   8.767178   7.871805   2.650205
    42  C    7.252363   8.709834   9.217265   8.499862   2.452396
    43  H    6.812191   8.346571   8.932611   8.310267   2.261343
    44  H    8.307364   9.800076  10.310490   9.577915   3.534958
    45  H    6.868332   8.416825   9.000844   8.359843   2.252046
    46  C    8.709117   9.725167   9.889952   8.881642   4.106304
    47  H    9.392963  10.558242  10.810819   9.857164   4.633456
    48  H    8.967890   9.841138   9.911910   8.851775   4.588118
    49  H    9.063237   9.963847  10.041801   8.968924   4.613561
                   16         17         18         19         20
    16  H    0.000000
    17  H    2.428707   0.000000
    18  H    8.005455   9.494058   0.000000
    19  H    7.282339   9.252336   2.468127   0.000000
    20  N    4.581546   5.288465   4.561391   5.301335   0.000000
    21  C    5.856109   6.145094   4.823001   6.138080   1.464877
    22  H    6.585325   7.070098   4.226259   5.782669   2.102746
    23  H    6.371720   6.509447   5.029210   6.523123   2.132442
    24  H    5.865570   5.805073   5.821802   7.054904   2.097072
    25  C    2.454530   4.813027   6.302306   5.082423   4.303210
    26  C    2.792152   5.086478   6.962903   5.579828   5.186609
    27  C    2.980595   5.292316   6.925867   5.537734   5.109949
    28  C    3.535123   5.792935   8.076823   6.406638   6.541917
    29  C    3.683187   5.971559   8.046411   6.372108   6.481037
    30  C    3.926133   6.205065   8.566281   6.766058   7.098547
    31  H    4.257227   6.317921   8.730895   7.025957   7.316182
    32  H    4.474802   6.606960   8.681614   6.970873   7.219056
    33  H    3.128077   5.127488   6.806477   5.625691   5.021281
    34  H    3.423580   5.485706   6.739531   5.551733   4.879969
    35  H    4.830216   6.981587   9.526652   7.602985   8.189809
    36  O    5.011694   7.251876   4.538941   2.676697   4.804772
    37  C    6.292381   8.598028   4.868319   2.515659   6.105049
    38  H    6.882233   9.123371   4.665226   2.327441   6.396515
    39  H    6.946059   9.218328   4.686195   2.325837   6.389355
    40  H    6.258980   8.650926   5.959595   3.607352   6.814725
    41  N    4.547162   2.686660   9.373504   9.827360   4.839168
    42  C    5.842888   4.138320   9.497349  10.300078   5.068635
    43  H    6.113883   4.639764   9.077582  10.007166   4.844399
    44  H    6.639160   4.673194  10.576210  11.392557   6.162939
    45  H    6.100711   4.616854   9.164882  10.087943   4.797035
    46  C    4.825336   2.488785  10.665907  10.922116   6.150891
    47  H    5.920224   3.571906  11.458322  11.858734   6.930309
    48  H    4.586828   2.288997  10.803877  10.910734   6.413576
    49  H    4.638751   2.297828  10.938655  11.054766   6.432598
                   21         22         23         24         25
    21  C    0.000000
    22  H    1.093258   0.000000
    23  H    1.101213   1.791623   0.000000
    24  H    1.094745   1.762993   1.792328   0.000000
    25  C    5.756673   6.172267   6.343883   6.132159   0.000000
    26  C    6.645986   7.151177   7.058907   7.086360   1.400856
    27  C    6.489697   6.784962   7.232188   6.743828   1.400638
    28  C    8.004610   8.484021   8.447724   8.404327   2.422578
    29  C    7.875176   8.178227   8.592382   8.117409   2.422074
    30  C    8.546849   8.938618   9.133225   8.861642   2.799554
    31  H    8.766693   9.291072   9.110754   9.200849   3.410790
    32  H    8.555207   8.788702   9.349107   8.729281   3.410263
    33  H    6.434263   7.013330   6.682391   6.949541   2.162189
    34  H    6.144365   6.333408   7.004924   6.314439   2.162221
    35  H    9.636791  10.022721  10.222902   9.937059   3.891663
    36  O    6.097659   6.127713   6.628976   6.798793   2.607497
    37  C    7.318593   7.231284   7.815441   8.074389   3.845311
    38  H    7.550183   7.463306   7.908245   8.402504   4.504317
    39  H    7.490985   7.251659   8.066761   8.229489   4.512545
    40  H    8.110105   8.100886   8.630421   8.799462   3.851354
    41  N    5.052162   6.063559   5.187416   4.445768   6.447230
    42  C    4.857807   5.833706   4.827050   4.135638   7.507382
    43  H    4.545473   5.557820   4.277981   3.997324   7.579773
    44  H    5.903302   6.853628   5.829101   5.140910   8.462502
    45  H    4.393051   5.257409   4.503910   3.504866   7.580043
    46  C    6.481687   7.484909   6.630184   5.874131   7.048386
    47  H    7.080034   8.079014   7.142739   6.398563   8.125920
    48  H    6.902369   7.943130   6.976717   6.441176   6.865316
    49  H    6.846449   7.781202   7.155138   6.184811   6.939025
                   26         27         28         29         30
    26  C    0.000000
    27  C    2.423743   0.000000
    28  C    1.396390   2.795405   0.000000
    29  C    2.794919   1.396201   2.419107   0.000000
    30  C    2.421981   2.422244   1.397848   1.398018   0.000000
    31  H    2.157386   3.887675   1.092280   3.410553   2.163293
    32  H    3.887172   2.157108   3.410422   1.092272   2.163294
    33  H    1.092340   3.412786   2.163025   3.887256   3.413004
    34  H    3.412945   1.092291   3.887692   2.162692   3.413088
    35  H    3.411670   3.411797   2.162746   2.162855   1.092109
    36  O    3.078275   3.046469   3.809511   3.785750   4.116239
    37  C    4.067084   4.051275   4.445622   4.433676   4.616650
    38  H    4.504633   4.948231   4.930445   5.340417   5.330214
    39  H    4.966078   4.486132   5.341752   4.902240   5.311379
    40  H    3.873353   3.875448   3.902138   3.906913   3.917214
    41  N    6.915561   7.091654   7.931918   8.083480   8.470054
    42  C    8.041865   8.191978   9.155162   9.285122   9.729541
    43  H    8.024752   8.417446   9.208816   9.550619   9.913841
    44  H    8.946221   9.111837   9.999483  10.145555  10.560405
    45  H    8.286727   8.155428   9.433866   9.317163   9.906853
    46  C    7.372600   7.596385   8.198987   8.397923   8.682098
    47  H    8.444412   8.678348   9.276728   9.487275   9.771737
    48  H    6.981708   7.511088   7.734310   8.211945   8.320467
    49  H    7.352112   7.290658   8.071079   8.012581   8.383707
                   31         32         33         34         35
    31  H    0.000000
    32  H    4.314963   0.000000
    33  H    2.487394   4.979506   0.000000
    34  H    4.979961   2.486836   4.313369   0.000000
    35  H    2.493664   2.493539   4.315105   4.314954   0.000000
    36  O    4.562203   4.527764   3.436206   3.385852   5.014719
    37  C    5.034333   5.016737   4.421912   4.396377   5.301378
    38  H    5.339697   6.003116   4.615814   5.363961   5.985340
    39  H    6.008186   5.299215   5.397463   4.589448   5.959520
    40  H    4.425391   4.434149   4.374635   4.378162   4.448529
    41  N    8.486317   8.736982   6.723788   7.042824   9.368579
    42  C    9.721399   9.938229   7.776596   8.050846  10.670677
    43  H    9.716572  10.287812   7.624780   8.344617  10.884368
    44  H   10.524598  10.770379   8.678153   8.979771  11.460765
    45  H   10.096934   9.901229   8.111541   7.871450  10.875420
    46  C    8.666388   8.998837   7.230099   7.631298   9.469050
    47  H    9.716365  10.071541   8.260576   8.681403  10.546935
    48  H    8.081731   8.881625   6.758986   7.703106   9.061437
    49  H    8.602074   8.502940   7.370714   7.261277   9.120346
                   36         37         38         39         40
    36  O    0.000000
    37  C    1.419301   0.000000
    38  H    2.087215   1.102200   0.000000
    39  H    2.087174   1.102156   1.801579   0.000000
    40  H    2.014868   1.096210   1.796390   1.796097   0.000000
    41  N    8.429953   9.845181  10.252520  10.361347  10.165690
    42  C    9.231593  10.641287  10.987890  11.094905  11.078052
    43  H    9.114348  10.497857  10.737855  10.986473  10.993562
    44  H   10.279054  11.691736  12.043654  12.158971  12.097047
    45  H    9.164625  10.566366  10.961869  10.915916  11.057370
    46  C    9.277409  10.674687  11.120820  11.246319  10.867968
    47  H   10.309287  11.712571  12.135880  12.273156  11.933688
    48  H    9.151917  10.516687  10.909546  11.179189  10.647077
    49  H    9.275595  10.659664  11.203287  11.184723  10.788408
                   41         42         43         44         45
    41  N    0.000000
    42  C    1.455777   0.000000
    43  H    2.124436   1.103237   0.000000
    44  H    2.092513   1.095202   1.779656   0.000000
    45  H    2.122177   1.102993   1.788873   1.778922   0.000000
    46  C    1.459975   2.512123   3.240820   2.539279   3.257870
    47  H    2.091268   2.533713   3.279775   2.084291   3.322502
    48  H    2.127487   3.255615   3.716436   3.324296   4.133751
    49  H    2.129063   3.241147   4.117877   3.283617   3.719845
                   46         47         48         49
    46  C    0.000000
    47  H    1.095296   0.000000
    48  H    1.101694   1.776825   0.000000
    49  H    1.102053   1.777497   1.789404   0.000000
 Symmetry turned off by external request.
 Stoichiometry    C23H23N2O(1+)
 Framework group  C1[X(C23H23N2O)]
 Deg. of freedom   141
 Full point group                 C1      NOp   1
 Rotational constants (GHZ):      0.3025118      0.1572134      0.1079473
 Leave Link  202 at Sat Mar 27 13:36:20 2021, MaxMem=  5242880000 cpu:         0.1
 (Enter /opt/nce/packages/global/g09/l301.exe)
 Standard basis: def2TZVP (5D, 7F)
 Ernie: Thresh=  0.10000D-02 Tol=  0.10000D-05 Strict=F.
   944 basis functions,  1510 primitive gaussians,  1074 cartesian basis functions
    91 alpha electrons       91 beta electrons
       nuclear repulsion energy      2265.4588529966 Hartrees.
 IExCor= 1009 DFT=T Ex=PBE Corr=PBE ExCW=0 ScaHFX=  0.000000
 ScaDFX=  1.000000  1.000000  1.000000  1.000000 ScalE2=  1.000000  1.000000
 IRadAn=      5 IRanWt=     -1 IRanGd=            0 ICorTp=0 IEmpDi=141
 NAtoms=   49 NActive=   49 NUniq=   49 SFac= 1.00D+00 NAtFMM=   60 NAOKFM=F Big=F
 Integral buffers will be    131072 words long.
 Raffenetti 2 integral format.
 Two-electron integral symmetry is turned off.
 R6Disp:  Grimme-D3(BJ) Dispersion energy=       -0.0696310795 Hartrees.
 Nuclear repulsion after empirical dispersion term =     2265.3892219172 Hartrees.
 ------------------------------------------------------------------------------
 Polarizable Continuum Model (PCM)
 =================================
 Model                : PCM (using non-symmetric T matrix).
 Atomic radii         : SMD-Coulomb.
 Polarization charges : Total charges.
 Charge compensation  : None.
 Solution method      : On-the-fly selection.
 Cavity type          : VdW (van der Waals Surface) (Alpha=1.000).
 Cavity algorithm     : GePol (No added spheres)
                        Default sphere list used, NSphG=   49.
                        Lebedev-Laikov grids with approx.  5.0 points / Ang**2.
                        Smoothing algorithm: York/Karplus (Gamma=1.0000).
                        Polarization charges: spherical gaussians, with
                                              point-specific exponents (IZeta= 3).
                        Self-potential: point-specific (ISelfS= 7).
                        Self-field    : sphere-specific E.n sum rule (ISelfD= 2).
 1st derivatives      : Analytical E(r).r(x)/FMM algorithm (CHGder, D1EAlg=3).
                        Cavity 1st derivative terms included.
 Solvent              : Acetonitrile, Eps=  35.688000 Eps(inf)=   1.806874
 ------------------------------------------------------------------------------
 GePol: Number of generator spheres                  =      49
 GePol: Total number of spheres                      =      49
 GePol: Number of exposed spheres                    =      49 (100.00%)
 GePol: Number of points                             =    3423
 GePol: Average weight of points                     =       0.11
 GePol: Minimum weight of points                     =   0.53D-09
 GePol: Maximum weight of points                     =    0.21559
 GePol: Number of points with low weight             =     226
 GePol: Fraction of low-weight points (<1% of avg)   =       6.60%
 GePol: Cavity surface area                          =    371.417 Ang**2
 GePol: Cavity volume                                =    367.304 Ang**3
 ------------------------------------------------------------------------------
 Atomic radii for non-electrostatic terms: SMD-CDS.
 ------------------------------------------------------------------------------
 PCM non-electrostatic energy =        -0.0069084157 Hartrees.
 Nuclear repulsion after PCM non-electrostatic terms =     2265.3823135015 Hartrees.
 Leave Link  301 at Sat Mar 27 13:36:21 2021, MaxMem=  5242880000 cpu:         2.0
 (Enter /opt/nce/packages/global/g09/l302.exe)
 NPDir=0 NMtPBC=     1 NCelOv=     1 NCel=       1 NClECP=     1 NCelD=      1
         NCelK=      1 NCelE2=     1 NClLst=     1 CellRange=     0.0.
 One-electron integrals computed using PRISM.
   1 Symmetry operations used in ECPInt.
 ECPInt:  NShTT=   71631 NPrTT=  217452 LenC2=   60193 LenP2D=  127896.
 LDataN:  DoStor=T MaxTD1= 6 Len=  172
 NBasis=   944 RedAO= T EigKep=  4.90D-06  NBF=   944
 NBsUse=   944 1.00D-06 EigRej= -1.00D+00 NBFU=   944
 Precomputing XC quadrature grid using
 IXCGrd= 4 IRadAn=           5 IRanWt=          -1 IRanGd=           0 AccXCQ= 0.00D+00.
 Generated NRdTot=       0 NPtTot=           0 NUsed=           0 NTot=          32
 NSgBfM=  1056  1056  1056  1056  1056 MxSgAt=    49 MxSgA2=    49.
 Leave Link  302 at Sat Mar 27 13:36:23 2021, MaxMem=  5242880000 cpu:        24.5
 (Enter /opt/nce/packages/global/g09/l303.exe)
 DipDrv:  MaxL=1.
 Leave Link  303 at Sat Mar 27 13:36:23 2021, MaxMem=  5242880000 cpu:         2.4
 (Enter /opt/nce/packages/global/g09/l401.exe)
 ExpMin= 9.52D-02 ExpMax= 2.70D+04 ExpMxC= 9.22D+02 IAcc=3 IRadAn=         5 AccDes= 0.00D+00
 Harris functional with IExCor= 1009 and IRadAn=       5 diagonalized for initial guess.
 HarFok:  IExCor= 1009 AccDes= 0.00D+00 IRadAn=         5 IDoV= 1 UseB2=F ITyADJ=14
 ICtDFT=  3500011 ScaDFX=  1.000000  1.000000  1.000000  1.000000
 FoFCou: FMM=F IPFlag=           0 FMFlag=      100000 FMFlg1=           0
         NFxFlg=           0 DoJE=T BraDBF=F KetDBF=T FulRan=T
         wScrn=  0.000000 ICntrl=     500 IOpCl=  0 I1Cent=   200000004 NGrid=           0
         NMat0=    1 NMatS0=      1 NMatT0=    0 NMatD0=    1 NMtDS0=    0 NMtDT0=    0
 Symmetry not used in FoFCou.
 Harris En= -1074.30135714342    
 JPrj=0 DoOrth=F DoCkMO=F.
 Leave Link  401 at Sat Mar 27 13:36:32 2021, MaxMem=  5242880000 cpu:       112.2
 (Enter /opt/nce/packages/global/g09/l502.exe)
 Closed shell SCF:
 Using DIIS extrapolation, IDIIS=  1040.
 Two-electron integral symmetry not used.
 IVT=     3498408 IEndB=     3498408 NGot=  5242880000 MDV=  5240552783
 LenX=  5240552783 LenY=  5239398233
 Requested convergence on RMS density matrix=1.00D-08 within 128 cycles.
 Requested convergence on MAX density matrix=1.00D-06.
 Requested convergence on             energy=1.00D-06.
 No special actions if energy rises.
 Fock matrices will be formed incrementally for  20 cycles.

 Cycle   1  Pass 1  IDiag  1:
 FoFJK:  IHMeth= 1 ICntrl=     500 DoSepK=F KAlg= 0 I1Cent=   0 FoldK=F
 IRaf= 730000000 NMat=   1 IRICut=       1 DoRegI=T DoRafI=F ISym2E= 0.
 FoFCou: FMM=F IPFlag=           0 FMFlag=      100000 FMFlg1=           0
         NFxFlg=           0 DoJE=T BraDBF=F KetDBF=F FulRan=T
         wScrn=  0.000000 ICntrl=     500 IOpCl=  0 I1Cent=           0 NGrid=           0
         NMat0=    1 NMatS0=      1 NMatT0=    0 NMatD0=    1 NMtDS0=    0 NMtDT0=    0
 Symmetry not used in FoFCou.
 Inv3:  Mode=1 IEnd=    35150787.
 Iteration    1 A*A^-1 deviation from unit magnitude is 7.55D-15 for   3420.
 Iteration    1 A*A^-1 deviation from orthogonality  is 3.92D-15 for   1828     66.
 Iteration    1 A^-1*A deviation from unit magnitude is 7.33D-15 for   3420.
 Iteration    1 A^-1*A deviation from orthogonality  is 1.14D-12 for   1973   1947.
 E= -1073.56171826242    
 DIIS: error= 2.42D-02 at cycle   1 NSaved=   1.
 NSaved= 1 IEnMin= 1 EnMin= -1073.56171826242     IErMin= 1 ErrMin= 2.42D-02
 ErrMax= 2.42D-02  0.00D+00 EMaxC= 1.00D-01 BMatC= 4.40D-01 BMatP= 4.40D-01
 IDIUse=3 WtCom= 7.58D-01 WtEn= 2.42D-01
 Coeff-Com:  0.100D+01
 Coeff-En:   0.100D+01
 Coeff:      0.100D+01
 Gap=     0.075 Goal=   None    Shift=    0.000
 GapD=    0.075 DampG=0.500 DampE=0.500 DampFc=0.2500 IDamp=-1.
 Damping current iteration by 2.50D-01
 RMSDP=2.06D-03 MaxDP=1.18D-01              OVMax= 2.98D-01

 Cycle   2  Pass 1  IDiag  1:
 RMSU=  5.15D-04    CP:  9.94D-01
 E= -1073.71690077665     Delta-E=       -0.155182514229 Rises=F Damp=T
 DIIS: error= 1.08D-02 at cycle   2 NSaved=   2.
 NSaved= 2 IEnMin= 2 EnMin= -1073.71690077665     IErMin= 2 ErrMin= 1.08D-02
 ErrMax= 1.08D-02  0.00D+00 EMaxC= 1.00D-01 BMatC= 9.94D-02 BMatP= 4.40D-01
 IDIUse=3 WtCom= 8.92D-01 WtEn= 1.08D-01
 Coeff-Com: -0.608D+00 0.161D+01
 Coeff-En:   0.000D+00 0.100D+01
 Coeff:     -0.542D+00 0.154D+01
 Gap=     0.109 Goal=   None    Shift=    0.000
 RMSDP=7.18D-04 MaxDP=4.12D-02 DE=-1.55D-01 OVMax= 3.21D-01

 Cycle   3  Pass 1  IDiag  1:
 RMSU=  6.35D-04    CP:  9.73D-01  1.61D+00
 E= -1073.91886559947     Delta-E=       -0.201964822824 Rises=F Damp=F
 DIIS: error= 6.37D-03 at cycle   3 NSaved=   3.
 NSaved= 3 IEnMin= 3 EnMin= -1073.91886559947     IErMin= 3 ErrMin= 6.37D-03
 ErrMax= 6.37D-03  0.00D+00 EMaxC= 1.00D-01 BMatC= 7.11D-02 BMatP= 9.94D-02
 IDIUse=3 WtCom= 9.36D-01 WtEn= 6.37D-02
 Coeff-Com: -0.431D+00 0.992D+00 0.440D+00
 Coeff-En:   0.000D+00 0.000D+00 0.100D+01
 Coeff:     -0.404D+00 0.928D+00 0.475D+00
 Gap=     0.072 Goal=   None    Shift=    0.000
 RMSDP=4.24D-04 MaxDP=4.99D-02 DE=-2.02D-01 OVMax= 1.62D-01

 Cycle   4  Pass 1  IDiag  1:
 RMSU=  3.40D-04    CP:  9.77D-01  1.50D+00  6.13D-01
 E= -1073.97241175540     Delta-E=       -0.053546155929 Rises=F Damp=F
 DIIS: error= 5.36D-03 at cycle   4 NSaved=   4.
 NSaved= 4 IEnMin= 4 EnMin= -1073.97241175540     IErMin= 4 ErrMin= 5.36D-03
 ErrMax= 5.36D-03  0.00D+00 EMaxC= 1.00D-01 BMatC= 2.13D-02 BMatP= 7.11D-02
 IDIUse=3 WtCom= 9.46D-01 WtEn= 5.36D-02
 Coeff-Com: -0.169D+00 0.368D+00 0.349D+00 0.452D+00
 Coeff-En:   0.000D+00 0.000D+00 0.278D+00 0.722D+00
 Coeff:     -0.160D+00 0.349D+00 0.345D+00 0.467D+00
 Gap=     0.074 Goal=   None    Shift=    0.000
 RMSDP=1.79D-04 MaxDP=2.23D-02 DE=-5.35D-02 OVMax= 1.21D-01

 Cycle   5  Pass 1  IDiag  1:
 RMSU=  1.06D-04    CP:  9.76D-01  1.53D+00  7.18D-01  6.26D-01
 E= -1073.99133437982     Delta-E=       -0.018922624417 Rises=F Damp=F
 DIIS: error= 2.15D-03 at cycle   5 NSaved=   5.
 NSaved= 5 IEnMin= 5 EnMin= -1073.99133437982     IErMin= 5 ErrMin= 2.15D-03
 ErrMax= 2.15D-03  0.00D+00 EMaxC= 1.00D-01 BMatC= 3.49D-03 BMatP= 2.13D-02
 IDIUse=3 WtCom= 9.78D-01 WtEn= 2.15D-02
 Coeff-Com: -0.645D-01 0.133D+00 0.195D+00 0.344D+00 0.393D+00
 Coeff-En:   0.000D+00 0.000D+00 0.000D+00 0.134D+00 0.866D+00
 Coeff:     -0.631D-01 0.130D+00 0.191D+00 0.339D+00 0.403D+00
 Gap=     0.071 Goal=   None    Shift=    0.000
 RMSDP=6.84D-05 MaxDP=1.09D-02 DE=-1.89D-02 OVMax= 4.80D-02

 Cycle   6  Pass 1  IDiag  1:
 RMSU=  3.85D-05    CP:  9.76D-01  1.55D+00  7.16D-01  6.52D-01  4.86D-01
 E= -1073.99439940446     Delta-E=       -0.003065024645 Rises=F Damp=F
 DIIS: error= 8.05D-04 at cycle   6 NSaved=   6.
 NSaved= 6 IEnMin= 6 EnMin= -1073.99439940446     IErMin= 6 ErrMin= 8.05D-04
 ErrMax= 8.05D-04  0.00D+00 EMaxC= 1.00D-01 BMatC= 3.40D-04 BMatP= 3.49D-03
 IDIUse=3 WtCom= 9.92D-01 WtEn= 8.05D-03
 Coeff-Com: -0.205D-01 0.390D-01 0.753D-01 0.157D+00 0.276D+00 0.474D+00
 Coeff-En:   0.000D+00 0.000D+00 0.000D+00 0.000D+00 0.101D+00 0.899D+00
 Coeff:     -0.204D-01 0.386D-01 0.747D-01 0.156D+00 0.274D+00 0.477D+00
 Gap=     0.071 Goal=   None    Shift=    0.000
 RMSDP=2.35D-05 MaxDP=3.26D-03 DE=-3.07D-03 OVMax= 1.27D-02

 Cycle   7  Pass 1  IDiag  1:
 RMSU=  1.45D-05    CP:  9.76D-01  1.55D+00  7.23D-01  6.50D-01  5.46D-01
                    CP:  5.75D-01
 E= -1073.99469379024     Delta-E=       -0.000294385773 Rises=F Damp=F
 DIIS: error= 1.94D-04 at cycle   7 NSaved=   7.
 NSaved= 7 IEnMin= 7 EnMin= -1073.99469379024     IErMin= 7 ErrMin= 1.94D-04
 ErrMax= 1.94D-04  0.00D+00 EMaxC= 1.00D-01 BMatC= 4.24D-05 BMatP= 3.40D-04
 IDIUse=3 WtCom= 9.98D-01 WtEn= 1.94D-03
 Coeff-Com: -0.646D-02 0.112D-01 0.240D-01 0.576D-01 0.128D+00 0.326D+00
 Coeff-Com:  0.460D+00
 Coeff-En:   0.000D+00 0.000D+00 0.000D+00 0.000D+00 0.000D+00 0.110D+00
 Coeff-En:   0.890D+00
 Coeff:     -0.645D-02 0.112D-01 0.239D-01 0.575D-01 0.128D+00 0.326D+00
 Coeff:      0.460D+00
 Gap=     0.071 Goal=   None    Shift=    0.000
 RMSDP=7.90D-06 MaxDP=6.51D-04 DE=-2.94D-04 OVMax= 2.53D-03

 Cycle   8  Pass 1  IDiag  1:
 RMSU=  5.05D-06    CP:  9.76D-01  1.55D+00  7.23D-01  6.58D-01  5.53D-01
                    CP:  6.25D-01  6.62D-01
 E= -1073.99473319543     Delta-E=       -0.000039405189 Rises=F Damp=F
 DIIS: error= 4.74D-05 at cycle   8 NSaved=   8.
 NSaved= 8 IEnMin= 8 EnMin= -1073.99473319543     IErMin= 8 ErrMin= 4.74D-05
 ErrMax= 4.74D-05  0.00D+00 EMaxC= 1.00D-01 BMatC= 3.16D-06 BMatP= 4.24D-05
 IDIUse=1 WtCom= 1.00D+00 WtEn= 0.00D+00
 Coeff-Com: -0.191D-02 0.305D-02 0.672D-02 0.187D-01 0.490D-01 0.153D+00
 Coeff-Com:  0.273D+00 0.499D+00
 Coeff:     -0.191D-02 0.305D-02 0.672D-02 0.187D-01 0.490D-01 0.153D+00
 Coeff:      0.273D+00 0.499D+00
 Gap=     0.071 Goal=   None    Shift=    0.000
 RMSDP=2.47D-06 MaxDP=1.68D-04 DE=-3.94D-05 OVMax= 7.45D-04

 Cycle   9  Pass 1  IDiag  1:
 RMSU=  2.17D-06    CP:  9.76D-01  1.55D+00  7.23D-01  6.58D-01  5.53D-01
                    CP:  6.37D-01  6.73D-01  7.93D-01
 E= -1073.99473549480     Delta-E=       -0.000002299370 Rises=F Damp=F
 DIIS: error= 2.80D-05 at cycle   9 NSaved=   9.
 NSaved= 9 IEnMin= 9 EnMin= -1073.99473549480     IErMin= 9 ErrMin= 2.80D-05
 ErrMax= 2.80D-05  0.00D+00 EMaxC= 1.00D-01 BMatC= 7.22D-07 BMatP= 3.16D-06
 IDIUse=1 WtCom= 1.00D+00 WtEn= 0.00D+00
 Coeff-Com: -0.295D-03 0.348D-03 0.682D-03 0.322D-02 0.123D-01 0.526D-01
 Coeff-Com:  0.111D+00 0.345D+00 0.475D+00
 Coeff:     -0.295D-03 0.348D-03 0.682D-03 0.322D-02 0.123D-01 0.526D-01
 Coeff:      0.111D+00 0.345D+00 0.475D+00
 Gap=     0.071 Goal=   None    Shift=    0.000
 RMSDP=1.19D-06 MaxDP=9.11D-05 DE=-2.30D-06 OVMax= 4.78D-04

 Cycle  10  Pass 1  IDiag  1:
 RMSU=  8.58D-07    CP:  9.76D-01  1.55D+00  7.23D-01  6.58D-01  5.54D-01
                    CP:  6.39D-01  6.77D-01  8.22D-01  6.62D-01
 E= -1073.99473612005     Delta-E=       -0.000000625251 Rises=F Damp=F
 DIIS: error= 1.14D-05 at cycle  10 NSaved=  10.
 NSaved=10 IEnMin=10 EnMin= -1073.99473612005     IErMin=10 ErrMin= 1.14D-05
 ErrMax= 1.14D-05  0.00D+00 EMaxC= 1.00D-01 BMatC= 1.43D-07 BMatP= 7.22D-07
 IDIUse=1 WtCom= 1.00D+00 WtEn= 0.00D+00
 Coeff-Com: -0.731D-04 0.382D-04 0.135D-04 0.871D-03 0.488D-02 0.246D-01
 Coeff-Com:  0.567D-01 0.208D+00 0.354D+00 0.351D+00
 Coeff:     -0.731D-04 0.382D-04 0.135D-04 0.871D-03 0.488D-02 0.246D-01
 Coeff:      0.567D-01 0.208D+00 0.354D+00 0.351D+00
 Gap=     0.071 Goal=   None    Shift=    0.000
 RMSDP=5.10D-07 MaxDP=3.98D-05 DE=-6.25D-07 OVMax= 2.15D-04

 Cycle  11  Pass 1  IDiag  1:
 RMSU=  2.75D-07    CP:  9.76D-01  1.55D+00  7.23D-01  6.58D-01  5.54D-01
                    CP:  6.40D-01  6.80D-01  8.26D-01  7.20D-01  5.84D-01
 E= -1073.99473627352     Delta-E=       -0.000000153475 Rises=F Damp=F
 DIIS: error= 1.71D-06 at cycle  11 NSaved=  11.
 NSaved=11 IEnMin=11 EnMin= -1073.99473627352     IErMin=11 ErrMin= 1.71D-06
 ErrMax= 1.71D-06  0.00D+00 EMaxC= 1.00D-01 BMatC= 6.35D-09 BMatP= 1.43D-07
 IDIUse=1 WtCom= 1.00D+00 WtEn= 0.00D+00
 Coeff-Com: -0.106D-04-0.891D-05-0.939D-04 0.280D-04 0.121D-02 0.751D-02
 Coeff-Com:  0.196D-01 0.779D-01 0.150D+00 0.208D+00 0.536D+00
 Coeff:     -0.106D-04-0.891D-05-0.939D-04 0.280D-04 0.121D-02 0.751D-02
 Coeff:      0.196D-01 0.779D-01 0.150D+00 0.208D+00 0.536D+00
 Gap=     0.071 Goal=   None    Shift=    0.000
 RMSDP=1.23D-07 MaxDP=9.74D-06 DE=-1.53D-07 OVMax= 4.37D-05

 Cycle  12  Pass 1  IDiag  1:
 RMSU=  7.60D-08    CP:  9.76D-01  1.55D+00  7.23D-01  6.58D-01  5.54D-01
                    CP:  6.40D-01  6.82D-01  8.29D-01  7.20D-01  6.29D-01
                    CP:  8.13D-01
 E= -1073.99473627800     Delta-E=       -0.000000004481 Rises=F Damp=F
 DIIS: error= 6.34D-07 at cycle  12 NSaved=  12.
 NSaved=12 IEnMin=12 EnMin= -1073.99473627800     IErMin=12 ErrMin= 6.34D-07
 ErrMax= 6.34D-07  0.00D+00 EMaxC= 1.00D-01 BMatC= 1.23D-09 BMatP= 6.35D-09
 IDIUse=1 WtCom= 1.00D+00 WtEn= 0.00D+00
 Coeff-Com: -0.202D-05-0.462D-05-0.566D-04-0.644D-04 0.287D-03 0.230D-02
 Coeff-Com:  0.691D-02 0.291D-01 0.614D-01 0.995D-01 0.359D+00 0.441D+00
 Coeff:     -0.202D-05-0.462D-05-0.566D-04-0.644D-04 0.287D-03 0.230D-02
 Coeff:      0.691D-02 0.291D-01 0.614D-01 0.995D-01 0.359D+00 0.441D+00
 Gap=     0.071 Goal=   None    Shift=    0.000
 RMSDP=4.66D-08 MaxDP=3.41D-06 DE=-4.48D-09 OVMax= 1.51D-05

 Cycle  13  Pass 1  IDiag  1:
 RMSU=  2.88D-08    CP:  9.76D-01  1.55D+00  7.23D-01  6.58D-01  5.54D-01
                    CP:  6.40D-01  6.82D-01  8.31D-01  7.25D-01  6.19D-01
                    CP:  8.38D-01  6.73D-01
 E= -1073.99473627913     Delta-E=       -0.000000001131 Rises=F Damp=F
 DIIS: error= 1.72D-07 at cycle  13 NSaved=  13.
 NSaved=13 IEnMin=13 EnMin= -1073.99473627913     IErMin=13 ErrMin= 1.72D-07
 ErrMax= 1.72D-07  0.00D+00 EMaxC= 1.00D-01 BMatC= 6.72D-11 BMatP= 1.23D-09
 IDIUse=1 WtCom= 1.00D+00 WtEn= 0.00D+00
 Coeff-Com: -0.576D-06-0.212D-05-0.244D-04-0.347D-04 0.813D-04 0.755D-03
 Coeff-Com:  0.253D-02 0.106D-01 0.236D-01 0.413D-01 0.164D+00 0.257D+00
 Coeff-Com:  0.501D+00
 Coeff:     -0.576D-06-0.212D-05-0.244D-04-0.347D-04 0.813D-04 0.755D-03
 Coeff:      0.253D-02 0.106D-01 0.236D-01 0.413D-01 0.164D+00 0.257D+00
 Coeff:      0.501D+00
 Gap=     0.071 Goal=   None    Shift=    0.000
 RMSDP=1.22D-08 MaxDP=8.96D-07 DE=-1.13D-09 OVMax= 4.47D-06

 Cycle  14  Pass 1  IDiag  1:
 RMSU=  9.88D-09    CP:  9.76D-01  1.55D+00  7.23D-01  6.58D-01  5.54D-01
                    CP:  6.40D-01  6.82D-01  8.31D-01  7.26D-01  6.22D-01
                    CP:  8.39D-01  7.15D-01  8.34D-01
 E= -1073.99473627916     Delta-E=       -0.000000000025 Rises=F Damp=F
 DIIS: error= 7.38D-08 at cycle  14 NSaved=  14.
 NSaved=14 IEnMin=14 EnMin= -1073.99473627916     IErMin=14 ErrMin= 7.38D-08
 ErrMax= 7.38D-08  0.00D+00 EMaxC= 1.00D-01 BMatC= 1.83D-11 BMatP= 6.72D-11
 IDIUse=1 WtCom= 1.00D+00 WtEn= 0.00D+00
 Coeff-Com: -0.560D-06 0.433D-06-0.490D-05-0.102D-04-0.536D-05 0.320D-04
 Coeff-Com:  0.301D-03 0.123D-02 0.347D-02 0.815D-02 0.383D-01 0.888D-01
 Coeff-Com:  0.360D+00 0.500D+00
 Coeff:     -0.560D-06 0.433D-06-0.490D-05-0.102D-04-0.536D-05 0.320D-04
 Coeff:      0.301D-03 0.123D-02 0.347D-02 0.815D-02 0.383D-01 0.888D-01
 Coeff:      0.360D+00 0.500D+00
 Gap=     0.071 Goal=   None    Shift=    0.000
 RMSDP=5.30D-09 MaxDP=2.95D-07 DE=-2.46D-11 OVMax= 1.52D-06

 Error on total polarization charges =  0.06722
 SCF Done:  E(RPBE-PBE) =  -1073.99473628     A.U. after   14 cycles
            NFock= 14  Conv=0.53D-08     -V/T= 2.0050
 KE= 1.068686935973D+03 PE=-7.006114096331D+03 EE= 2.598050110578D+03
 SMD-CDS (non-electrostatic) energy       (kcal/mol) =      -4.34
 (included in total energy above)
 Leave Link  502 at Sat Mar 27 13:47:37 2021, MaxMem=  5242880000 cpu:      7935.6
 (Enter /opt/nce/packages/global/g09/l601.exe)
 Copying SCF densities to generalized density rwf, IOpCl= 0 IROHF=0.

 **********************************************************************

            Population analysis using the SCF density.

 **********************************************************************

 Alpha  occ. eigenvalues --  -18.79902 -14.07063 -14.03820  -9.96786  -9.95920
 Alpha  occ. eigenvalues --   -9.95741  -9.94930  -9.93845  -9.93036  -9.92572
 Alpha  occ. eigenvalues --   -9.91980  -9.91907  -9.91159  -9.91141  -9.90722
 Alpha  occ. eigenvalues --   -9.90461  -9.90434  -9.90026  -9.89319  -9.89280
 Alpha  occ. eigenvalues --   -9.89074  -9.89063  -9.89045  -9.88949  -9.88944
 Alpha  occ. eigenvalues --   -9.88802  -1.00372  -0.92592  -0.89235  -0.80622
 Alpha  occ. eigenvalues --   -0.79511  -0.77981  -0.74700  -0.71314  -0.69984
 Alpha  occ. eigenvalues --   -0.69445  -0.68625  -0.67791  -0.66377  -0.64833
 Alpha  occ. eigenvalues --   -0.64476  -0.62819  -0.59990  -0.57895  -0.55904
 Alpha  occ. eigenvalues --   -0.54798  -0.54328  -0.52366  -0.51536  -0.50212
 Alpha  occ. eigenvalues --   -0.48994  -0.46561  -0.46132  -0.45974  -0.44611
 Alpha  occ. eigenvalues --   -0.43998  -0.43789  -0.42670  -0.42582  -0.42247
 Alpha  occ. eigenvalues --   -0.41414  -0.41003  -0.40709  -0.40257  -0.38772
 Alpha  occ. eigenvalues --   -0.37921  -0.37366  -0.36866  -0.36586  -0.36405
 Alpha  occ. eigenvalues --   -0.36083  -0.35989  -0.35501  -0.34891  -0.33825
 Alpha  occ. eigenvalues --   -0.33507  -0.33335  -0.32906  -0.31722  -0.31451
 Alpha  occ. eigenvalues --   -0.30663  -0.29758  -0.29449  -0.29208  -0.28364
 Alpha  occ. eigenvalues --   -0.25999  -0.23992  -0.23548  -0.22580  -0.20105
 Alpha  occ. eigenvalues --   -0.19265
 Alpha virt. eigenvalues --   -0.12196  -0.06524  -0.04864  -0.04750  -0.04229
 Alpha virt. eigenvalues --   -0.02817   0.00122   0.01557   0.02661   0.03187
 Alpha virt. eigenvalues --    0.03633   0.04228   0.04582   0.05170   0.05619
 Alpha virt. eigenvalues --    0.06407   0.06567   0.06785   0.07080   0.07351
 Alpha virt. eigenvalues --    0.07508   0.08411   0.08752   0.09000   0.09326
 Alpha virt. eigenvalues --    0.09474   0.09685   0.10275   0.10387   0.10447
 Alpha virt. eigenvalues --    0.10758   0.11087   0.11549   0.12275   0.12353
 Alpha virt. eigenvalues --    0.12814   0.13437   0.13679   0.14325   0.14667
 Alpha virt. eigenvalues --    0.15007   0.15409   0.15758   0.16345   0.16516
 Alpha virt. eigenvalues --    0.17158   0.17659   0.17930   0.18437   0.18612
 Alpha virt. eigenvalues --    0.18970   0.19254   0.19693   0.20012   0.20555
 Alpha virt. eigenvalues --    0.20656   0.21130   0.21249   0.21716   0.22458
 Alpha virt. eigenvalues --    0.22703   0.23187   0.23490   0.23813   0.23930
 Alpha virt. eigenvalues --    0.24903   0.25148   0.25494   0.25984   0.26055
 Alpha virt. eigenvalues --    0.26526   0.27149   0.27635   0.28128   0.28208
 Alpha virt. eigenvalues --    0.28587   0.29160   0.29519   0.29860   0.30347
 Alpha virt. eigenvalues --    0.30394   0.30888   0.31024   0.31307   0.31876
 Alpha virt. eigenvalues --    0.31954   0.32273   0.32409   0.33279   0.33594
 Alpha virt. eigenvalues --    0.34130   0.34462   0.34566   0.34748   0.35311
 Alpha virt. eigenvalues --    0.35399   0.35981   0.36518   0.36674   0.37371
 Alpha virt. eigenvalues --    0.38292   0.38472   0.38937   0.39096   0.39179
 Alpha virt. eigenvalues --    0.39331   0.39561   0.39737   0.40168   0.40447
 Alpha virt. eigenvalues --    0.41060   0.41455   0.41630   0.41996   0.42188
 Alpha virt. eigenvalues --    0.42350   0.42480   0.42877   0.43197   0.43553
 Alpha virt. eigenvalues --    0.43866   0.44110   0.44181   0.44552   0.44732
 Alpha virt. eigenvalues --    0.45289   0.45860   0.45906   0.46314   0.46398
 Alpha virt. eigenvalues --    0.47164   0.47383   0.48143   0.48287   0.49158
 Alpha virt. eigenvalues --    0.49838   0.50262   0.50753   0.51395   0.51822
 Alpha virt. eigenvalues --    0.52324   0.52787   0.53190   0.53696   0.54647
 Alpha virt. eigenvalues --    0.54843   0.55855   0.56297   0.56578   0.57727
 Alpha virt. eigenvalues --    0.58048   0.58507   0.59010   0.59078   0.59765
 Alpha virt. eigenvalues --    0.60008   0.60241   0.60469   0.61036   0.61988
 Alpha virt. eigenvalues --    0.62101   0.62248   0.63026   0.63467   0.63601
 Alpha virt. eigenvalues --    0.63960   0.64149   0.64451   0.64965   0.65428
 Alpha virt. eigenvalues --    0.65785   0.66194   0.66478   0.66959   0.67461
 Alpha virt. eigenvalues --    0.68057   0.68339   0.69483   0.69501   0.69799
 Alpha virt. eigenvalues --    0.70402   0.70963   0.71271   0.72052   0.72199
 Alpha virt. eigenvalues --    0.73752   0.73914   0.74676   0.75374   0.75849
 Alpha virt. eigenvalues --    0.76146   0.76635   0.77338   0.77686   0.77903
 Alpha virt. eigenvalues --    0.79174   0.79396   0.79537   0.80124   0.80844
 Alpha virt. eigenvalues --    0.81260   0.82220   0.82384   0.84238   0.84429
 Alpha virt. eigenvalues --    0.85017   0.85671   0.86027   0.86645   0.87127
 Alpha virt. eigenvalues --    0.87674   0.88230   0.89008   0.90134   0.91078
 Alpha virt. eigenvalues --    0.91725   0.92206   0.93200   0.93895   0.94295
[...]
    38  H    0.000051  -0.000749   0.000662   0.000031  -0.000041   0.000043
    39  H   -0.000192   0.000635  -0.000910  -0.000083   0.000017   0.000067
    40  H    0.000346  -0.001188  -0.001230   0.001096   0.000895   0.000215
    41  N   -0.000016   0.000003   0.000000  -0.000000  -0.000000  -0.000000
    42  C    0.000000  -0.000000  -0.000000  -0.000000  -0.000000   0.000000
    43  H   -0.000001  -0.000000   0.000000  -0.000000  -0.000000   0.000000
    44  H    0.000000   0.000000  -0.000000   0.000000   0.000000  -0.000000
    45  H    0.000000   0.000000  -0.000000   0.000000   0.000000  -0.000000
    46  C    0.000013   0.000002   0.000000  -0.000000   0.000000  -0.000000
    47  H   -0.000000   0.000000   0.000000  -0.000000  -0.000000  -0.000000
    48  H    0.000001  -0.000001   0.000000  -0.000000  -0.000000   0.000000
    49  H    0.000003   0.000000  -0.000001   0.000000   0.000000  -0.000000
              31         32         33         34         35         36
     1  C   -0.000000  -0.000000  -0.000022   0.000005   0.000000  -0.000001
     2  C    0.000000   0.000000  -0.000011   0.000019  -0.000000   0.000004
     3  C   -0.000008  -0.000002   0.000699   0.000169   0.000001  -0.000048
     4  C   -0.000071  -0.000021   0.004826   0.002934   0.000009  -0.000805
     5  C   -0.000044   0.000004   0.000374  -0.000089  -0.000009   0.000172
     6  C   -0.000002   0.000002   0.000438  -0.000034  -0.000000   0.000013
     7  C   -0.000693  -0.000535  -0.003245  -0.006945  -0.000014  -0.018416
     8  C    0.000054  -0.000034  -0.000198   0.005466   0.000001  -0.100401
     9  C   -0.000001  -0.000003  -0.000219   0.000058   0.000001  -0.000475
    10  C   -0.000000   0.000000   0.000017   0.000022  -0.000000   0.000199
    11  H   -0.000000  -0.000000  -0.000000  -0.000000   0.000000   0.000018
    12  C    0.000000  -0.000000  -0.000015  -0.000029   0.000000   0.004526
    13  C   -0.000000   0.000002   0.000145   0.000191  -0.000000  -0.077992
    14  C   -0.000007   0.000017   0.000720   0.000102  -0.000007   0.417715
    15  H   -0.000000  -0.000000  -0.000001  -0.000000  -0.000000   0.000000
    16  H   -0.000014  -0.000018  -0.000489  -0.000015   0.000011   0.000025
    17  H    0.000000   0.000000   0.000008   0.000001  -0.000000  -0.000000
    18  H    0.000000  -0.000000   0.000000   0.000000   0.000000  -0.000167
    19  H    0.000000   0.000000   0.000002   0.000004  -0.000000  -0.006055
    20  N    0.000000   0.000000  -0.000012  -0.000033   0.000000  -0.000108
    21  C   -0.000000  -0.000000  -0.000001  -0.000000   0.000000   0.000006
    22  H    0.000000  -0.000000   0.000000  -0.000000   0.000000   0.000002
    23  H   -0.000000   0.000000   0.000000  -0.000000  -0.000000  -0.000000
    24  H    0.000000  -0.000000  -0.000000   0.000000   0.000000  -0.000000
    25  C    0.015400   0.015649  -0.076283  -0.080281  -0.002478  -0.029556
    26  C   -0.062653  -0.003499   0.451618   0.016619   0.011835   0.022602
    27  C   -0.003156  -0.062790   0.014773   0.453832   0.011657   0.024701
    28  C    0.441834   0.013912  -0.065834  -0.004295  -0.055412  -0.000006
    29  C    0.013713   0.442332  -0.003630  -0.066641  -0.055306  -0.000388
    30  C   -0.059306  -0.059799   0.013834   0.014529   0.433905   0.000358
    31  H    0.530243  -0.000240  -0.009342   0.000060  -0.008530   0.000031
    32  H   -0.000240   0.530273   0.000062  -0.009423  -0.008573   0.000020
    33  H   -0.009342   0.000062   0.531998  -0.000207  -0.000244  -0.000294
    34  H    0.000060  -0.009423  -0.000207   0.532727  -0.000235  -0.000471
    35  H   -0.008530  -0.008573  -0.000244  -0.000235   0.527920   0.000001
    36  O    0.000031   0.000020  -0.000294  -0.000471   0.000001   7.809949
    37  C    0.000007   0.000007  -0.000028  -0.000014  -0.000014   0.243158
    38  H    0.000002  -0.000001   0.000054  -0.000008  -0.000000  -0.032145
    39  H   -0.000001   0.000002  -0.000005   0.000081   0.000000  -0.034288
    40  H    0.000002   0.000001  -0.000038  -0.000040   0.000004  -0.035096
    41  N   -0.000000  -0.000000  -0.000000   0.000000  -0.000000   0.000000
    42  C   -0.000000  -0.000000   0.000000   0.000000   0.000000  -0.000000
    43  H    0.000000  -0.000000   0.000000   0.000000   0.000000  -0.000000
    44  H   -0.000000  -0.000000  -0.000000  -0.000000   0.000000  -0.000000
    45  H   -0.000000   0.000000  -0.000000  -0.000000  -0.000000  -0.000000
    46  C   -0.000000   0.000000   0.000000   0.000000   0.000000   0.000000
    47  H    0.000000   0.000000   0.000000  -0.000000  -0.000000   0.000000
    48  H    0.000000  -0.000000   0.000000   0.000000   0.000000  -0.000000
    49  H   -0.000000   0.000000  -0.000000  -0.000000  -0.000000  -0.000000
              37         38         39         40         41         42
     1  C   -0.000000   0.000000  -0.000000   0.000000   0.519351  -0.081012
     2  C    0.000001  -0.000000   0.000000   0.000000  -0.097763  -0.018618
     3  C   -0.000013  -0.000004   0.000003   0.000001   0.000431  -0.002158
     4  C    0.000043   0.000017  -0.000031   0.000009  -0.000554   0.000421
     5  C   -0.000002  -0.000000   0.000000  -0.000000  -0.001128  -0.000779
     6  C   -0.000000   0.000000   0.000000  -0.000000  -0.076715   0.023681
     7  C    0.000960  -0.000420   0.000458   0.000495   0.000106  -0.000027
     8  C    0.010449  -0.002122  -0.001218   0.000388  -0.000015   0.000008
     9  C   -0.001095   0.000023  -0.000731   0.000122   0.000028  -0.000021
    10  C    0.000883  -0.000305   0.000415  -0.000020  -0.000000  -0.000002
    11  H    0.000003  -0.000003   0.000005  -0.000000   0.000000  -0.000000
    12  C   -0.001300   0.000674  -0.001023   0.000097  -0.000000   0.000000
    13  C    0.006524   0.009219   0.016224  -0.001499   0.000000  -0.000000
    14  C   -0.074514  -0.011947  -0.017370   0.007935  -0.000000   0.000000
    15  H    0.000000  -0.000000   0.000000  -0.000000  -0.007053   0.009683
    16  H   -0.000001   0.000000  -0.000000  -0.000000  -0.000116   0.000027
    17  H   -0.000000   0.000000  -0.000000  -0.000000  -0.006675   0.000093
    18  H   -0.000098   0.000036  -0.000015  -0.000002  -0.000000   0.000000
    19  H    0.006786  -0.000082   0.001468   0.000038   0.000000  -0.000000
    20  N    0.000009   0.000002  -0.000002  -0.000000  -0.000039   0.000039
    21  C   -0.000000  -0.000000   0.000001   0.000000   0.000067  -0.000538
    22  H    0.000000   0.000000  -0.000000   0.000000  -0.000002   0.000003
    23  H    0.000000  -0.000000   0.000000   0.000000  -0.000018   0.000006
    24  H    0.000000   0.000000  -0.000000  -0.000000  -0.000177   0.000184
    25  C    0.001099   0.000051  -0.000192   0.000346  -0.000016   0.000000
    26  C   -0.000470  -0.000749   0.000635  -0.001188   0.000003  -0.000000
    27  C   -0.000347   0.000662  -0.000910  -0.001230   0.000000  -0.000000
    28  C    0.000223   0.000031  -0.000083   0.001096  -0.000000  -0.000000
    29  C    0.000197  -0.000041   0.000017   0.000895  -0.000000  -0.000000
    30  C   -0.000952   0.000043   0.000067   0.000215  -0.000000   0.000000
    31  H    0.000007   0.000002  -0.000001   0.000002  -0.000000  -0.000000
    32  H    0.000007  -0.000001   0.000002   0.000001  -0.000000  -0.000000
    33  H   -0.000028   0.000054  -0.000005  -0.000038  -0.000000   0.000000
    34  H   -0.000014  -0.000008   0.000081  -0.000040   0.000000   0.000000
    35  H   -0.000014  -0.000000   0.000000   0.000004  -0.000000   0.000000
    36  O    0.243158  -0.032145  -0.034288  -0.035096   0.000000  -0.000000
    37  C    4.890306   0.403844   0.403698   0.395448  -0.000000   0.000000
    38  H    0.403844   0.538495  -0.042582  -0.021401  -0.000000  -0.000000
    39  H    0.403698  -0.042582   0.538685  -0.021812   0.000000   0.000000
    40  H    0.395448  -0.021401  -0.021812   0.510021   0.000000   0.000000
    41  N   -0.000000  -0.000000   0.000000   0.000000   6.164641   0.321545
    42  C    0.000000  -0.000000   0.000000   0.000000   0.321545   4.976723
    43  H    0.000000   0.000000  -0.000000  -0.000000  -0.040152   0.396994
    44  H   -0.000000  -0.000000   0.000000   0.000000  -0.024670   0.394527
    45  H   -0.000000  -0.000000   0.000000  -0.000000  -0.039990   0.400969
    46  C   -0.000000   0.000000   0.000000   0.000000   0.321117  -0.063224
    47  H   -0.000000   0.000000   0.000000  -0.000000  -0.024003  -0.016508
    48  H    0.000000   0.000000  -0.000000  -0.000000  -0.039943   0.005109
    49  H   -0.000000  -0.000000   0.000000   0.000000  -0.038005   0.005234
              43         44         45         46         47         48
     1  C   -0.022454   0.011875  -0.009022  -0.085436   0.010121  -0.014734
     2  C    0.017575  -0.002880   0.004457   0.026492   0.000329   0.000327
     3  C   -0.001204   0.000043   0.002885  -0.000984   0.000073  -0.000382
     4  C    0.000780  -0.000029  -0.000358   0.001031   0.000003   0.000288
     5  C   -0.000367   0.000085   0.000196  -0.002466   0.000000   0.000168
     6  C   -0.000587   0.000315  -0.001311  -0.013631  -0.001340   0.008982
     7  C   -0.000001  -0.000000  -0.000014   0.000005   0.000000  -0.000002
     8  C    0.000003  -0.000000   0.000006  -0.000001   0.000000  -0.000000
     9  C   -0.000008   0.000000   0.000009  -0.000004   0.000000   0.000000
    10  C    0.000004  -0.000000  -0.000003   0.000000   0.000000   0.000000
    11  H   -0.000000   0.000000  -0.000000  -0.000000  -0.000000  -0.000000
    12  C    0.000000  -0.000000  -0.000000  -0.000000  -0.000000   0.000000
    13  C   -0.000000   0.000000   0.000000   0.000000   0.000000  -0.000000
    14  C    0.000000  -0.000000   0.000000  -0.000000  -0.000000  -0.000000
    15  H    0.005008   0.000289  -0.003108   0.000346   0.000001   0.000048
    16  H   -0.000001  -0.000001   0.000003  -0.000110  -0.000001  -0.000054
    17  H    0.000012  -0.000024  -0.000034   0.007436   0.000241   0.000333
    18  H    0.000000  -0.000000  -0.000000   0.000000  -0.000000   0.000000
    19  H   -0.000000   0.000000   0.000000  -0.000000   0.000000  -0.000000
    20  N   -0.000196   0.000000   0.000064   0.000011  -0.000000  -0.000001
    21  C    0.000415   0.000002  -0.000431   0.000002  -0.000000   0.000003
    22  H   -0.000013  -0.000000   0.000016   0.000000   0.000000  -0.000000
    23  H    0.000302  -0.000002  -0.000183  -0.000000  -0.000000   0.000000
    24  H   -0.000516  -0.000004   0.001745   0.000010  -0.000000  -0.000003
    25  C   -0.000001   0.000000   0.000000   0.000013  -0.000000   0.000001
    26  C   -0.000000   0.000000   0.000000   0.000002   0.000000  -0.000001
    27  C    0.000000  -0.000000  -0.000000   0.000000   0.000000   0.000000
    28  C   -0.000000   0.000000   0.000000  -0.000000  -0.000000  -0.000000
    29  C   -0.000000   0.000000   0.000000   0.000000  -0.000000  -0.000000
    30  C    0.000000  -0.000000  -0.000000  -0.000000  -0.000000   0.000000
    31  H    0.000000  -0.000000  -0.000000  -0.000000   0.000000   0.000000
    32  H   -0.000000  -0.000000   0.000000   0.000000   0.000000  -0.000000
    33  H    0.000000  -0.000000  -0.000000   0.000000   0.000000   0.000000
    34  H    0.000000  -0.000000  -0.000000   0.000000  -0.000000   0.000000
    35  H    0.000000   0.000000  -0.000000   0.000000  -0.000000   0.000000
    36  O   -0.000000  -0.000000  -0.000000   0.000000   0.000000  -0.000000
    37  C    0.000000  -0.000000  -0.000000  -0.000000  -0.000000   0.000000
    38  H    0.000000  -0.000000  -0.000000   0.000000   0.000000   0.000000
    39  H   -0.000000   0.000000   0.000000   0.000000   0.000000  -0.000000
    40  H   -0.000000   0.000000  -0.000000   0.000000  -0.000000  -0.000000
    41  N   -0.040152  -0.024670  -0.039990   0.321117  -0.024003  -0.039943
    42  C    0.396994   0.394527   0.400969  -0.063224  -0.016508   0.005109
    43  H    0.538764  -0.020007  -0.041148   0.004907   0.000767   0.001419
    44  H   -0.020007   0.498704  -0.017464  -0.016363   0.005003   0.000469
    45  H   -0.041148  -0.017464   0.534040   0.005587   0.000614  -0.001125
    46  C    0.004907  -0.016363   0.005587   4.964759   0.393965   0.401490
    47  H    0.000767   0.005003   0.000614   0.393965   0.501950  -0.018250
    48  H    0.001419   0.000469  -0.001125   0.401490  -0.018250   0.532312
    49  H   -0.001167   0.000863   0.001269   0.400778  -0.019861  -0.039455
              49
     1  C   -0.014230
     2  C   -0.003037
     3  C    0.000320
     4  C   -0.000212
     5  C    0.002126
     6  C    0.007996
     7  C   -0.000015
     8  C   -0.000001
     9  C    0.000000
    10  C   -0.000000
    11  H    0.000000
    12  C   -0.000000
    13  C    0.000000
    14  C    0.000000
    15  H   -0.000089
    16  H    0.000008
    17  H    0.000259
    18  H   -0.000000
    19  H    0.000000
    20  N    0.000001
    21  C   -0.000004
    22  H    0.000000
    23  H   -0.000000
    24  H    0.000005
    25  C    0.000003
    26  C    0.000000
    27  C   -0.000001
    28  C    0.000000
    29  C    0.000000
    30  C   -0.000000
    31  H   -0.000000
    32  H    0.000000
    33  H   -0.000000
    34  H   -0.000000
    35  H   -0.000000
    36  O   -0.000000
    37  C   -0.000000
    38  H   -0.000000
    39  H    0.000000
    40  H    0.000000
    41  N   -0.038005
    42  C    0.005234
    43  H   -0.001167
    44  H    0.000863
    45  H    0.001269
    46  C    0.400778
    47  H   -0.019861
    48  H   -0.039455
    49  H    0.534329
 Mulliken charges:
               1
     1  C    0.173046
     2  C   -0.325557
     3  C    0.008024
     4  C    0.129826
     5  C   -0.242049
     6  C   -0.240843
     7  C    0.169470
     8  C    0.060213
     9  C    0.098638
    10  C   -0.285589
    11  H    0.159636
    12  C   -0.135735
    13  C   -0.279868
    14  C    0.201218
    15  H    0.181812
    16  H    0.162547
    17  H    0.155996
    18  H    0.156029
    19  H    0.161005
    20  N    0.170763
    21  C   -0.347990
    22  H    0.177998
    23  H    0.172417
    24  H    0.175919
    25  C    0.164872
    26  C   -0.217073
    27  C   -0.214193
    28  C   -0.179052
    29  C   -0.183735
    30  C   -0.108797
    31  H    0.142720
    32  H    0.142654
    33  H    0.140548
    34  H    0.141945
    35  H    0.145479
    36  O   -0.186790
    37  C   -0.284796
    38  H    0.158657
    39  H    0.158504
    40  H    0.165213
    41  N    0.069746
    42  C   -0.352360
    43  H    0.160872
    44  H    0.169269
    45  H    0.162333
    46  C   -0.345731
    47  H    0.166897
    48  H    0.163001
    49  H    0.162887
 Sum of Mulliken charges =   1.00000
 Mulliken charges with hydrogens summed into heavy atoms:
               1
     1  C    0.173046
     2  C   -0.143745
     3  C    0.008024
     4  C    0.129826
     5  C   -0.079503
     6  C   -0.084846
     7  C    0.169470
     8  C    0.060213
     9  C    0.098638
    10  C   -0.125953
    12  C    0.020294
    13  C   -0.118862
    14  C    0.201218
    20  N    0.170763
    21  C    0.178345
    25  C    0.164872
    26  C   -0.076525
    27  C   -0.072247
    28  C   -0.036332
    29  C   -0.041081
    30  C    0.036682
    36  O   -0.186790
    37  C    0.197579
    41  N    0.069746
    42  C    0.140115
    46  C    0.147053
 Electronic spatial extent (au):  <R**2>=           9821.0963
 Charge=              1.0000 electrons
 Dipole moment (field-independent basis, Debye):
    X=             -6.7710    Y=              3.8852    Z=             -0.1596  Tot=              7.8081
 Quadrupole moment (field-independent basis, Debye-Ang):
   XX=            -55.0186   YY=           -109.0267   ZZ=           -148.5063
   XY=              3.5435   XZ=             -0.5023   YZ=              2.1101
 Traceless Quadrupole moment (field-independent basis, Debye-Ang):
   XX=             49.1653   YY=             -4.8428   ZZ=            -44.3224
   XY=              3.5435   XZ=             -0.5023   YZ=              2.1101
 Octapole moment (field-independent basis, Debye-Ang**2):
  XXX=           -224.3648  YYY=             70.4912  ZZZ=              1.6322  XYY=             -5.7364
  XXY=             -3.8145  XXZ=            -18.9224  XZZ=              8.4463  YZZ=            -13.7773
  YYZ=             -0.5504  XYZ=            -11.4323
 Hexadecapole moment (field-independent basis, Debye-Ang**3):
 XXXX=          -5523.4358 YYYY=          -3806.0788 ZZZZ=           -446.5735 XXXY=            339.9693
 XXXZ=             16.5954 YYYX=            -41.6127 YYYZ=             26.5004 ZZZX=              6.6535
 ZZZY=              6.0911 XXYY=          -1712.1290 XXZZ=          -1474.8590 YYZZ=           -800.9990
 XXYZ=             -8.1384 YYXZ=            -14.6940 ZZXY=            -53.5957
 N-N= 2.264774586976D+03 E-N=-7.004963896424D+03  KE= 1.068712822562D+03
 Leave Link  601 at Sat Mar 27 21:34:03 2021, MaxMem=  5242880000 cpu:         5.4
 (Enter /opt/nce/packages/global/g09/l9999.exe)
 1\1\GINC-CN027\SP\RPBEPBE TD-FC\Gen\C23H23N2O1(1+)\PNG4RJV\27-Mar-2021
 \0\\#p PBEPBE chkbasis geom=allcheck Guess=Read int=ultrafine scrf=(SM
 D,solvent=Acetonitrile) td=(NStates=30) EmpiricalDispersion=GD3BJ\\Tit
 le\\1,1\C,0,-3.5367217815,-0.5372803823,-0.0506209319\C,0,-2.915986355
 4,0.7295729711,0.0171826419\C,0,-1.5267173565,0.8481515689,0.086700066
 2\C,0,-0.6880554133,-0.3211360031,0.0484137699\C,0,-1.3449122431,-1.59
 15130159,0.0193440427\C,0,-2.702992775,-1.7083859153,-0.0258080245\C,0
 ,0.7091854907,-0.2039357377,0.0453344836\C,0,1.3009408546,1.0882791299
 ,0.0010622225\C,0,0.4455123912,2.2446998612,0.0654943723\C,0,0.9906859
 763,3.5409727642,-0.025784345\H,0,0.3493648167,4.4170111001,-0.0398893
 882\C,0,2.3588286559,3.7027633182,-0.1483857037\C,0,3.232807284,2.6098
 877678,-0.1852974583\C,0,2.7227802074,1.3185304198,-0.122703507\H,0,-3
 .5331436173,1.6203040214,-0.0151945922\H,0,-0.7316862389,-2.4914490457
 ,0.0239204887\H,0,-3.1533020917,-2.6985524772,-0.0515888859\H,0,2.7680
 758638,4.7111072737,-0.2308712272\H,0,4.3030699118,2.7781877125,-0.282
 3806338\N,0,-0.9195741164,2.0811516548,0.2124218156\C,0,-1.7558647563,
 3.2509324228,0.4954500065\H,0,-1.1849363106,3.9727333334,1.0852611016\
 H,0,-2.1092155721,3.7249396478,-0.4316153057\H,0,-2.6146037593,2.93492
 60914,1.0948349157\C,0,1.5028378485,-1.4655210132,0.0838717458\C,0,1.7
 490894457,-2.1885799088,-1.090506178\C,0,1.9527403626,-1.9683672109,1.
 3116855361\C,0,2.4616144041,-3.3881463426,-1.0391460333\C,0,2.66112281
 77,-3.1703921606,1.3599526811\C,0,2.9225536943,-3.8809502918,0.1848867
 848\H,0,2.6542507712,-3.9412801248,-1.9604858652\H,0,3.0086205653,-3.5
 535867316,2.3213549702\H,0,1.3880015729,-1.803357315,-2.0458836454\H,0
 ,1.7504187451,-1.4116207122,2.2287099758\H,0,3.4785161988,-4.819463576
 2,0.2237893873\O,0,3.5031214717,0.2233031823,-0.1896113891\C,0,4.92104
 52769,0.3957846593,-0.3319307671\H,0,5.1629691549,0.930391659,-1.26324
 41472\H,0,5.3424386666,0.9350572255,0.5300335118\H,0,5.3310578809,-0.6
 195056275,-0.3698651899\N,0,-4.8815185761,-0.65546337,-0.1392676229\C,
 0,-5.7205762909,0.535474811,-0.1581840792\H,0,-5.4973774937,1.16474928
 32,-1.0348839503\H,0,-6.7700159707,0.2313509463,-0.2044092112\H,0,-5.5
 690347767,1.1394933703,0.750494846\C,0,-5.5180444197,-1.9664730576,-0.
 2331803104\H,0,-6.5994435299,-1.8243453035,-0.3163961162\H,0,-5.169196
 1858,-2.5166537457,-1.1202479167\H,0,-5.3146566987,-2.5746121265,0.661
 4490593\\Version=ES64L-G09RevE.01\State=1-A\HF=-1073.9954201\RMSD=9.88
 2e-09\PG=C01 [X(C23H23N2O1)]\\@


 A MAN SHOULD NEVER BE ASHAMED TO OWN HE HAS BEEN IN THE WRONG
 WHICH IS BUT SAYING IN OTHER WORDS,
 THAT HE IS WISER TODAY THAN HE WAS YESTERDAY.

                          -- JONATHAN SWIFT
 Job cpu time:       1 days  1 hours 43 minutes 20.9 seconds.
 File lengths (MBytes):  RWF=   3515 Int=      0 D2E=      0 Chk=    797 Scr=      1
 Normal termination of Gaussian 09 at Sat Mar 27 21:34:04 2021.
