 Entering Gaussian System, Link 0=g09
 Input=/home/png4rjv/fotokatalizis/benchmark/OPCs/Ph-Acr_1_M06_def2TZVP.gjf
 Output=/home/png4rjv/fotokatalizis/benchmark/OPCs/Ph-Acr_1_M06_def2TZVP.log
 Initial command:
 /opt/nce/packages/global/g09/l1.exe "/home/png4rjv/fotokatalizis/benchmark/OPCs/Ph-Acr_1_M06_def2TZVP/Gau-16884.inp" -scrdir="/home/png4rjv/fotokatalizis/benchmark/OPCs/Ph-Acr_1_M06_def2TZVP/"
 Default is to use a total of  12 processors:
                               12 via shared-memory
                                1 via Linda
 Entering Link 1 = /opt/nce/packages/global/g09/l1.exe PID=     16885.
  
 Copyright (c) 1988,1990,1992,1993,1995,1998,2003,2009,2015,
            Gaussian, Inc.  All Rights Reserved.
  
 This is part of the Gaussian(R) 09 program.  It is based on
 the Gaussian(R) 03 system (copyright 2003, Gaussian, Inc.),
 the Gaussian(R) 98 system (copyright 1998, Gaussian, Inc.),
 the Gaussian(R) 94 system (copyright 1995, Gaussian, Inc.),
 the Gaussian 92(TM) system (copyright 1992, Gaussian, Inc.),
 the Gaussian 90(TM) system (copyright 1990, Gaussian, Inc.),
 the Gaussian 88(TM) system (copyright 1988, Gaussian, Inc.),
 the Gaussian 86(TM) system (copyright 1986, Carnegie Mellon
 University), and the Gaussian 82(TM) system (copyright 1983,
 Carnegie Mellon University). Gaussian is a federally registered
 trademark of Gaussian, Inc.
  
 This software contains proprietary and confidential information,
 including trade secrets, belonging to Gaussian, Inc.
  
 This software is provided under written license and may be
 used, copied, transmitted, or stored only in accord with that
 written license.
  
 The following legend is applicable only to US Government
 contracts under FAR:
  
                    RESTRICTED RIGHTS LEGEND
  
 Use, reproduction and disclosure by the US Government is
 subject to restrictions as set forth in subparagraphs (a)
 and (c) of the Commercial Computer Software - Restricted
 Rights clause in FAR 52.227-19.
  
 Gaussian, Inc.
 340 Quinnipiac St., Bldg. 40, Wallingford CT 06492
  
  
 ---------------------------------------------------------------
 Warning -- This program may not be used in any manner that
 competes with the business of Gaussian, Inc. or will provide
 assistance to any competitor of Gaussian, Inc.  The licensee
 of this program is prohibited from giving any competitor of
 Gaussian, Inc. access to this program.  By using this program,
 the user acknowledges that Gaussian, Inc. is engaged in the
 business of creating and licensing software in the field of
 computational chemistry and represents and warrants to the
 licensee that it is not a competitor of Gaussian, Inc. and that
 it will not use this program in any manner prohibited above.
 ---------------------------------------------------------------
  

 Cite this work as:
 Gaussian 09, Revision E.01,
 M. J. Frisch, G. W. Trucks, H. B. Schlegel, G. E. Scuseria, 
 M. A. Robb, J. R. Cheeseman, G. Scalmani, V. Barone, B. Mennucci, 
 G. A. Petersson, H. Nakatsuji, M. Caricato, X. Li, H. P. Hratchian, 
 A. F. Izmaylov, J. Bloino, G. Zheng, J. L. Sonnenberg, M. Hada, 
 M. Ehara, K. Toyota, R. Fukuda, J. Hasegawa, M. Ishida, T. Nakajima, 
 Y. Honda, O. Kitao, H. Nakai, T. Vreven, J. A. Montgomery, Jr., 
 J. E. Peralta, F. Ogliaro, M. Bearpark, J. J. Heyd, E. Brothers, 
 K. N. Kudin, V. N. Staroverov, T. Keith, R. Kobayashi, J. Normand, 
 K. Raghavachari, A. Rendell, J. C. Burant, S. S. Iyengar, J. Tomasi, 
 M. Cossi, N. Rega, J. M. Millam, M. Klene, J. E. Knox, J. B. Cross, 
 V. Bakken, C. Adamo, J. Jaramillo, R. Gomperts, R. E. Stratmann, 
 O. Yazyev, A. J. Austin, R. Cammi, C. Pomelli, J. W. Ochterski, 
 R. L. Martin, K. Morokuma, V. G. Zakrzewski, G. A. Voth, 
 P. Salvador, J. J. Dannenberg, S. Dapprich, A. D. Daniels, 
 O. Farkas, J. B. Foresman, J. V. Ortiz, J. Cioslowski, 
 and D. J. Fox, Gaussian, Inc., Wallingford CT, 2013.
 
 ******************************************
 Gaussian 09:  ES64L-G09RevE.01 30-Nov-2015
                20-Feb-2021 
 ******************************************
 %chk=cp.chk
 Default route:  MaxDisk=500GB
 ----------------------------------------------------------------------
 #p m06/def2TZVP opt freq=noraman nosymm int=ultrafine scrf=(SMD,solven
 t=Acetonitrile)
 ----------------------------------------------------------------------
 1/14=-1,18=20,19=15,26=4,38=1/1,3;
 2/9=110,12=2,15=1,17=6,18=5,40=1/2;
 3/5=44,7=101,11=2,16=1,25=1,30=1,70=32201,71=1,72=2,74=-54,75=-5/1,2,3;
 4//1;
 5/5=2,38=5,53=2/2;
 6/7=2,8=2,9=2,10=2,28=1/1;
 7/30=1/1,2,3,16;
 1/14=-1,18=20,19=15,26=4/3(2);
 2/9=110,15=1/2;
 99//99;
 2/9=110,15=1/2;
 3/5=44,7=101,11=2,16=1,25=1,30=1,70=32205,71=1,72=2,74=-54,75=-5/1,2,3;
 4/5=5,16=3,69=1/1;
 5/5=2,38=5,53=2/2;
 7/30=1/1,2,3,16;
 1/14=-1,18=20,19=15,26=4/3(-5);
 2/9=110,15=1/2;
 6/7=2,8=2,9=2,10=2,19=2,28=1/1;
 99/9=1/99;
 Leave Link    1 at Sat Feb 20 17:01:36 2021, MaxMem=           0 cpu:         1.0
 (Enter /opt/nce/packages/global/g09/l101.exe)
 -----
 Title
 -----
 Symbolic Z-matrix:
 Charge =  1 Multiplicity = 1
 C                    -3.54604  -0.53922  -0.03539 
 C                    -2.92489   0.72938   0.01229 
 C                    -1.53212   0.85917   0.07309 
 C                    -0.69379  -0.30957   0.04648 
 C                    -1.34722  -1.58446   0.02511 
 C                    -2.70447  -1.70709  -0.0103 
 C                     0.70553  -0.19285   0.04332 
 C                     1.29649   1.10008   0.00314 
 C                     0.4427    2.25851   0.03773 
 C                     0.99955   3.54968  -0.06801 
 H                     0.37047   4.43382  -0.10401 
 C                     2.37186   3.70161  -0.17048 
 C                     3.24186   2.6047   -0.17278 
 C                     2.72567   1.31606  -0.09373 
 H                    -3.54371   1.61634  -0.02801 
 H                    -0.72682  -2.47932   0.0322 
 H                    -3.14465  -2.70135  -0.02628 
 H                     2.78753   4.70751  -0.26113 
 H                     4.31438   2.76837  -0.25136 
 N                    -0.92721   2.09577   0.16992 
 C                    -1.76673   3.27102   0.41457 
 H                    -1.19735   4.02208   0.96858 
 H                    -2.1346    3.70981  -0.52607 
 H                    -2.61839   2.98096   1.03828 
 C                     1.50304  -1.45393   0.06411 
 C                     1.78733  -2.12812  -1.13048 
 C                     1.93299  -1.98929   1.2849 
 C                     2.51344  -3.32057  -1.10363 
 C                     2.65608  -3.18345   1.30738 
 C                     2.95175  -3.84897   0.11402 
 H                     2.73499  -3.84042  -2.03837 
 H                     2.98826  -3.59686   2.26226 
 H                     1.44754  -1.71258  -2.08183 
 H                     1.70677  -1.46612   2.21668 
 H                     3.51749  -4.78292   0.13367 
 O                     3.48971   0.2257   -0.11203 
 C                     4.90185   0.32252  -0.21651 
 H                     5.1976    0.81485  -1.15725 
 H                     5.32648   0.8729    0.63878 
 H                     5.27182  -0.70935  -0.20944 
 N                    -4.89325  -0.66318  -0.10634 
 C                    -5.73709   0.52303  -0.11749 
 H                    -5.53367   1.1555   -0.99824 
 H                    -6.78927   0.22096  -0.15132 
 H                    -5.58532   1.13174   0.78973 
 C                    -5.52166  -1.97916  -0.17564 
 H                    -6.60688  -1.85284  -0.25322 
 H                    -5.18163  -2.54374  -1.05846 
 H                    -5.31236  -2.57753   0.72584 
 
 NAtoms=     49 NQM=       49 NQMF=       0 NMMI=      0 NMMIF=      0
                NMic=       0 NMicF=      0.
                    Isotopes and Nuclear Properties:
 (Nuclear quadrupole moments (NQMom) in fm**2, nuclear magnetic moments (NMagM)
  in nuclear magnetons)

  Atom         1           2           3           4           5           6           7           8           9          10
 IAtWgt=          12          12          12          12          12          12          12          12          12          12
 AtmWgt=  12.0000000  12.0000000  12.0000000  12.0000000  12.0000000  12.0000000  12.0000000  12.0000000  12.0000000  12.0000000
 NucSpn=           0           0           0           0           0           0           0           0           0           0
 AtZEff=   0.0000000   0.0000000   0.0000000   0.0000000   0.0000000   0.0000000   0.0000000   0.0000000   0.0000000   0.0000000
 NQMom=    0.0000000   0.0000000   0.0000000   0.0000000   0.0000000   0.0000000   0.0000000   0.0000000   0.0000000   0.0000000
 NMagM=    0.0000000   0.0000000   0.0000000   0.0000000   0.0000000   0.0000000   0.0000000   0.0000000   0.0000000   0.0000000
 AtZNuc=   6.0000000   6.0000000   6.0000000   6.0000000   6.0000000   6.0000000   6.0000000   6.0000000   6.0000000   6.0000000

  Atom        11          12          13          14          15          16          17          18          19          20
 IAtWgt=           1          12          12          12           1           1           1           1           1          14
 AtmWgt=   1.0078250  12.0000000  12.0000000  12.0000000   1.0078250   1.0078250   1.0078250   1.0078250   1.0078250  14.0030740
 NucSpn=           1           0           0           0           1           1           1           1           1           2
 AtZEff=   0.0000000   0.0000000   0.0000000   0.0000000   0.0000000   0.0000000   0.0000000   0.0000000   0.0000000   0.0000000
 NQMom=    0.0000000   0.0000000   0.0000000   0.0000000   0.0000000   0.0000000   0.0000000   0.0000000   0.0000000   2.0440000
 NMagM=    2.7928460   0.0000000   0.0000000   0.0000000   2.7928460   2.7928460   2.7928460   2.7928460   2.7928460   0.4037610
 AtZNuc=   1.0000000   6.0000000   6.0000000   6.0000000   1.0000000   1.0000000   1.0000000   1.0000000   1.0000000   7.0000000

  Atom        21          22          23          24          25          26          27          28          29          30
 IAtWgt=          12           1           1           1          12          12          12          12          12          12
 AtmWgt=  12.0000000   1.0078250   1.0078250   1.0078250  12.0000000  12.0000000  12.0000000  12.0000000  12.0000000  12.0000000
 NucSpn=           0           1           1           1           0           0           0           0           0           0
 AtZEff=   0.0000000   0.0000000   0.0000000   0.0000000   0.0000000   0.0000000   0.0000000   0.0000000   0.0000000   0.0000000
 NQMom=    0.0000000   0.0000000   0.0000000   0.0000000   0.0000000   0.0000000   0.0000000   0.0000000   0.0000000   0.0000000
 NMagM=    0.0000000   2.7928460   2.7928460   2.7928460   0.0000000   0.0000000   0.0000000   0.0000000   0.0000000   0.0000000
 AtZNuc=   6.0000000   1.0000000   1.0000000   1.0000000   6.0000000   6.0000000   6.0000000   6.0000000   6.0000000   6.0000000

  Atom        31          32          33          34          35          36          37          38          39          40
 IAtWgt=           1           1           1           1           1          16          12           1           1           1
 AtmWgt=   1.0078250   1.0078250   1.0078250   1.0078250   1.0078250  15.9949146  12.0000000   1.0078250   1.0078250   1.0078250
 NucSpn=           1           1           1           1           1           0           0           1           1           1
 AtZEff=   0.0000000   0.0000000   0.0000000   0.0000000   0.0000000   0.0000000   0.0000000   0.0000000   0.0000000   0.0000000
 NQMom=    0.0000000   0.0000000   0.0000000   0.0000000   0.0000000   0.0000000   0.0000000   0.0000000   0.0000000   0.0000000
 NMagM=    2.7928460   2.7928460   2.7928460   2.7928460   2.7928460   0.0000000   0.0000000   2.7928460   2.7928460   2.7928460
 AtZNuc=   1.0000000   1.0000000   1.0000000   1.0000000   1.0000000   8.0000000   6.0000000   1.0000000   1.0000000   1.0000000

  Atom        41          42          43          44          45          46          47          48          49
 IAtWgt=          14          12           1           1           1          12           1           1           1
 AtmWgt=  14.0030740  12.0000000   1.0078250   1.0078250   1.0078250  12.0000000   1.0078250   1.0078250   1.0078250
 NucSpn=           2           0           1           1           1           0           1           1           1
 AtZEff=   0.0000000   0.0000000   0.0000000   0.0000000   0.0000000   0.0000000   0.0000000   0.0000000   0.0000000
 NQMom=    2.0440000   0.0000000   0.0000000   0.0000000   0.0000000   0.0000000   0.0000000   0.0000000   0.0000000
 NMagM=    0.4037610   0.0000000   2.7928460   2.7928460   2.7928460   0.0000000   2.7928460   2.7928460   2.7928460
 AtZNuc=   7.0000000   6.0000000   1.0000000   1.0000000   1.0000000   6.0000000   1.0000000   1.0000000   1.0000000
 Leave Link  101 at Sat Feb 20 17:01:36 2021, MaxMem=  5242880000 cpu:         4.4
 (Enter /opt/nce/packages/global/g09/l103.exe)

 GradGradGradGradGradGradGradGradGradGradGradGradGradGradGradGradGradGrad
 Berny optimization.
 Initialization pass.
                           ----------------------------
                           !    Initial Parameters    !
                           ! (Angstroms and Degrees)  !
 --------------------------                            --------------------------
 ! Name  Definition              Value          Derivative Info.                !
 --------------------------------------------------------------------------------
 ! R1    R(1,2)                  1.4133         estimate D2E/DX2                !
 ! R2    R(1,6)                  1.4397         estimate D2E/DX2                !
 ! R3    R(1,41)                 1.3548         estimate D2E/DX2                !
 ! R4    R(2,3)                  1.4001         estimate D2E/DX2                !
 ! R5    R(2,15)                 1.0822         estimate D2E/DX2                !
 ! R6    R(3,4)                  1.4386         estimate D2E/DX2                !
 ! R7    R(3,20)                 1.38           estimate D2E/DX2                !
 ! R8    R(4,5)                  1.4327         estimate D2E/DX2                !
 ! R9    R(4,7)                  1.4042         estimate D2E/DX2                !
 ! R10   R(5,6)                  1.3632         estimate D2E/DX2                !
 ! R11   R(5,16)                 1.0889         estimate D2E/DX2                !
 ! R12   R(6,17)                 1.0875         estimate D2E/DX2                !
 ! R13   R(7,8)                  1.4221         estimate D2E/DX2                !
 ! R14   R(7,25)                 1.4922         estimate D2E/DX2                !
 ! R15   R(8,9)                  1.4395         estimate D2E/DX2                !
 ! R16   R(8,14)                 1.4486         estimate D2E/DX2                !
 ! R17   R(9,10)                 1.4101         estimate D2E/DX2                !
 ! R18   R(9,20)                 1.3859         estimate D2E/DX2                !
 ! R19   R(10,11)                1.0857         estimate D2E/DX2                !
 ! R20   R(10,12)                1.3845         estimate D2E/DX2                !
 ! R21   R(12,13)                1.4            estimate D2E/DX2                !
 ! R22   R(12,18)                1.0922         estimate D2E/DX2                !
 ! R23   R(13,14)                1.3904         estimate D2E/DX2                !
 ! R24   R(13,19)                1.0878         estimate D2E/DX2                !
 ! R25   R(14,36)                1.3315         estimate D2E/DX2                !
 ! R26   R(20,21)                1.4649         estimate D2E/DX2                !
 ! R27   R(21,22)                1.0933         estimate D2E/DX2                !
 ! R28   R(21,23)                1.1012         estimate D2E/DX2                !
 ! R29   R(21,24)                1.0947         estimate D2E/DX2                !
 ! R30   R(25,26)                1.4009         estimate D2E/DX2                !
 ! R31   R(25,27)                1.4006         estimate D2E/DX2                !
 ! R32   R(26,28)                1.3964         estimate D2E/DX2                !
 ! R33   R(26,33)                1.0923         estimate D2E/DX2                !
 ! R34   R(27,29)                1.3962         estimate D2E/DX2                !
 ! R35   R(27,34)                1.0923         estimate D2E/DX2                !
 ! R36   R(28,30)                1.3978         estimate D2E/DX2                !
 ! R37   R(28,31)                1.0923         estimate D2E/DX2                !
 ! R38   R(29,30)                1.398          estimate D2E/DX2                !
 ! R39   R(29,32)                1.0923         estimate D2E/DX2                !
 ! R40   R(30,35)                1.0921         estimate D2E/DX2                !
 ! R41   R(36,37)                1.4193         estimate D2E/DX2                !
 ! R42   R(37,38)                1.1022         estimate D2E/DX2                !
 ! R43   R(37,39)                1.1022         estimate D2E/DX2                !
 ! R44   R(37,40)                1.0962         estimate D2E/DX2                !
 ! R45   R(41,42)                1.4558         estimate D2E/DX2                !
 ! R46   R(41,46)                1.46           estimate D2E/DX2                !
 ! R47   R(42,43)                1.1032         estimate D2E/DX2                !
 ! R48   R(42,44)                1.0952         estimate D2E/DX2                !
 ! R49   R(42,45)                1.103          estimate D2E/DX2                !
 ! R50   R(46,47)                1.0953         estimate D2E/DX2                !
 ! R51   R(46,48)                1.1017         estimate D2E/DX2                !
 ! R52   R(46,49)                1.1021         estimate D2E/DX2                !
 ! A1    A(2,1,6)              118.0753         estimate D2E/DX2                !
 ! A2    A(2,1,41)             121.3956         estimate D2E/DX2                !
 ! A3    A(6,1,41)             120.5289         estimate D2E/DX2                !
 ! A4    A(1,2,3)              121.457          estimate D2E/DX2                !
 ! A5    A(1,2,15)             118.8869         estimate D2E/DX2                !
 ! A6    A(3,2,15)             119.6325         estimate D2E/DX2                !
 ! A7    A(2,3,4)              120.2374         estimate D2E/DX2                !
 ! A8    A(2,3,20)             121.4759         estimate D2E/DX2                !
 ! A9    A(4,3,20)             118.2848         estimate D2E/DX2                !
 ! A10   A(3,4,5)              117.2208         estimate D2E/DX2                !
 ! A11   A(3,4,7)              120.8807         estimate D2E/DX2                !
 ! A12   A(5,4,7)              121.8985         estimate D2E/DX2                !
 ! A13   A(4,5,6)              122.3097         estimate D2E/DX2                !
 ! A14   A(4,5,16)             118.1196         estimate D2E/DX2                !
 ! A15   A(6,5,16)             119.5698         estimate D2E/DX2                !
 ! A16   A(1,6,5)              120.6273         estimate D2E/DX2                !
 ! A17   A(1,6,17)             120.3179         estimate D2E/DX2                !
 ! A18   A(5,6,17)             119.0534         estimate D2E/DX2                !
 ! A19   A(4,7,8)              119.3228         estimate D2E/DX2                !
 ! A20   A(4,7,25)             117.5363         estimate D2E/DX2                !
 ! A21   A(8,7,25)             123.1355         estimate D2E/DX2                !
 ! A22   A(7,8,9)              118.9788         estimate D2E/DX2                !
 ! A23   A(7,8,14)             123.1878         estimate D2E/DX2                !
 ! A24   A(9,8,14)             117.8253         estimate D2E/DX2                !
 ! A25   A(8,9,10)             120.0563         estimate D2E/DX2                !
 ! A26   A(8,9,20)             119.6093         estimate D2E/DX2                !
 ! A27   A(10,9,20)            120.334          estimate D2E/DX2                !
 ! A28   A(9,10,11)            121.2878         estimate D2E/DX2                !
 ! A29   A(9,10,12)            119.8321         estimate D2E/DX2                !
 ! A30   A(11,10,12)           118.8492         estimate D2E/DX2                !
 ! A31   A(10,12,13)           122.0113         estimate D2E/DX2                !
 ! A32   A(10,12,18)           118.9768         estimate D2E/DX2                !
 ! A33   A(13,12,18)           119.0096         estimate D2E/DX2                !
 ! A34   A(12,13,14)           119.6918         estimate D2E/DX2                !
 ! A35   A(12,13,19)           119.6648         estimate D2E/DX2                !
 ! A36   A(14,13,19)           120.637          estimate D2E/DX2                !
 ! A37   A(8,14,13)            120.5464         estimate D2E/DX2                !
 ! A38   A(8,14,36)            116.4189         estimate D2E/DX2                !
 ! A39   A(13,14,36)           123.0327         estimate D2E/DX2                !
 ! A40   A(3,20,9)             122.1288         estimate D2E/DX2                !
 ! A41   A(3,20,21)            118.6471         estimate D2E/DX2                !
 ! A42   A(9,20,21)            119.2235         estimate D2E/DX2                !
 ! A43   A(20,21,22)           109.7144         estimate D2E/DX2                !
 ! A44   A(20,21,23)           111.6211         estimate D2E/DX2                !
 ! A45   A(20,21,24)           109.1735         estimate D2E/DX2                !
 ! A46   A(22,21,23)           109.4567         estimate D2E/DX2                !
 ! A47   A(22,21,24)           107.3663         estimate D2E/DX2                !
 ! A48   A(23,21,24)           109.4109         estimate D2E/DX2                !
 ! A49   A(7,25,26)            120.218          estimate D2E/DX2                !
 ! A50   A(7,25,27)            119.9484         estimate D2E/DX2                !
 ! A51   A(26,25,27)           119.8022         estimate D2E/DX2                !
 ! A52   A(25,26,28)           120.0074         estimate D2E/DX2                !
 ! A53   A(25,26,33)           119.7678         estimate D2E/DX2                !
 ! A54   A(28,26,33)           120.2221         estimate D2E/DX2                !
 ! A55   A(25,27,29)           119.995          estimate D2E/DX2                !
 ! A56   A(25,27,34)           119.7929         estimate D2E/DX2                !
 ! A57   A(29,27,34)           120.2107         estimate D2E/DX2                !
 ! A58   A(26,28,30)           120.1724         estimate D2E/DX2                !
 ! A59   A(26,28,31)           119.6986         estimate D2E/DX2                !
 ! A60   A(30,28,31)           120.1288         estimate D2E/DX2                !
 ! A61   A(27,29,30)           120.1955         estimate D2E/DX2                !
 ! A62   A(27,29,32)           119.6892         estimate D2E/DX2                !
 ! A63   A(30,29,32)           120.1152         estimate D2E/DX2                !
 ! A64   A(28,30,29)           119.8212         estimate D2E/DX2                !
 ! A65   A(28,30,35)           120.0907         estimate D2E/DX2                !
 ! A66   A(29,30,35)           120.0866         estimate D2E/DX2                !
 ! A67   A(14,36,37)           121.0685         estimate D2E/DX2                !
 ! A68   A(36,37,38)           111.1173         estimate D2E/DX2                !
 ! A69   A(36,37,39)           111.1167         estimate D2E/DX2                !
 ! A70   A(36,37,40)           105.7301         estimate D2E/DX2                !
 ! A71   A(38,37,39)           109.6272         estimate D2E/DX2                !
 ! A72   A(38,37,40)           109.597          estimate D2E/DX2                !
 ! A73   A(39,37,40)           109.5738         estimate D2E/DX2                !
 ! A74   A(1,41,42)            120.1502         estimate D2E/DX2                !
 ! A75   A(1,41,46)            120.8632         estimate D2E/DX2                !
 ! A76   A(42,41,46)           118.9865         estimate D2E/DX2                !
 ! A77   A(41,42,43)           111.4915         estimate D2E/DX2                !
 ! A78   A(41,42,44)           109.413          estimate D2E/DX2                !
 ! A79   A(41,42,45)           111.323          estimate D2E/DX2                !
 ! A80   A(43,42,44)           108.0954         estimate D2E/DX2                !
 ! A81   A(43,42,45)           108.3538         estimate D2E/DX2                !
 ! A82   A(44,42,45)           108.0479         estimate D2E/DX2                !
 ! A83   A(41,46,47)           109.0183         estimate D2E/DX2                !
 ! A84   A(41,46,48)           111.5373         estimate D2E/DX2                !
 ! A85   A(41,46,49)           111.6432         estimate D2E/DX2                !
 ! A86   A(47,46,48)           107.9484         estimate D2E/DX2                !
 ! A87   A(47,46,49)           107.9822         estimate D2E/DX2                !
 ! A88   A(48,46,49)           108.5802         estimate D2E/DX2                !
 ! D1    D(6,1,2,3)              0.4296         estimate D2E/DX2                !
 ! D2    D(6,1,2,15)           178.6574         estimate D2E/DX2                !
 ! D3    D(41,1,2,3)          -179.398          estimate D2E/DX2                !
 ! D4    D(41,1,2,15)           -1.1703         estimate D2E/DX2                !
 ! D5    D(2,1,6,5)             -1.5866         estimate D2E/DX2                !
 ! D6    D(2,1,6,17)           178.8349         estimate D2E/DX2                !
 ! D7    D(41,1,6,5)           178.2426         estimate D2E/DX2                !
 ! D8    D(41,1,6,17)           -1.3359         estimate D2E/DX2                !
 ! D9    D(2,1,41,42)           -0.8029         estimate D2E/DX2                !
 ! D10   D(2,1,41,46)          179.0565         estimate D2E/DX2                !
 ! D11   D(6,1,41,42)          179.3736         estimate D2E/DX2                !
 ! D12   D(6,1,41,46)           -0.767          estimate D2E/DX2                !
 ! D13   D(1,2,3,4)              1.9356         estimate D2E/DX2                !
 ! D14   D(1,2,3,20)          -177.5495         estimate D2E/DX2                !
 ! D15   D(15,2,3,4)          -176.2792         estimate D2E/DX2                !
 ! D16   D(15,2,3,20)            4.2358         estimate D2E/DX2                !
 ! D17   D(2,3,4,5)             -3.0847         estimate D2E/DX2                !
 ! D18   D(2,3,4,7)            176.9834         estimate D2E/DX2                !
 ! D19   D(20,3,4,5)           176.4166         estimate D2E/DX2                !
 ! D20   D(20,3,4,7)            -3.5153         estimate D2E/DX2                !
 ! D21   D(2,3,20,9)          -170.5053         estimate D2E/DX2                !
 ! D22   D(2,3,20,21)            9.2205         estimate D2E/DX2                !
 ! D23   D(4,3,20,9)             9.9999         estimate D2E/DX2                !
 ! D24   D(4,3,20,21)         -170.2743         estimate D2E/DX2                !
 ! D25   D(3,4,5,6)              1.9734         estimate D2E/DX2                !
 ! D26   D(3,4,5,16)          -178.3678         estimate D2E/DX2                !
 ! D27   D(7,4,5,6)           -178.0955         estimate D2E/DX2                !
 ! D28   D(7,4,5,16)             1.5634         estimate D2E/DX2                !
 ! D29   D(3,4,7,8)             -2.942          estimate D2E/DX2                !
 ! D30   D(3,4,7,25)           177.8743         estimate D2E/DX2                !
 ! D31   D(5,4,7,8)            177.1293         estimate D2E/DX2                !
 ! D32   D(5,4,7,25)            -2.0544         estimate D2E/DX2                !
 ! D33   D(4,5,6,1)              0.3493         estimate D2E/DX2                !
 ! D34   D(4,5,6,17)           179.9331         estimate D2E/DX2                !
 ! D35   D(16,5,6,1)          -179.3047         estimate D2E/DX2                !
 ! D36   D(16,5,6,17)            0.279          estimate D2E/DX2                !
 ! D37   D(4,7,8,9)              3.2331         estimate D2E/DX2                !
 ! D38   D(4,7,8,14)          -175.7151         estimate D2E/DX2                !
 ! D39   D(25,7,8,9)          -177.6312         estimate D2E/DX2                !
 ! D40   D(25,7,8,14)            3.4206         estimate D2E/DX2                !
 ! D41   D(4,7,25,26)           84.8693         estimate D2E/DX2                !
 ! D42   D(4,7,25,27)          -93.0871         estimate D2E/DX2                !
 ! D43   D(8,7,25,26)          -94.2809         estimate D2E/DX2                !
 ! D44   D(8,7,25,27)           87.7628         estimate D2E/DX2                !
 ! D45   D(7,8,9,10)          -176.8425         estimate D2E/DX2                !
 ! D46   D(7,8,9,20)             2.8997         estimate D2E/DX2                !
 ! D47   D(14,8,9,10)            2.1622         estimate D2E/DX2                !
 ! D48   D(14,8,9,20)         -178.0956         estimate D2E/DX2                !
 ! D49   D(7,8,14,13)          177.9018         estimate D2E/DX2                !
 ! D50   D(7,8,14,36)           -1.6002         estimate D2E/DX2                !
 ! D51   D(9,8,14,13)           -1.0578         estimate D2E/DX2                !
 ! D52   D(9,8,14,36)          179.4402         estimate D2E/DX2                !
 ! D53   D(8,9,10,11)          176.2969         estimate D2E/DX2                !
 ! D54   D(8,9,10,12)           -1.6587         estimate D2E/DX2                !
 ! D55   D(20,9,10,11)          -3.4434         estimate D2E/DX2                !
 ! D56   D(20,9,10,12)         178.601          estimate D2E/DX2                !
 ! D57   D(8,9,20,3)            -9.7748         estimate D2E/DX2                !
 ! D58   D(8,9,20,21)          170.5009         estimate D2E/DX2                !
 ! D59   D(10,9,20,3)          169.9666         estimate D2E/DX2                !
 ! D60   D(10,9,20,21)          -9.7577         estimate D2E/DX2                !
 ! D61   D(9,10,12,13)          -0.0201         estimate D2E/DX2                !
 ! D62   D(9,10,12,18)         179.4308         estimate D2E/DX2                !
 ! D63   D(11,10,12,13)       -178.0255         estimate D2E/DX2                !
 ! D64   D(11,10,12,18)          1.4255         estimate D2E/DX2                !
 ! D65   D(10,12,13,14)          1.143          estimate D2E/DX2                !
 ! D66   D(10,12,13,19)       -179.7661         estimate D2E/DX2                !
 ! D67   D(18,12,13,14)       -178.3077         estimate D2E/DX2                !
 ! D68   D(18,12,13,19)          0.7831         estimate D2E/DX2                !
 ! D69   D(12,13,14,8)          -0.5627         estimate D2E/DX2                !
 ! D70   D(12,13,14,36)        178.9053         estimate D2E/DX2                !
 ! D71   D(19,13,14,8)        -179.6446         estimate D2E/DX2                !
 ! D72   D(19,13,14,36)         -0.1765         estimate D2E/DX2                !
 ! D73   D(8,14,36,37)         179.4358         estimate D2E/DX2                !
 ! D74   D(13,14,36,37)         -0.0526         estimate D2E/DX2                !
 ! D75   D(3,20,21,22)         150.3143         estimate D2E/DX2                !
 ! D76   D(3,20,21,23)         -88.1762         estimate D2E/DX2                !
 ! D77   D(3,20,21,24)          32.9088         estimate D2E/DX2                !
 ! D78   D(9,20,21,22)         -29.9518         estimate D2E/DX2                !
 ! D79   D(9,20,21,23)          91.5578         estimate D2E/DX2                !
 ! D80   D(9,20,21,24)        -147.3573         estimate D2E/DX2                !
 ! D81   D(7,25,26,28)        -178.8496         estimate D2E/DX2                !
 ! D82   D(7,25,26,33)           1.7439         estimate D2E/DX2                !
 ! D83   D(27,25,26,28)         -0.8903         estimate D2E/DX2                !
 ! D84   D(27,25,26,33)        179.7033         estimate D2E/DX2                !
 ! D85   D(7,25,27,29)         178.7083         estimate D2E/DX2                !
 ! D86   D(7,25,27,34)          -1.7209         estimate D2E/DX2                !
 ! D87   D(26,25,27,29)          0.7434         estimate D2E/DX2                !
 ! D88   D(26,25,27,34)       -179.6858         estimate D2E/DX2                !
 ! D89   D(25,26,28,30)          0.374          estimate D2E/DX2                !
 ! D90   D(25,26,28,31)       -179.8066         estimate D2E/DX2                !
 ! D91   D(33,26,28,30)        179.7777         estimate D2E/DX2                !
 ! D92   D(33,26,28,31)         -0.4029         estimate D2E/DX2                !
 ! D93   D(25,27,29,30)         -0.0799         estimate D2E/DX2                !
 ! D94   D(25,27,29,32)       -179.9537         estimate D2E/DX2                !
 ! D95   D(34,27,29,30)       -179.6488         estimate D2E/DX2                !
 ! D96   D(34,27,29,32)          0.4773         estimate D2E/DX2                !
 ! D97   D(26,28,30,29)          0.2907         estimate D2E/DX2                !
 ! D98   D(26,28,30,35)        179.8535         estimate D2E/DX2                !
 ! D99   D(31,28,30,29)       -179.5279         estimate D2E/DX2                !
 ! D100  D(31,28,30,35)          0.0349         estimate D2E/DX2                !
 ! D101  D(27,29,30,28)         -0.4381         estimate D2E/DX2                !
 ! D102  D(27,29,30,35)        179.9992         estimate D2E/DX2                !
 ! D103  D(32,29,30,28)        179.4352         estimate D2E/DX2                !
 ! D104  D(32,29,30,35)         -0.1275         estimate D2E/DX2                !
 ! D105  D(14,36,37,38)        -61.113          estimate D2E/DX2                !
 ! D106  D(14,36,37,39)         61.2416         estimate D2E/DX2                !
 ! D107  D(14,36,37,40)       -179.9497         estimate D2E/DX2                !
 ! D108  D(1,41,42,43)          61.977          estimate D2E/DX2                !
 ! D109  D(1,41,42,44)        -178.5056         estimate D2E/DX2                !
 ! D110  D(1,41,42,45)         -59.1527         estimate D2E/DX2                !
 ! D111  D(46,41,42,43)       -117.8851         estimate D2E/DX2                !
 ! D112  D(46,41,42,44)          1.6324         estimate D2E/DX2                !
 ! D113  D(46,41,42,45)        120.9853         estimate D2E/DX2                !
 ! D114  D(1,41,46,47)        -178.5119         estimate D2E/DX2                !
 ! D115  D(1,41,46,48)         -59.4041         estimate D2E/DX2                !
 ! D116  D(1,41,46,49)          62.2732         estimate D2E/DX2                !
 ! D117  D(42,41,46,47)          1.3492         estimate D2E/DX2                !
 ! D118  D(42,41,46,48)        120.457          estimate D2E/DX2                !
 ! D119  D(42,41,46,49)       -117.8658         estimate D2E/DX2                !
 --------------------------------------------------------------------------------
 Trust Radius=3.00D-01 FncErr=1.00D-07 GrdErr=1.00D-06
 Number of steps in this run=    269 maximum allowed number of steps=    294.
 GradGradGradGradGradGradGradGradGradGradGradGradGradGradGradGradGradGrad

 Leave Link  103 at Sat Feb 20 17:01:37 2021, MaxMem=  5242880000 cpu:         0.2
 (Enter /opt/nce/packages/global/g09/l202.exe)
                          Input orientation:                          
 ---------------------------------------------------------------------
 Center     Atomic      Atomic             Coordinates (Angstroms)
 Number     Number       Type             X           Y           Z
 ---------------------------------------------------------------------
      1          6           0       -3.546038   -0.539222   -0.035394
      2          6           0       -2.924890    0.729381    0.012289
      3          6           0       -1.532119    0.859167    0.073085
      4          6           0       -0.693790   -0.309567    0.046475
      5          6           0       -1.347220   -1.584457    0.025113
      6          6           0       -2.704472   -1.707088   -0.010297
      7          6           0        0.705534   -0.192852    0.043315
      8          6           0        1.296492    1.100077    0.003144
      9          6           0        0.442696    2.258512    0.037728
     10          6           0        0.999551    3.549684   -0.068005
     11          1           0        0.370473    4.433820   -0.104013
     12          6           0        2.371857    3.701614   -0.170483
     13          6           0        3.241862    2.604700   -0.172777
     14          6           0        2.725665    1.316055   -0.093731
     15          1           0       -3.543709    1.616340   -0.028011
     16          1           0       -0.726819   -2.479323    0.032204
     17          1           0       -3.144649   -2.701350   -0.026279
     18          1           0        2.787528    4.707514   -0.261131
     19          1           0        4.314384    2.768374   -0.251356
     20          7           0       -0.927207    2.095766    0.169916
     21          6           0       -1.766727    3.271016    0.414573
     22          1           0       -1.197352    4.022085    0.968577
     23          1           0       -2.134599    3.709805   -0.526067
     24          1           0       -2.618388    2.980960    1.038277
     25          6           0        1.503038   -1.453928    0.064113
     26          6           0        1.787329   -2.128117   -1.130477
     27          6           0        1.932987   -1.989290    1.284899
     28          6           0        2.513441   -3.320571   -1.103626
     29          6           0        2.656081   -3.183445    1.307376
     30          6           0        2.951752   -3.848973    0.114017
     31          1           0        2.734988   -3.840420   -2.038372
     32          1           0        2.988260   -3.596860    2.262260
     33          1           0        1.447536   -1.712579   -2.081832
     34          1           0        1.706774   -1.466116    2.216680
     35          1           0        3.517485   -4.782923    0.133666
     36          8           0        3.489713    0.225696   -0.112031
     37          6           0        4.901848    0.322518   -0.216512
     38          1           0        5.197602    0.814848   -1.157249
     39          1           0        5.326481    0.872895    0.638777
     40          1           0        5.271817   -0.709349   -0.209444
     41          7           0       -4.893245   -0.663178   -0.106336
     42          6           0       -5.737089    0.523030   -0.117485
     43          1           0       -5.533670    1.155498   -0.998244
     44          1           0       -6.789265    0.220957   -0.151315
     45          1           0       -5.585322    1.131742    0.789725
     46          6           0       -5.521661   -1.979163   -0.175644
     47          1           0       -6.606879   -1.852837   -0.253216
     48          1           0       -5.181625   -2.543736   -1.058459
     49          1           0       -5.312365   -2.577525    0.725843
 ---------------------------------------------------------------------
                    Distance matrix (angstroms):
                    1          2          3          4          5
     1  C    0.000000
     2  C    1.413312   0.000000
     3  C    2.454206   1.400126   0.000000
     4  C    2.862650   2.461379   1.438556   0.000000
     5  C    2.435360   2.800545   2.451079   1.432750   0.000000
     6  C    1.439713   2.446523   2.822593   2.449312   1.363241
     7  C    4.266384   3.745858   2.472796   1.404187   2.480059
     8  C    5.112620   4.237637   2.839713   2.439302   3.767814
     9  C    4.872644   3.698584   2.420601   2.808328   4.239383
    10  C    6.114131   4.833404   3.697045   4.215961   5.645831
    11  H    6.330475   4.959416   4.053315   4.863643   6.259936
    12  C    7.281787   6.076438   4.835272   5.053201   6.466246
    13  C    7.481892   6.448248   5.089030   4.902079   6.216741
    14  C    6.540620   5.681919   4.285475   3.788796   5.001548
    15  H    2.155576   1.082246   2.151749   3.440451   3.882330
    16  H    3.422946   3.889434   3.434486   2.170054   1.088914
    17  H    2.199089   3.437979   3.909911   3.425293   2.116800
    18  H    8.227591   6.966493   5.794896   6.114352   7.534386
    19  H    8.530713   7.525562   6.158890   5.885935   7.146841
    20  N    3.720697   2.425405   1.380026   2.419783   3.706942
    21  C    4.229224   2.821893   2.447176   3.755964   4.889098
    22  H    5.227792   3.839372   3.304244   4.457248   5.687345
    23  H    4.504126   3.130066   2.974576   4.308026   5.380797
    24  H    3.795390   2.493231   2.571688   3.938949   4.846174
    25  C    5.132227   4.937213   3.816106   2.477080   2.853512
    26  C    5.671737   5.628163   4.625058   3.293674   3.384723
    27  C    5.819415   5.710488   4.646414   3.354865   3.537048
    28  C    6.752356   6.871886   5.934763   4.547000   4.380964
    29  C    6.874680   6.937917   5.950395   4.590281   4.497486
    30  C    7.293699   7.450275   6.501796   5.081529   4.859742
    31  H    7.372999   7.557944   6.689736   5.345094   5.100173
    32  H    7.571355   7.664468   6.714350   5.410498   5.277403
    33  H    5.522722   5.428317   4.487303   3.329176   3.502327
    34  H    5.789905   5.579593   4.526850   3.436583   3.760831
    35  H    8.242023   8.479648   7.572011   6.144376   5.823000
    36  O    7.077624   6.435549   5.065012   4.220584   5.166370
    37  C    8.493655   7.840645   6.462800   5.637363   6.538026
    38  H    8.918705   8.206705   6.841406   6.117333   7.070314
    39  H    9.009449   8.276364   6.881903   6.163822   7.138168
    40  H    8.821213   8.324969   6.988105   5.984462   6.680755
    41  N    1.354756   2.414066   3.694170   4.217086   3.666105
    42  C    2.436354   2.822744   4.222686   5.114193   4.871631
    43  H    2.783853   2.829927   4.153067   5.163554   5.106954
    44  H    3.333141   3.901110   5.300495   6.121715   5.736419
    45  H    2.762539   2.800750   4.125085   5.153337   5.091550
    46  C    2.448711   3.756960   4.902492   5.113240   4.197863
    47  H    3.337930   4.505040   5.763213   6.118506   5.273851
    48  H    2.782065   4.117359   5.116545   5.133522   4.098415
    49  H    2.802512   4.140631   5.150457   5.190030   4.147238
                    6          7          8          9         10
     6  C    0.000000
     7  C    3.731478   0.000000
     8  C    4.887542   1.422150   0.000000
     9  C    5.062900   2.465421   1.439491   0.000000
    10  C    6.430923   3.755717   2.468564   1.410104   0.000000
    11  H    6.868393   4.641128   3.461623   2.181117   1.085694
    12  C    7.419490   4.241369   2.820381   2.418172   1.384488
    13  C    7.346891   3.782321   2.465624   2.828337   2.435555
    14  C    6.215524   2.525175   1.448643   2.473349   2.822982
    15  H    3.427799   4.618910   4.867756   4.038333   4.937675
    16  H    2.123503   2.698093   4.111780   4.880049   6.272107
    17  H    1.087459   4.595793   5.845977   6.121550   7.500104
    18  H    8.448201   5.333008   3.912369   3.403699   2.138862
    19  H    8.327797   4.677552   3.457695   3.915801   3.410598
    20  N    4.201529   2.814186   2.442140   1.385855   2.425465
    21  C    5.083444   4.271802   3.776978   2.459416   2.821849
    22  H    6.004417   4.716225   3.960991   2.581942   2.474681
    23  H    5.471152   4.860173   4.343170   3.011074   3.171491
    24  H    4.804655   4.702286   4.464920   3.300495   3.825806
    25  C    4.215776   1.492233   2.563068   3.860988   5.030615
    26  C    4.648478   2.508649   3.456480   4.734475   5.829825
    27  C    4.823194   2.505067   3.404734   4.671212   5.777706
    28  C    5.570037   3.790333   4.716782   6.059442   7.110891
    29  C    5.714142   3.787629   4.679537   6.010489   7.069002
    30  C    6.049462   4.291587   5.219701   6.603223   7.654041
    31  H    6.184814   4.664425   5.535844   6.838257   7.842686
    32  H    6.414277   4.660668   5.479681   6.761200   7.775486
    33  H    4.640092   2.715950   3.504422   4.612136   5.652221
    34  H    4.947382   2.710572   3.413711   4.496507   5.556816
    35  H    6.942207   5.383678   6.289637   7.684096   8.707066
    36  O    6.489525   2.819746   2.363901   3.665935   4.153522
    37  C    7.875146   4.235820   3.694785   4.867930   5.066022
    38  H    8.373675   4.757677   4.080016   5.110897   5.127320
    39  H    8.460131   4.779492   4.086129   5.112001   5.136834
    40  H    8.040916   4.602347   4.372920   5.673597   6.034204
    41  N    2.426870   5.620492   6.436917   6.085170   7.243944
    42  C    3.765857   6.484268   7.058243   6.420727   7.385486
    43  H    4.144249   6.467655   6.903402   6.164968   7.020003
    44  H    4.519157   7.508737   8.134874   7.515892   8.470715
    45  H    4.122898   6.471982   6.926693   6.178358   7.067015
    46  C    2.835122   6.482037   7.483375   7.319629   8.550201
    47  H    3.912676   7.504323   8.440894   8.166048   9.331630
    48  H    2.816897   6.434221   7.508021   7.476376   8.736000
    49  H    2.846167   6.509041   7.597634   7.548608   8.832506
                   11         12         13         14         15
    11  H    0.000000
    12  C    2.132154   0.000000
    13  C    3.405185   1.400048   0.000000
    14  C    3.907364   2.412874   1.390436   0.000000
    15  H    4.823359   6.273961   6.858702   6.276905   0.000000
    16  H    7.001011   6.917142   6.452886   5.132290   4.971212
    17  H    7.954419   8.452845   8.304406   7.113697   4.336093
    18  H    2.437570   1.092170   2.153149   3.396151   7.049416
    19  H    4.283673   2.156592   1.087781   2.158264   7.945231
    20  N    2.688030   3.684894   4.213975   3.744454   2.667416
    21  C    2.487703   4.201855   5.086740   4.925630   2.468096
    22  H    1.943721   3.760241   4.797738   4.882741   3.505166
    23  H    2.641536   4.520470   5.500219   5.434990   2.572207
    24  H    3.514103   5.184881   5.995895   5.710714   1.963511
    25  C    5.998045   5.233497   4.421774   3.031920   5.908019
    26  C    6.791180   5.937089   5.043056   3.717208   6.607296
    27  C    6.754766   5.890427   4.994268   3.668006   6.687189
    28  C    8.106918   7.085329   6.042012   4.750077   7.887909
    29  C    8.077051   7.047616   6.003050   4.713114   7.953527
    30  C    8.678433   7.578165   6.466553   5.174146   8.490043
    31  H    8.820188   7.778377   6.728814   5.510984   8.558026
    32  H    8.771766   7.717896   6.667313   5.454941   8.665415
    33  H    6.545995   5.815592   5.050049   3.841716   6.341325
    34  H    6.479241   5.731171   4.963622   3.757208   6.489048
    35  H    9.742101   8.566933   7.399111   6.154366   9.530853
    36  O    5.238132   3.651715   2.392651   1.331536   7.170075
    37  C    6.119544   4.221524   2.822379   2.395405   8.546165
    38  H    6.124332   4.158360   2.828016   2.737289   8.850316
    39  H    6.147678   4.169695   2.829029   2.738102   8.926230
    40  H    7.105384   5.279004   3.886513   3.255540   9.118950
    41  N    7.327081   8.475685   8.767178   7.871805   2.650205
    42  C    7.252363   8.709834   9.217265   8.499862   2.452396
    43  H    6.812191   8.346571   8.932611   8.310267   2.261343
    44  H    8.307364   9.800076  10.310490   9.577915   3.534958
    45  H    6.868332   8.416825   9.000844   8.359843   2.252046
    46  C    8.709117   9.725167   9.889952   8.881642   4.106304
    47  H    9.392963  10.558242  10.810819   9.857164   4.633456
    48  H    8.967890   9.841138   9.911910   8.851775   4.588118
    49  H    9.063237   9.963847  10.041801   8.968924   4.613561
                   16         17         18         19         20
    16  H    0.000000
    17  H    2.428707   0.000000
    18  H    8.005455   9.494058   0.000000
    19  H    7.282339   9.252336   2.468127   0.000000
    20  N    4.581546   5.288465   4.561391   5.301335   0.000000
    21  C    5.856109   6.145094   4.823001   6.138080   1.464877
    22  H    6.585325   7.070098   4.226259   5.782669   2.102746
    23  H    6.371720   6.509447   5.029210   6.523123   2.132442
    24  H    5.865570   5.805073   5.821802   7.054904   2.097072
    25  C    2.454530   4.813027   6.302306   5.082423   4.303210
    26  C    2.792152   5.086478   6.962903   5.579828   5.186609
    27  C    2.980595   5.292316   6.925867   5.537734   5.109949
    28  C    3.535123   5.792935   8.076823   6.406638   6.541917
    29  C    3.683187   5.971559   8.046411   6.372108   6.481037
    30  C    3.926133   6.205065   8.566281   6.766058   7.098547
    31  H    4.257227   6.317921   8.730895   7.025957   7.316182
    32  H    4.474802   6.606960   8.681614   6.970873   7.219056
    33  H    3.128077   5.127488   6.806477   5.625691   5.021281
    34  H    3.423580   5.485706   6.739531   5.551733   4.879969
    35  H    4.830216   6.981587   9.526652   7.602985   8.189809
    36  O    5.011694   7.251876   4.538941   2.676697   4.804772
    37  C    6.292381   8.598028   4.868319   2.515659   6.105049
    38  H    6.882233   9.123371   4.665226   2.327441   6.396515
    39  H    6.946059   9.218328   4.686195   2.325837   6.389355
    40  H    6.258980   8.650926   5.959595   3.607352   6.814725
    41  N    4.547162   2.686660   9.373504   9.827360   4.839168
    42  C    5.842888   4.138320   9.497349  10.300078   5.068635
    43  H    6.113883   4.639764   9.077582  10.007166   4.844399
    44  H    6.639160   4.673194  10.576210  11.392557   6.162939
    45  H    6.100711   4.616854   9.164882  10.087943   4.797035
    46  C    4.825336   2.488785  10.665907  10.922116   6.150891
    47  H    5.920224   3.571906  11.458322  11.858734   6.930309
    48  H    4.586828   2.288997  10.803877  10.910734   6.413576
    49  H    4.638751   2.297828  10.938655  11.054766   6.432598
                   21         22         23         24         25
    21  C    0.000000
    22  H    1.093258   0.000000
    23  H    1.101213   1.791623   0.000000
    24  H    1.094745   1.762993   1.792328   0.000000
    25  C    5.756673   6.172267   6.343883   6.132159   0.000000
    26  C    6.645986   7.151177   7.058907   7.086360   1.400856
    27  C    6.489697   6.784962   7.232188   6.743828   1.400638
    28  C    8.004610   8.484021   8.447724   8.404327   2.422578
    29  C    7.875176   8.178227   8.592382   8.117409   2.422074
    30  C    8.546849   8.938618   9.133225   8.861642   2.799554
    31  H    8.766693   9.291072   9.110754   9.200849   3.410790
    32  H    8.555207   8.788702   9.349107   8.729281   3.410263
    33  H    6.434263   7.013330   6.682391   6.949541   2.162189
    34  H    6.144365   6.333408   7.004924   6.314439   2.162221
    35  H    9.636791  10.022721  10.222902   9.937059   3.891663
    36  O    6.097659   6.127713   6.628976   6.798793   2.607497
    37  C    7.318593   7.231284   7.815441   8.074389   3.845311
    38  H    7.550183   7.463306   7.908245   8.402504   4.504317
    39  H    7.490985   7.251659   8.066761   8.229489   4.512545
    40  H    8.110105   8.100886   8.630421   8.799462   3.851354
    41  N    5.052162   6.063559   5.187416   4.445768   6.447230
    42  C    4.857807   5.833706   4.827050   4.135638   7.507382
    43  H    4.545473   5.557820   4.277981   3.997324   7.579773
    44  H    5.903302   6.853628   5.829101   5.140910   8.462502
    45  H    4.393051   5.257409   4.503910   3.504866   7.580043
    46  C    6.481687   7.484909   6.630184   5.874131   7.048386
    47  H    7.080034   8.079014   7.142739   6.398563   8.125920
    48  H    6.902369   7.943130   6.976717   6.441176   6.865316
    49  H    6.846449   7.781202   7.155138   6.184811   6.939025
                   26         27         28         29         30
    26  C    0.000000
    27  C    2.423743   0.000000
    28  C    1.396390   2.795405   0.000000
    29  C    2.794919   1.396201   2.419107   0.000000
    30  C    2.421981   2.422244   1.397848   1.398018   0.000000
    31  H    2.157386   3.887675   1.092280   3.410553   2.163293
    32  H    3.887172   2.157108   3.410422   1.092272   2.163294
    33  H    1.092340   3.412786   2.163025   3.887256   3.413004
    34  H    3.412945   1.092291   3.887692   2.162692   3.413088
    35  H    3.411670   3.411797   2.162746   2.162855   1.092109
    36  O    3.078275   3.046469   3.809511   3.785750   4.116239
    37  C    4.067084   4.051275   4.445622   4.433676   4.616650
    38  H    4.504633   4.948231   4.930445   5.340417   5.330214
    39  H    4.966078   4.486132   5.341752   4.902240   5.311379
    40  H    3.873353   3.875448   3.902138   3.906913   3.917214
    41  N    6.915561   7.091654   7.931918   8.083480   8.470054
    42  C    8.041865   8.191978   9.155162   9.285122   9.729541
    43  H    8.024752   8.417446   9.208816   9.550619   9.913841
    44  H    8.946221   9.111837   9.999483  10.145555  10.560405
    45  H    8.286727   8.155428   9.433866   9.317163   9.906853
    46  C    7.372600   7.596385   8.198987   8.397923   8.682098
    47  H    8.444412   8.678348   9.276728   9.487275   9.771737
    48  H    6.981708   7.511088   7.734310   8.211945   8.320467
    49  H    7.352112   7.290658   8.071079   8.012581   8.383707
                   31         32         33         34         35
    31  H    0.000000
    32  H    4.314963   0.000000
    33  H    2.487394   4.979506   0.000000
    34  H    4.979961   2.486836   4.313369   0.000000
    35  H    2.493664   2.493539   4.315105   4.314954   0.000000
    36  O    4.562203   4.527764   3.436206   3.385852   5.014719
    37  C    5.034333   5.016737   4.421912   4.396377   5.301378
    38  H    5.339697   6.003116   4.615814   5.363961   5.985340
    39  H    6.008186   5.299215   5.397463   4.589448   5.959520
    40  H    4.425391   4.434149   4.374635   4.378162   4.448529
    41  N    8.486317   8.736982   6.723788   7.042824   9.368579
    42  C    9.721399   9.938229   7.776596   8.050846  10.670677
    43  H    9.716572  10.287812   7.624780   8.344617  10.884368
    44  H   10.524598  10.770379   8.678153   8.979771  11.460765
    45  H   10.096934   9.901229   8.111541   7.871450  10.875420
    46  C    8.666388   8.998837   7.230099   7.631298   9.469050
    47  H    9.716365  10.071541   8.260576   8.681403  10.546935
    48  H    8.081731   8.881625   6.758986   7.703106   9.061437
    49  H    8.602074   8.502940   7.370714   7.261277   9.120346
                   36         37         38         39         40
    36  O    0.000000
    37  C    1.419301   0.000000
    38  H    2.087215   1.102200   0.000000
    39  H    2.087174   1.102156   1.801579   0.000000
    40  H    2.014868   1.096210   1.796390   1.796097   0.000000
    41  N    8.429953   9.845181  10.252520  10.361347  10.165690
    42  C    9.231593  10.641287  10.987890  11.094905  11.078052
    43  H    9.114348  10.497857  10.737855  10.986473  10.993562
    44  H   10.279054  11.691736  12.043654  12.158971  12.097047
    45  H    9.164625  10.566366  10.961869  10.915916  11.057370
    46  C    9.277409  10.674687  11.120820  11.246319  10.867968
    47  H   10.309287  11.712571  12.135880  12.273156  11.933688
    48  H    9.151917  10.516687  10.909546  11.179189  10.647077
    49  H    9.275595  10.659664  11.203287  11.184723  10.788408
                   41         42         43         44         45
    41  N    0.000000
    42  C    1.455777   0.000000
    43  H    2.124436   1.103237   0.000000
    44  H    2.092513   1.095202   1.779656   0.000000
    45  H    2.122177   1.102993   1.788873   1.778922   0.000000
    46  C    1.459975   2.512123   3.240820   2.539279   3.257870
    47  H    2.091268   2.533713   3.279775   2.084291   3.322502
    48  H    2.127487   3.255615   3.716436   3.324296   4.133751
    49  H    2.129063   3.241147   4.117877   3.283617   3.719845
                   46         47         48         49
    46  C    0.000000
    47  H    1.095296   0.000000
    48  H    1.101694   1.776825   0.000000
    49  H    1.102053   1.777497   1.789404   0.000000
 Symmetry turned off by external request.
 Stoichiometry    C23H23N2O(1+)
 Framework group  C1[X(C23H23N2O)]
 Deg. of freedom   141
 Full point group                 C1      NOp   1
 Rotational constants (GHZ):      0.3025118      0.1572134      0.1079473
 Leave Link  202 at Sat Feb 20 17:01:37 2021, MaxMem=  5242880000 cpu:         0.2
 (Enter /opt/nce/packages/global/g09/l301.exe)
 Standard basis: def2TZVP (5D, 7F)
 Ernie: Thresh=  0.10000D-02 Tol=  0.10000D-05 Strict=F.
   944 basis functions,  1510 primitive gaussians,  1074 cartesian basis functions
    91 alpha electrons       91 beta electrons
       nuclear repulsion energy      2265.4588529966 Hartrees.
 IExCor= 4235 DFT=T Ex+Corr=M06 ExCW=0 ScaHFX=  0.270000
 ScaDFX=  1.000000  1.000000  1.000000  1.000000 ScalE2=  1.000000  1.000000
 IRadAn=      5 IRanWt=     -1 IRanGd=            0 ICorTp=0 IEmpDi=  4
 NAtoms=   49 NActive=   49 NUniq=   49 SFac= 1.00D+00 NAtFMM=   60 NAOKFM=F Big=F
 Integral buffers will be    131072 words long.
 Raffenetti 2 integral format.
 Two-electron integral symmetry is turned off.
 ------------------------------------------------------------------------------
 Polarizable Continuum Model (PCM)
 =================================
 Model                : PCM (using non-symmetric T matrix).
 Atomic radii         : SMD-Coulomb.
 Polarization charges : Total charges.
 Charge compensation  : None.
 Solution method      : On-the-fly selection.
 Cavity type          : VdW (van der Waals Surface) (Alpha=1.000).
 Cavity algorithm     : GePol (No added spheres)
                        Default sphere list used, NSphG=   49.
                        Lebedev-Laikov grids with approx.  5.0 points / Ang**2.
                        Smoothing algorithm: York/Karplus (Gamma=1.0000).
                        Polarization charges: spherical gaussians, with
                                              point-specific exponents (IZeta= 3).
                        Self-potential: point-specific (ISelfS= 7).
                        Self-field    : sphere-specific E.n sum rule (ISelfD= 2).
 1st derivatives      : Analytical E(r).r(x)/FMM algorithm (CHGder, D1EAlg=3).
                        Cavity 1st derivative terms included.
 Solvent              : Acetonitrile, Eps=  35.688000 Eps(inf)=   1.806874
 ------------------------------------------------------------------------------
 GePol: Number of generator spheres                  =      49
 GePol: Total number of spheres                      =      49
 GePol: Number of exposed spheres                    =      49 (100.00%)
 GePol: Number of points                             =    3423
 GePol: Average weight of points                     =       0.11
 GePol: Minimum weight of points                     =   0.53D-09
 GePol: Maximum weight of points                     =    0.21559
 GePol: Number of points with low weight             =     226
 GePol: Fraction of low-weight points (<1% of avg)   =       6.60%
 GePol: Cavity surface area                          =    371.417 Ang**2
 GePol: Cavity volume                                =    367.304 Ang**3
 ------------------------------------------------------------------------------
 Atomic radii for non-electrostatic terms: SMD-CDS.
 ------------------------------------------------------------------------------
 PCM non-electrostatic energy =        -0.0069084157 Hartrees.
 Nuclear repulsion after PCM non-electrostatic terms =     2265.4519445809 Hartrees.
 Leave Link  301 at Sat Feb 20 17:01:55 2021, MaxMem=  5242880000 cpu:        36.0
 (Enter /opt/nce/packages/global/g09/l302.exe)
 NPDir=0 NMtPBC=     1 NCelOv=     1 NCel=       1 NClECP=     1 NCelD=      1
         NCelK=      1 NCelE2=     1 NClLst=     1 CellRange=     0.0.
 One-electron integrals computed using PRISM.
   1 Symmetry operations used in ECPInt.
 ECPInt:  NShTT=   71631 NPrTT=  217452 LenC2=   60193 LenP2D=  127896.
 LDataN:  DoStor=T MaxTD1= 6 Len=  172
 NBasis=   944 RedAO= T EigKep=  4.90D-06  NBF=   944
 NBsUse=   944 1.00D-06 EigRej= -1.00D+00 NBFU=   944
 Precomputing XC quadrature grid using
 IXCGrd= 4 IRadAn=           5 IRanWt=          -1 IRanGd=           0 AccXCQ= 0.00D+00.
 Generated NRdTot=       0 NPtTot=           0 NUsed=           0 NTot=          32
 NSgBfM=  1056  1056  1056  1056  1056 MxSgAt=    49 MxSgA2=    49.
 Leave Link  302 at Sat Feb 20 17:02:03 2021, MaxMem=  5242880000 cpu:        41.1
 (Enter /opt/nce/packages/global/g09/l303.exe)
 DipDrv:  MaxL=1.
 Leave Link  303 at Sat Feb 20 17:02:04 2021, MaxMem=  5242880000 cpu:         4.6
 (Enter /opt/nce/packages/global/g09/l401.exe)
 ExpMin= 9.52D-02 ExpMax= 2.70D+04 ExpMxC= 9.22D+02 IAcc=3 IRadAn=         5 AccDes= 0.00D+00
 Harris functional with IExCor= 1009 and IRadAn=       5 diagonalized for initial guess.
 HarFok:  IExCor= 1009 AccDes= 0.00D+00 IRadAn=         5 IDoV= 1 UseB2=F ITyADJ=14
 ICtDFT=  3500011 ScaDFX=  1.000000  1.000000  1.000000  1.000000
 FoFCou: FMM=F IPFlag=           0 FMFlag=      100000 FMFlg1=           0
         NFxFlg=           0 DoJE=T BraDBF=F KetDBF=T FulRan=T
         wScrn=  0.000000 ICntrl=     500 IOpCl=  0 I1Cent=   200000004 NGrid=           0
         NMat0=    1 NMatS0=      1 NMatT0=    0 NMatD0=    1 NMtDS0=    0 NMtDT0=    0
 Symmetry not used in FoFCou.
 Harris En= -1074.23172606395    
 JPrj=0 DoOrth=F DoCkMO=F.
 Leave Link  401 at Sat Feb 20 17:02:14 2021, MaxMem=  5242880000 cpu:       113.0
 (Enter /opt/nce/packages/global/g09/l502.exe)
 Closed shell SCF:
 Using DIIS extrapolation, IDIIS=  1040.
 Two-electron integral symmetry not used.
 IVT=     3498408 IEndB=     3498408 NGot=  5242880000 MDV=  5240552783
 LenX=  5240552783 LenY=  5239398233
 Requested convergence on RMS density matrix=1.00D-08 within 128 cycles.
 Requested convergence on MAX density matrix=1.00D-06.
 Requested convergence on             energy=1.00D-06.
 No special actions if energy rises.
 Fock matrices will be formed incrementally for  20 cycles.

 Cycle   1  Pass 1  IDiag  1:
 FoFJK:  IHMeth= 1 ICntrl=       0 DoSepK=F KAlg= 0 I1Cent=   0 FoldK=F
 IRaf= 730000000 NMat=   1 IRICut=       1 DoRegI=T DoRafI=F ISym2E= 0.
 FoFCou: FMM=F IPFlag=           0 FMFlag=      100000 FMFlg1=           0
         NFxFlg=           0 DoJE=F BraDBF=F KetDBF=F FulRan=T
         wScrn=  0.000000 ICntrl=       0 IOpCl=  0 I1Cent=           0 NGrid=           0
         NMat0=    1 NMatS0=      1 NMatT0=    0 NMatD0=    1 NMtDS0=    0 NMtDT0=    0
 Symmetry not used in FoFCou.
 Inv3:  Mode=1 IEnd=    35150787.
 Iteration    1 A*A^-1 deviation from unit magnitude is 7.11D-15 for   3420.
 Iteration    1 A*A^-1 deviation from orthogonality  is 3.92D-15 for   1828     66.
 Iteration    1 A^-1*A deviation from unit magnitude is 6.88D-15 for   3420.
 Iteration    1 A^-1*A deviation from orthogonality  is 1.43D-12 for   1975   1947.
 E= -1074.03072854288    
 DIIS: error= 2.56D-02 at cycle   1 NSaved=   1.
 NSaved= 1 IEnMin= 1 EnMin= -1074.03072854288     IErMin= 1 ErrMin= 2.56D-02
 ErrMax= 2.56D-02  0.00D+00 EMaxC= 1.00D-01 BMatC= 4.53D-01 BMatP= 4.53D-01
 IDIUse=3 WtCom= 7.44D-01 WtEn= 2.56D-01
 Coeff-Com:  0.100D+01
 Coeff-En:   0.100D+01
 Coeff:      0.100D+01
 Gap=     0.143 Goal=   None    Shift=    0.000
 GapD=    0.143 DampG=1.000 DampE=0.500 DampFc=0.5000 IDamp=-1.
 Damping current iteration by 5.00D-01
 RMSDP=2.65D-03 MaxDP=2.78D-01              OVMax= 2.00D-01

 Cycle   2  Pass 1  IDiag  1:
 RMSU=  1.32D-03    CP:  1.01D+00
 E= -1074.23133846056     Delta-E=       -0.200609917679 Rises=F Damp=T
 DIIS: error= 3.27D-03 at cycle   2 NSaved=   2.
 NSaved= 2 IEnMin= 2 EnMin= -1074.23133846056     IErMin= 2 ErrMin= 3.27D-03
 ErrMax= 3.27D-03  0.00D+00 EMaxC= 1.00D-01 BMatC= 3.66D-02 BMatP= 4.53D-01
 IDIUse=3 WtCom= 9.67D-01 WtEn= 3.27D-02
 Coeff-Com:  0.436D-01 0.956D+00
 Coeff-En:   0.697D-01 0.930D+00
 Coeff:      0.444D-01 0.956D+00
 Gap=     0.174 Goal=   None    Shift=    0.000
 RMSDP=9.87D-04 MaxDP=4.02D-02 DE=-2.01D-01 OVMax= 1.61D-01

 Cycle   3  Pass 1  IDiag  1:
 RMSU=  9.46D-04    CP:  1.00D+00  1.21D+00
 E= -1074.44926383616     Delta-E=       -0.217925375609 Rises=F Damp=F
 DIIS: error= 3.85D-03 at cycle   3 NSaved=   3.
 NSaved= 3 IEnMin= 3 EnMin= -1074.44926383616     IErMin= 2 ErrMin= 3.27D-03
 ErrMax= 3.85D-03  0.00D+00 EMaxC= 1.00D-01 BMatC= 2.84D-02 BMatP= 3.66D-02
 IDIUse=3 WtCom= 9.62D-01 WtEn= 3.85D-02
 Coeff-Com: -0.342D-01 0.476D+00 0.558D+00
 Coeff-En:   0.000D+00 0.000D+00 0.100D+01
 Coeff:     -0.328D-01 0.458D+00 0.575D+00
 Gap=     0.131 Goal=   None    Shift=    0.000
 RMSDP=2.98D-04 MaxDP=2.65D-02 DE=-2.18D-01 OVMax= 6.27D-02

 Cycle   4  Pass 1  IDiag  1:
 RMSU=  2.90D-04    CP:  1.01D+00  1.17D+00  9.62D-01
 E= -1074.47140355331     Delta-E=       -0.022139717149 Rises=F Damp=F
 DIIS: error= 2.18D-03 at cycle   4 NSaved=   4.
 NSaved= 4 IEnMin= 4 EnMin= -1074.47140355331     IErMin= 4 ErrMin= 2.18D-03
 ErrMax= 2.18D-03  0.00D+00 EMaxC= 1.00D-01 BMatC= 5.25D-03 BMatP= 2.84D-02
 IDIUse=3 WtCom= 9.78D-01 WtEn= 2.18D-02
 Coeff-Com: -0.170D-01 0.107D+00 0.326D+00 0.584D+00
 Coeff-En:   0.000D+00 0.000D+00 0.164D+00 0.836D+00
 Coeff:     -0.166D-01 0.105D+00 0.322D+00 0.589D+00
 Gap=     0.131 Goal=   None    Shift=    0.000
 RMSDP=1.04D-04 MaxDP=9.41D-03 DE=-2.21D-02 OVMax= 2.62D-02

 Cycle   5  Pass 1  IDiag  1:
 RMSU=  8.75D-05    CP:  1.00D+00  1.16D+00  9.63D-01  8.13D-01
 E= -1074.47611766443     Delta-E=       -0.004714111119 Rises=F Damp=F
 DIIS: error= 4.09D-04 at cycle   5 NSaved=   5.
 NSaved= 5 IEnMin= 5 EnMin= -1074.47611766443     IErMin= 5 ErrMin= 4.09D-04
 ErrMax= 4.09D-04  0.00D+00 EMaxC= 1.00D-01 BMatC= 3.24D-04 BMatP= 5.25D-03
 IDIUse=3 WtCom= 9.96D-01 WtEn= 4.09D-03
 Coeff-Com: -0.499D-02 0.186D-01 0.121D+00 0.296D+00 0.569D+00
 Coeff-En:   0.000D+00 0.000D+00 0.000D+00 0.000D+00 0.100D+01
 Coeff:     -0.497D-02 0.185D-01 0.121D+00 0.295D+00 0.571D+00
 Gap=     0.131 Goal=   None    Shift=    0.000
 RMSDP=2.51D-05 MaxDP=1.92D-03 DE=-4.71D-03 OVMax= 7.36D-03

 Cycle   6  Pass 1  IDiag  1:
 RMSU=  2.40D-05    CP:  1.00D+00  1.17D+00  9.62D-01  8.02D-01  9.39D-01
 E= -1074.47637714253     Delta-E=       -0.000259478096 Rises=F Damp=F
 DIIS: error= 1.96D-04 at cycle   6 NSaved=   6.
 NSaved= 6 IEnMin= 6 EnMin= -1074.47637714253     IErMin= 6 ErrMin= 1.96D-04
 ErrMax= 1.96D-04  0.00D+00 EMaxC= 1.00D-01 BMatC= 4.01D-05 BMatP= 3.24D-04
 IDIUse=3 WtCom= 9.98D-01 WtEn= 1.96D-03
 Coeff-Com: -0.716D-03 0.255D-04 0.291D-01 0.894D-01 0.309D+00 0.573D+00
 Coeff-En:   0.000D+00 0.000D+00 0.000D+00 0.000D+00 0.603D-01 0.940D+00
 Coeff:     -0.715D-03 0.254D-04 0.291D-01 0.892D-01 0.309D+00 0.573D+00
 Gap=     0.131 Goal=   None    Shift=    0.000
 RMSDP=1.09D-05 MaxDP=8.03D-04 DE=-2.59D-04 OVMax= 2.66D-03

 Cycle   7  Pass 1  IDiag  1:
 RMSU=  9.01D-06    CP:  1.00D+00  1.17D+00  9.64D-01  8.15D-01  9.79D-01
                    CP:  9.35D-01
 E= -1074.47641201193     Delta-E=       -0.000034869406 Rises=F Damp=F
 DIIS: error= 6.82D-05 at cycle   7 NSaved=   7.
 NSaved= 7 IEnMin= 7 EnMin= -1074.47641201193     IErMin= 7 ErrMin= 6.82D-05
 ErrMax= 6.82D-05  0.00D+00 EMaxC= 1.00D-01 BMatC= 4.22D-06 BMatP= 4.01D-05
 IDIUse=1 WtCom= 1.00D+00 WtEn= 0.00D+00
 Coeff-Com:  0.275D-03-0.232D-02 0.137D-02 0.124D-01 0.104D+00 0.304D+00
 Coeff-Com:  0.581D+00
 Coeff:      0.275D-03-0.232D-02 0.137D-02 0.124D-01 0.104D+00 0.304D+00
 Coeff:      0.581D+00
 Gap=     0.131 Goal=   None    Shift=    0.000
 RMSDP=5.44D-06 MaxDP=6.23D-04 DE=-3.49D-05 OVMax= 6.83D-04

 Cycle   8  Pass 1  IDiag  1:
 RMSU=  3.71D-06    CP:  1.00D+00  1.16D+00  9.65D-01  8.21D-01  1.01D+00
                    CP:  9.79D-01  9.90D-01
 E= -1074.47641582643     Delta-E=       -0.000003814500 Rises=F Damp=F
 DIIS: error= 1.56D-05 at cycle   8 NSaved=   8.
 NSaved= 8 IEnMin= 8 EnMin= -1074.47641582643     IErMin= 8 ErrMin= 1.56D-05
 ErrMax= 1.56D-05  0.00D+00 EMaxC= 1.00D-01 BMatC= 4.42D-07 BMatP= 4.22D-06
 IDIUse=1 WtCom= 1.00D+00 WtEn= 0.00D+00
 Coeff-Com:  0.288D-03-0.114D-02-0.397D-02-0.900D-02 0.181D-02 0.518D-01
 Coeff-Com:  0.266D+00 0.694D+00
 Coeff:      0.288D-03-0.114D-02-0.397D-02-0.900D-02 0.181D-02 0.518D-01
 Coeff:      0.266D+00 0.694D+00
 Gap=     0.131 Goal=   None    Shift=    0.000
 RMSDP=2.09D-06 MaxDP=2.09D-04 DE=-3.81D-06 OVMax= 2.38D-04

 Cycle   9  Pass 1  IDiag  1:
 RMSU=  1.22D-06    CP:  1.00D+00  1.16D+00  9.65D-01  8.23D-01  1.02D+00
                    CP:  1.01D+00  1.09D+00  1.05D+00
 E= -1074.47641623176     Delta-E=       -0.000000405329 Rises=F Damp=F
 DIIS: error= 6.13D-06 at cycle   9 NSaved=   9.
 NSaved= 9 IEnMin= 9 EnMin= -1074.47641623176     IErMin= 9 ErrMin= 6.13D-06
 ErrMax= 6.13D-06  0.00D+00 EMaxC= 1.00D-01 BMatC= 8.47D-08 BMatP= 4.42D-07
 IDIUse=1 WtCom= 1.00D+00 WtEn= 0.00D+00
 Coeff-Com:  0.121D-03-0.400D-03-0.213D-02-0.585D-02-0.887D-02-0.522D-02
 Coeff-Com:  0.727D-01 0.366D+00 0.583D+00
 Coeff:      0.121D-03-0.400D-03-0.213D-02-0.585D-02-0.887D-02-0.522D-02
 Coeff:      0.727D-01 0.366D+00 0.583D+00
 Gap=     0.131 Goal=   None    Shift=    0.000
 RMSDP=6.62D-07 MaxDP=6.83D-05 DE=-4.05D-07 OVMax= 9.96D-05

 Cycle  10  Pass 1  IDiag  1:
 RMSU=  4.24D-07    CP:  1.00D+00  1.16D+00  9.65D-01  8.23D-01  1.03D+00
                    CP:  1.01D+00  1.10D+00  1.12D+00  9.89D-01
 E= -1074.47641630764     Delta-E=       -0.000000075881 Rises=F Damp=F
 DIIS: error= 1.86D-06 at cycle  10 NSaved=  10.
 NSaved=10 IEnMin=10 EnMin= -1074.47641630764     IErMin=10 ErrMin= 1.86D-06
 ErrMax= 1.86D-06  0.00D+00 EMaxC= 1.00D-01 BMatC= 8.89D-09 BMatP= 8.47D-08
 IDIUse=1 WtCom= 1.00D+00 WtEn= 0.00D+00
 Coeff-Com:  0.502D-05 0.231D-04-0.316D-03-0.121D-02-0.428D-02-0.121D-01
 Coeff-Com: -0.167D-01 0.409D-01 0.268D+00 0.726D+00
 Coeff:      0.502D-05 0.231D-04-0.316D-03-0.121D-02-0.428D-02-0.121D-01
 Coeff:     -0.167D-01 0.409D-01 0.268D+00 0.726D+00
 Gap=     0.131 Goal=   None    Shift=    0.000
 RMSDP=3.29D-07 MaxDP=3.88D-05 DE=-7.59D-08 OVMax= 3.40D-05

 Cycle  11  Pass 1  IDiag  1:
 RMSU=  1.88D-07    CP:  1.00D+00  1.16D+00  9.65D-01  8.24D-01  1.03D+00
                    CP:  1.02D+00  1.12D+00  1.15D+00  1.05D+00  1.01D+00
 E= -1074.47641631517     Delta-E=       -0.000000007529 Rises=F Damp=F
 DIIS: error= 1.02D-06 at cycle  11 NSaved=  11.
 NSaved=11 IEnMin=11 EnMin= -1074.47641631517     IErMin=11 ErrMin= 1.02D-06
 ErrMax= 1.02D-06  0.00D+00 EMaxC= 1.00D-01 BMatC= 1.70D-09 BMatP= 8.89D-09
 IDIUse=1 WtCom= 1.00D+00 WtEn= 0.00D+00
 Coeff-Com: -0.124D-04 0.644D-04 0.731D-04 0.116D-04-0.125D-02-0.628D-02
 Coeff-Com: -0.171D-01-0.146D-01 0.101D+00 0.401D+00 0.537D+00
 Coeff:     -0.124D-04 0.644D-04 0.731D-04 0.116D-04-0.125D-02-0.628D-02
 Coeff:     -0.171D-01-0.146D-01 0.101D+00 0.401D+00 0.537D+00
 Gap=     0.131 Goal=   None    Shift=    0.000
 RMSDP=7.95D-08 MaxDP=5.72D-06 DE=-7.53D-09 OVMax= 1.66D-05

 Cycle  12  Pass 1  IDiag  1:
 RMSU=  6.51D-08    CP:  1.00D+00  1.16D+00  9.65D-01  8.24D-01  1.03D+00
                    CP:  1.02D+00  1.12D+00  1.16D+00  1.06D+00  1.06D+00
                    CP:  1.06D+00
 E= -1074.47641631671     Delta-E=       -0.000000001535 Rises=F Damp=F
 DIIS: error= 5.00D-07 at cycle  12 NSaved=  12.
 NSaved=12 IEnMin=12 EnMin= -1074.47641631671     IErMin=12 ErrMin= 5.00D-07
 ErrMax= 5.00D-07  0.00D+00 EMaxC= 1.00D-01 BMatC= 2.06D-10 BMatP= 1.70D-09
 IDIUse=1 WtCom= 1.00D+00 WtEn= 0.00D+00
 Coeff-Com: -0.807D-05 0.274D-04 0.790D-04 0.201D-03 0.169D-03-0.910D-03
 Coeff-Com: -0.486D-02-0.144D-01 0.518D-02 0.430D-01 0.264D+00 0.708D+00
 Coeff:     -0.807D-05 0.274D-04 0.790D-04 0.201D-03 0.169D-03-0.910D-03
 Coeff:     -0.486D-02-0.144D-01 0.518D-02 0.430D-01 0.264D+00 0.708D+00
 Gap=     0.131 Goal=   None    Shift=    0.000
 RMSDP=4.39D-08 MaxDP=3.75D-06 DE=-1.54D-09 OVMax= 7.72D-06

 Cycle  13  Pass 1  IDiag  1:
 RMSU=  2.63D-08    CP:  1.00D+00  1.16D+00  9.65D-01  8.24D-01  1.03D+00
                    CP:  1.02D+00  1.12D+00  1.16D+00  1.06D+00  1.05D+00
                    CP:  1.22D+00  1.03D+00
 E= -1074.47641631696     Delta-E=       -0.000000000248 Rises=F Damp=F
 DIIS: error= 1.13D-07 at cycle  13 NSaved=  13.
 NSaved=13 IEnMin=13 EnMin= -1074.47641631696     IErMin=13 ErrMin= 1.13D-07
 ErrMax= 1.13D-07  0.00D+00 EMaxC= 1.00D-01 BMatC= 2.98D-11 BMatP= 2.06D-10
 IDIUse=1 WtCom= 1.00D+00 WtEn= 0.00D+00
 Coeff-Com: -0.371D-05 0.109D-04 0.373D-04 0.106D-03 0.221D-03 0.761D-04
 Coeff-Com: -0.961D-03-0.637D-02-0.535D-02-0.171D-01 0.881D-01 0.376D+00
 Coeff-Com:  0.565D+00
 Coeff:     -0.371D-05 0.109D-04 0.373D-04 0.106D-03 0.221D-03 0.761D-04
 Coeff:     -0.961D-03-0.637D-02-0.535D-02-0.171D-01 0.881D-01 0.376D+00
 Coeff:      0.565D+00
 Gap=     0.131 Goal=   None    Shift=    0.000
 RMSDP=1.23D-08 MaxDP=1.02D-06 DE=-2.48D-10 OVMax= 2.87D-06

 Cycle  14  Pass 1  IDiag  1:
 RMSU=  8.77D-09    CP:  1.00D+00  1.16D+00  9.65D-01  8.24D-01  1.03D+00
                    CP:  1.02D+00  1.12D+00  1.16D+00  1.06D+00  1.06D+00
                    CP:  1.24D+00  1.10D+00  1.13D+00
 E= -1074.47641631698     Delta-E=       -0.000000000029 Rises=F Damp=F
 DIIS: error= 4.28D-08 at cycle  14 NSaved=  14.
 NSaved=14 IEnMin=14 EnMin= -1074.47641631698     IErMin=14 ErrMin= 4.28D-08
 ErrMax= 4.28D-08  0.00D+00 EMaxC= 1.00D-01 BMatC= 3.26D-12 BMatP= 2.98D-11
 IDIUse=1 WtCom= 1.00D+00 WtEn= 0.00D+00
 Coeff-Com: -0.259D-06-0.321D-06-0.623D-06-0.154D-05 0.547D-04 0.179D-03
 Coeff-Com:  0.554D-03 0.171D-03-0.264D-02-0.176D-01-0.182D-01 0.107D-01
 Coeff-Com:  0.245D+00 0.782D+00
 Coeff:     -0.259D-06-0.321D-06-0.623D-06-0.154D-05 0.547D-04 0.179D-03
 Coeff:      0.554D-03 0.171D-03-0.264D-02-0.176D-01-0.182D-01 0.107D-01
 Coeff:      0.245D+00 0.782D+00
 Gap=     0.131 Goal=   None    Shift=    0.000
 RMSDP=6.86D-09 MaxDP=3.94D-07 DE=-2.91D-11 OVMax= 1.23D-06

 Error on total polarization charges =  0.06272
 SCF Done:  E(RM06) =  -1074.47641632     A.U. after   14 cycles
            NFock= 14  Conv=0.69D-08     -V/T= 2.0058
 KE= 1.068234702371D+03 PE=-7.005242933432D+03 EE= 2.597079870163D+03
 SMD-CDS (non-electrostatic) energy       (kcal/mol) =      -4.34
 (included in total energy above)
 Leave Link  502 at Sat Feb 20 17:29:01 2021, MaxMem=  5242880000 cpu:     19220.3
 (Enter /opt/nce/packages/global/g09/l601.exe)
 Copying SCF densities to generalized density rwf, IOpCl= 0 IROHF=0.

 **********************************************************************

            Population analysis using the SCF density.

 **********************************************************************

 Alpha  occ. eigenvalues --  -19.25856 -14.47287 -14.43582 -10.33274 -10.32175
 Alpha  occ. eigenvalues --  -10.32070 -10.31326 -10.30393 -10.29071 -10.28111
 Alpha  occ. eigenvalues --  -10.27716 -10.27544 -10.26847 -10.26838 -10.26495
 Alpha  occ. eigenvalues --  -10.26463 -10.26400 -10.25524 -10.24769 -10.24745
 Alpha  occ. eigenvalues --  -10.24738 -10.24665 -10.24656 -10.24591 -10.24543
 Alpha  occ. eigenvalues --  -10.24478  -1.11656  -1.02194  -0.98468  -0.89786
 Alpha  occ. eigenvalues --   -0.88479  -0.86910  -0.83413  -0.79575  -0.78218
 Alpha  occ. eigenvalues --   -0.77599  -0.76787  -0.76107  -0.73932  -0.72596
 Alpha  occ. eigenvalues --   -0.72304  -0.70361  -0.67479  -0.65161  -0.63152
 Alpha  occ. eigenvalues --   -0.62003  -0.61570  -0.59387  -0.58279  -0.56854
 Alpha  occ. eigenvalues --   -0.55526  -0.52922  -0.52458  -0.52303  -0.50908
 Alpha  occ. eigenvalues --   -0.50258  -0.50089  -0.49217  -0.48697  -0.48485
 Alpha  occ. eigenvalues --   -0.47688  -0.47296  -0.46656  -0.46366  -0.44673
 Alpha  occ. eigenvalues --   -0.43892  -0.43329  -0.42779  -0.42381  -0.42066
 Alpha  occ. eigenvalues --   -0.41711  -0.41645  -0.41053  -0.40273  -0.39440
 Alpha  occ. eigenvalues --   -0.39224  -0.38845  -0.38437  -0.37174  -0.36953
 Alpha  occ. eigenvalues --   -0.36104  -0.35402  -0.34941  -0.34450  -0.33466
 Alpha  occ. eigenvalues --   -0.30134  -0.28167  -0.27316  -0.26429  -0.23855
 Alpha  occ. eigenvalues --   -0.23079
 Alpha virt. eigenvalues --   -0.09984  -0.03746  -0.01705  -0.01603  -0.00960
 Alpha virt. eigenvalues --    0.00581   0.03380   0.03830   0.04422   0.04880
 Alpha virt. eigenvalues --    0.05146   0.06019   0.06399   0.06886   0.07469
 Alpha virt. eigenvalues --    0.07644   0.08181   0.08478   0.08988   0.09143
 Alpha virt. eigenvalues --    0.09546   0.10091   0.10219   0.10329   0.11048
 Alpha virt. eigenvalues --    0.11749   0.11857   0.11931   0.12278   0.12711
 Alpha virt. eigenvalues --    0.12977   0.13114   0.13485   0.13957   0.14372
 Alpha virt. eigenvalues --    0.14903   0.15788   0.16886   0.17271   0.17328
 Alpha virt. eigenvalues --    0.17466   0.17740   0.18369   0.18907   0.18996
 Alpha virt. eigenvalues --    0.19643   0.19990   0.20494   0.20792   0.21264
 Alpha virt. eigenvalues --    0.21308   0.21807   0.22540   0.22687   0.22968
 Alpha virt. eigenvalues --    0.23157   0.23498   0.23737   0.24085   0.24936
 Alpha virt. eigenvalues --    0.25267   0.25476   0.26052   0.26273   0.26878
 Alpha virt. eigenvalues --    0.27427   0.27630   0.27919   0.28422   0.28709
 Alpha virt. eigenvalues --    0.29003   0.29548   0.30355   0.30471   0.30602
 Alpha virt. eigenvalues --    0.31090   0.31442   0.31731   0.32293   0.32515
 Alpha virt. eigenvalues --    0.32607   0.33078   0.33290   0.33561   0.33822
 Alpha virt. eigenvalues --    0.34101   0.34235   0.34495   0.35158   0.35389
 Alpha virt. eigenvalues --    0.35715   0.35909   0.35988   0.36381   0.36809
 Alpha virt. eigenvalues --    0.37119   0.37474   0.37762   0.38031   0.38323
 Alpha virt. eigenvalues --    0.38560   0.38964   0.39138   0.39385   0.39514
 Alpha virt. eigenvalues --    0.40076   0.40321   0.40961   0.41093   0.41246
 Alpha virt. eigenvalues --    0.41634   0.42095   0.42419   0.42875   0.43191
 Alpha virt. eigenvalues --    0.43418   0.43581   0.43744   0.44396   0.44817
 Alpha virt. eigenvalues --    0.44972   0.45348   0.45964   0.46139   0.46370
 Alpha virt. eigenvalues --    0.46546   0.47183   0.47236   0.47919   0.48269
 Alpha virt. eigenvalues --    0.48652   0.49208   0.49493   0.49928   0.50529
 Alpha virt. eigenvalues --    0.51039   0.52012   0.52592   0.53417   0.53812
 Alpha virt. eigenvalues --    0.54403   0.54631   0.54723   0.55463   0.56263
 Alpha virt. eigenvalues --    0.56662   0.57574   0.58176   0.59031   0.59263
 Alpha virt. eigenvalues --    0.59860   0.60038   0.61122   0.61461   0.61612
 Alpha virt. eigenvalues --    0.61702   0.62537   0.62616   0.63008   0.63350
 Alpha virt. eigenvalues --    0.64129   0.64622   0.64743   0.64857   0.65679
 Alpha virt. eigenvalues --    0.65784   0.66334   0.66664   0.67215   0.67685
 Alpha virt. eigenvalues --    0.67936   0.68422   0.68754   0.69160   0.70058
 Alpha virt. eigenvalues --    0.70497   0.71075   0.71206   0.71581   0.71931
 Alpha virt. eigenvalues --    0.72039   0.73069   0.73712   0.74546   0.74731
 Alpha virt. eigenvalues --    0.75633   0.76088   0.76775   0.77778   0.77999
 Alpha virt. eigenvalues --    0.78246   0.78575   0.79756   0.80125   0.80532
 Alpha virt. eigenvalues --    0.80821   0.80996   0.81429   0.82289   0.83214
 Alpha virt. eigenvalues --    0.83623   0.84156   0.84912   0.85529   0.86003
 Alpha virt. eigenvalues --    0.86950   0.87610   0.88375   0.88692   0.90071
 Alpha virt. eigenvalues --    0.90597   0.90893   0.91271   0.92726   0.93194
 Alpha virt. eigenvalues --    0.93763   0.94092   0.95175   0.95944   0.96354
 Alpha virt. eigenvalues --    0.96778   0.97393   0.98152   0.98543   0.99766
 Alpha virt. eigenvalues --    1.00211   1.00715   1.01395   1.01735   1.02216
 Alpha virt. eigenvalues --    1.03138   1.04258   1.04430   1.04738   1.05343
 Alpha virt. eigenvalues --    1.05860   1.06916   1.07807   1.07987   1.08815
[...]
    37  C    0.001196  -0.002886  -0.002105   0.000568   0.000373  -0.001272
    38  H    0.000303  -0.000741   0.000587   0.000159  -0.000061   0.000046
    39  H   -0.000078   0.000600  -0.000839  -0.000114   0.000152   0.000083
    40  H    0.000371  -0.001879  -0.001798   0.001032   0.000865  -0.000738
    41  N   -0.000040   0.000002   0.000000   0.000000  -0.000000   0.000000
    42  C   -0.000020   0.000000   0.000000  -0.000000  -0.000000   0.000000
    43  H   -0.000001  -0.000000   0.000000  -0.000000  -0.000000   0.000000
    44  H    0.000000   0.000000   0.000000   0.000000  -0.000000   0.000000
    45  H    0.000000   0.000000  -0.000000   0.000000   0.000000  -0.000000
    46  C   -0.000025   0.000002  -0.000001   0.000000   0.000000  -0.000000
    47  H    0.000000   0.000000  -0.000000   0.000000  -0.000000  -0.000000
    48  H   -0.000004   0.000000   0.000000  -0.000000  -0.000000   0.000000
    49  H    0.000002  -0.000000  -0.000000   0.000000   0.000000  -0.000000
              31         32         33         34         35         36
     1  C    0.000000   0.000000  -0.000014  -0.000013   0.000000  -0.000002
     2  C    0.000000  -0.000000   0.000038   0.000052  -0.000000   0.000010
     3  C   -0.000013  -0.000004   0.000040   0.000043   0.000001   0.000057
     4  C   -0.000204  -0.000102   0.007279   0.005201   0.000018  -0.002234
     5  C    0.000132   0.000116  -0.002173  -0.001306  -0.000025   0.000084
     6  C    0.000006   0.000007  -0.000269  -0.000266  -0.000000   0.000020
     7  C   -0.000261  -0.000331  -0.026045  -0.019464   0.000080  -0.028826
     8  C   -0.000025  -0.000073   0.006794   0.004863   0.000009  -0.073377
     9  C   -0.000003  -0.000003   0.000015  -0.000018   0.000000   0.003680
    10  C   -0.000000   0.000000  -0.000046  -0.000024  -0.000000  -0.000113
    11  H   -0.000000  -0.000000  -0.000000  -0.000000  -0.000000   0.000016
    12  C   -0.000000  -0.000000   0.000021   0.000017   0.000000   0.001658
    13  C    0.000003   0.000005  -0.000136  -0.000100  -0.000000  -0.070453
    14  C    0.000024   0.000031   0.000844   0.001254  -0.000010   0.356781
    15  H    0.000000  -0.000000  -0.000000   0.000000  -0.000000   0.000000
    16  H    0.000017   0.000013  -0.000039  -0.000042  -0.000006   0.000007
    17  H   -0.000000  -0.000000   0.000009   0.000003  -0.000000   0.000000
    18  H    0.000000   0.000000   0.000000   0.000000   0.000000  -0.000135
    19  H    0.000000   0.000000  -0.000003  -0.000003  -0.000000  -0.004261
    20  N    0.000000   0.000000  -0.000009  -0.000017   0.000000  -0.000112
    21  C   -0.000000  -0.000000  -0.000001  -0.000002   0.000000   0.000006
    22  H    0.000000  -0.000000   0.000000  -0.000000   0.000000   0.000002
    23  H   -0.000000  -0.000000  -0.000000   0.000000  -0.000000  -0.000000
    24  H    0.000000   0.000000   0.000000  -0.000000   0.000000  -0.000000
    25  C    0.019981   0.020500  -0.078749  -0.079825  -0.005969  -0.018406
    26  C   -0.083174  -0.006900   0.486326   0.021749   0.015924  -0.003486
    27  C   -0.006941  -0.084379   0.021345   0.486622   0.015684  -0.001746
    28  C    0.489564   0.016804  -0.065518  -0.007479  -0.076028   0.005436
    29  C    0.016861   0.490730  -0.007358  -0.071359  -0.075680   0.005387
    30  C   -0.078326  -0.078542   0.016163   0.016509   0.483616  -0.002741
    31  H    0.527144   0.000020  -0.006676   0.000009  -0.007322   0.000076
    32  H    0.000020   0.527363   0.000006  -0.007005  -0.007304   0.000062
    33  H   -0.006676   0.000006   0.504849   0.000105  -0.000002  -0.000573
    34  H    0.000009  -0.007005   0.000105   0.515171  -0.000006  -0.000753
    35  H   -0.007322  -0.007304  -0.000002  -0.000006   0.523716  -0.000008
    36  O    0.000076   0.000062  -0.000573  -0.000753  -0.000008   8.124619
    37  C    0.000018   0.000014  -0.000023  -0.000033  -0.000018   0.171362
    38  H    0.000005  -0.000001   0.000041  -0.000005  -0.000000  -0.033303
    39  H   -0.000002   0.000005  -0.000005   0.000051   0.000000  -0.035420
    40  H    0.000002   0.000003  -0.000043  -0.000040  -0.000016  -0.033265
    41  N   -0.000000  -0.000000  -0.000000  -0.000000   0.000000   0.000000
    42  C   -0.000000  -0.000000   0.000000  -0.000000   0.000000   0.000000
    43  H    0.000000  -0.000000   0.000000   0.000000   0.000000  -0.000000
    44  H   -0.000000  -0.000000   0.000000   0.000000   0.000000  -0.000000
    45  H   -0.000000   0.000000  -0.000000  -0.000000  -0.000000  -0.000000
    46  C   -0.000000   0.000000  -0.000000  -0.000000  -0.000000   0.000000
    47  H    0.000000   0.000000  -0.000000   0.000000   0.000000   0.000000
    48  H   -0.000000  -0.000000   0.000000   0.000000   0.000000  -0.000000
    49  H   -0.000000   0.000000  -0.000000  -0.000000  -0.000000  -0.000000
              37         38         39         40         41         42
     1  C   -0.000000  -0.000000   0.000000   0.000000   0.463744  -0.140640
     2  C    0.000001  -0.000000   0.000000   0.000000  -0.073721   0.010329
     3  C    0.000006  -0.000007   0.000004   0.000001  -0.008158  -0.019586
     4  C    0.000248  -0.000014  -0.000017  -0.000001  -0.000163   0.000870
     5  C   -0.000023   0.000001   0.000000   0.000002  -0.007877  -0.004218
     6  C   -0.000001   0.000000   0.000000  -0.000000  -0.052682   0.014999
     7  C    0.001825  -0.000892   0.000299   0.000976  -0.000025  -0.000188
     8  C    0.006566  -0.000581  -0.000373  -0.000978  -0.000008   0.000040
     9  C   -0.003401   0.000079  -0.000445   0.000159   0.000018  -0.000023
    10  C    0.002028  -0.000240   0.000244  -0.000048  -0.000001  -0.000002
    11  H    0.000019  -0.000002   0.000003  -0.000000   0.000000   0.000000
    12  C   -0.007257  -0.000198  -0.001034   0.000328  -0.000000   0.000000
    13  C   -0.004463   0.001530   0.006412   0.000570   0.000000  -0.000000
    14  C   -0.090113  -0.011540  -0.014972   0.007769   0.000000   0.000000
    15  H    0.000000   0.000000  -0.000000  -0.000000  -0.003354  -0.004575
    16  H   -0.000001   0.000000   0.000000  -0.000000  -0.000010   0.000021
    17  H    0.000000   0.000000  -0.000000  -0.000000  -0.004318  -0.000217
    18  H   -0.000091   0.000023  -0.000010  -0.000001  -0.000000  -0.000000
    19  H   -0.002428  -0.002766  -0.001558   0.000058  -0.000000  -0.000000
    20  N   -0.000003   0.000001  -0.000001   0.000000   0.000031   0.000084
    21  C   -0.000001  -0.000000   0.000000   0.000000  -0.000006  -0.000114
    22  H    0.000000   0.000000  -0.000000   0.000000  -0.000001   0.000005
    23  H    0.000000  -0.000000   0.000000  -0.000000  -0.000016   0.000123
    24  H    0.000000   0.000000  -0.000000  -0.000000  -0.000126   0.000302
    25  C    0.001196   0.000303  -0.000078   0.000371  -0.000040  -0.000020
    26  C   -0.002886  -0.000741   0.000600  -0.001879   0.000002   0.000000
    27  C   -0.002105   0.000587  -0.000839  -0.001798   0.000000   0.000000
    28  C    0.000568   0.000159  -0.000114   0.001032   0.000000  -0.000000
    29  C    0.000373  -0.000061   0.000152   0.000865  -0.000000  -0.000000
    30  C   -0.001272   0.000046   0.000083  -0.000738   0.000000   0.000000
    31  H    0.000018   0.000005  -0.000002   0.000002  -0.000000  -0.000000
    32  H    0.000014  -0.000001   0.000005   0.000003  -0.000000  -0.000000
    33  H   -0.000023   0.000041  -0.000005  -0.000043  -0.000000   0.000000
    34  H   -0.000033  -0.000005   0.000051  -0.000040  -0.000000  -0.000000
    35  H   -0.000018  -0.000000   0.000000  -0.000016   0.000000   0.000000
    36  O    0.171362  -0.033303  -0.035420  -0.033265   0.000000   0.000000
    37  C    4.850139   0.413930   0.413641   0.396156  -0.000000   0.000000
    38  H    0.413930   0.566792  -0.049141  -0.019001  -0.000000  -0.000000
    39  H    0.413641  -0.049141   0.566808  -0.019510   0.000000   0.000000
    40  H    0.396156  -0.019001  -0.019510   0.528865   0.000000   0.000000
    41  N   -0.000000  -0.000000   0.000000   0.000000   6.608408   0.247091
    42  C    0.000000  -0.000000   0.000000   0.000000   0.247091   4.986201
    43  H    0.000000   0.000000  -0.000000  -0.000000  -0.041609   0.408978
    44  H   -0.000000  -0.000000   0.000000   0.000000  -0.022185   0.394433
    45  H   -0.000000  -0.000000   0.000000  -0.000000  -0.041759   0.412048
    46  C   -0.000000   0.000000   0.000000   0.000000   0.247538  -0.068009
    47  H   -0.000000   0.000000   0.000000  -0.000000  -0.021081  -0.019827
    48  H    0.000000   0.000000  -0.000000  -0.000000  -0.041880   0.004102
    49  H   -0.000000  -0.000000   0.000000   0.000000  -0.039218   0.004467
              43         44         45         46         47         48
     1  C   -0.027550   0.015025  -0.012620  -0.129657   0.013641  -0.016943
     2  C    0.017228  -0.002279   0.004108   0.018179   0.000277   0.000670
     3  C   -0.002257   0.000547   0.001035  -0.004185   0.000190  -0.000390
     4  C    0.000703  -0.000044  -0.000618   0.001688  -0.000024   0.000236
     5  C   -0.000217   0.000178   0.000220  -0.019204   0.000398  -0.001368
     6  C   -0.000833   0.000310  -0.000972  -0.002013  -0.000824   0.005135
     7  C   -0.000005   0.000000  -0.000009  -0.000064   0.000001   0.000000
     8  C    0.000004  -0.000000   0.000001  -0.000003  -0.000000   0.000001
     9  C   -0.000006   0.000001   0.000015  -0.000008   0.000000  -0.000000
    10  C    0.000002   0.000000  -0.000002  -0.000000   0.000000  -0.000000
    11  H   -0.000000   0.000000   0.000000   0.000000  -0.000000  -0.000000
    12  C    0.000000  -0.000000  -0.000000   0.000000   0.000000   0.000000
    13  C   -0.000000   0.000000   0.000000   0.000000   0.000000  -0.000000
    14  C   -0.000000  -0.000000   0.000000   0.000000  -0.000000   0.000000
    15  H    0.001581   0.000527  -0.006239  -0.000383   0.000007   0.000066
    16  H   -0.000001  -0.000000   0.000002   0.000003   0.000001  -0.000048
    17  H    0.000018  -0.000009  -0.000008  -0.002980   0.000155  -0.001823
    18  H    0.000000  -0.000000  -0.000000   0.000000   0.000000   0.000000
    19  H   -0.000000   0.000000   0.000000  -0.000000   0.000000  -0.000000
    20  N   -0.000147   0.000001   0.000043   0.000011  -0.000000  -0.000001
    21  C    0.000391   0.000012  -0.000078   0.000003  -0.000000   0.000002
    22  H   -0.000009  -0.000000   0.000013   0.000000   0.000000  -0.000000
    23  H    0.000221  -0.000000  -0.000145  -0.000000  -0.000000   0.000000
    24  H   -0.000271  -0.000000   0.001179   0.000008  -0.000000  -0.000002
    25  C   -0.000001   0.000000   0.000000  -0.000025   0.000000  -0.000004
    26  C   -0.000000   0.000000   0.000000   0.000002   0.000000   0.000000
    27  C    0.000000   0.000000  -0.000000  -0.000001  -0.000000   0.000000
    28  C   -0.000000   0.000000   0.000000   0.000000   0.000000  -0.000000
    29  C   -0.000000  -0.000000   0.000000   0.000000  -0.000000  -0.000000
    30  C    0.000000   0.000000  -0.000000  -0.000000  -0.000000   0.000000
    31  H    0.000000  -0.000000  -0.000000  -0.000000   0.000000  -0.000000
    32  H   -0.000000  -0.000000   0.000000   0.000000   0.000000  -0.000000
    33  H    0.000000   0.000000  -0.000000  -0.000000  -0.000000   0.000000
    34  H    0.000000   0.000000  -0.000000  -0.000000   0.000000   0.000000
    35  H    0.000000   0.000000  -0.000000  -0.000000   0.000000   0.000000
    36  O   -0.000000  -0.000000  -0.000000   0.000000   0.000000  -0.000000
    37  C    0.000000  -0.000000  -0.000000  -0.000000  -0.000000   0.000000
    38  H    0.000000  -0.000000  -0.000000   0.000000   0.000000   0.000000
    39  H   -0.000000   0.000000   0.000000   0.000000   0.000000  -0.000000
    40  H   -0.000000   0.000000  -0.000000   0.000000  -0.000000  -0.000000
    41  N   -0.041609  -0.022185  -0.041759   0.247538  -0.021081  -0.041880
    42  C    0.408978   0.394433   0.412048  -0.068009  -0.019827   0.004102
    43  H    0.571594  -0.016920  -0.050503   0.003908   0.000631   0.001865
    44  H   -0.016920   0.520290  -0.015488  -0.019573   0.006417   0.000457
    45  H   -0.050503  -0.015488   0.569138   0.004611   0.000577  -0.001145
    46  C    0.003908  -0.019573   0.004611   4.968775   0.393020   0.413084
    47  H    0.000631   0.006417   0.000577   0.393020   0.526941  -0.016319
    48  H    0.001865   0.000457  -0.001145   0.413084  -0.016319   0.565961
    49  H   -0.001189   0.000672   0.001728   0.410630  -0.017989  -0.049047
              49
     1  C   -0.018650
     2  C   -0.002844
     3  C    0.000318
     4  C   -0.000197
     5  C    0.001017
     6  C    0.005884
     7  C   -0.000018
     8  C   -0.000001
     9  C    0.000000
    10  C    0.000000
    11  H    0.000000
    12  C   -0.000000
    13  C    0.000000
    14  C    0.000000
    15  H   -0.000046
    16  H    0.000004
    17  H   -0.001040
    18  H   -0.000000
    19  H    0.000000
    20  N    0.000000
    21  C   -0.000003
    22  H    0.000000
    23  H   -0.000000
    24  H    0.000003
    25  C    0.000002
    26  C   -0.000000
    27  C   -0.000000
    28  C    0.000000
    29  C    0.000000
    30  C   -0.000000
    31  H   -0.000000
    32  H    0.000000
    33  H   -0.000000
    34  H   -0.000000
    35  H   -0.000000
    36  O   -0.000000
    37  C   -0.000000
    38  H   -0.000000
    39  H    0.000000
    40  H    0.000000
    41  N   -0.039218
    42  C    0.004467
    43  H   -0.001189
    44  H    0.000672
    45  H    0.001728
    46  C    0.410630
    47  H   -0.017989
    48  H   -0.049047
    49  H    0.569142
 Mulliken charges:
               1
     1  C    0.362373
     2  C   -0.308838
     3  C    0.134019
     4  C    0.055955
     5  C   -0.173940
     6  C   -0.258654
     7  C    0.249295
     8  C   -0.072153
     9  C    0.255974
    10  C   -0.282325
    11  H    0.168142
    12  C   -0.109805
    13  C   -0.278251
    14  C    0.459470
    15  H    0.239618
    16  H    0.190132
    17  H    0.155397
    18  H    0.141052
    19  H    0.151504
    20  N   -0.198305
    21  C   -0.268706
    22  H    0.155520
    23  H    0.172157
    24  H    0.154681
    25  C   -0.063646
    26  C   -0.206857
    27  C   -0.185523
    28  C   -0.145123
    29  C   -0.146575
    30  C   -0.088104
    31  H    0.129083
    32  H    0.128965
    33  H    0.143808
    34  H    0.136110
    35  H    0.133346
    36  O   -0.360049
    37  C   -0.143971
    38  H    0.134997
    39  H    0.135217
    40  H    0.140161
    41  N   -0.208594
    42  C   -0.226674
    43  H    0.134393
    44  H    0.137630
    45  H    0.134870
    46  C   -0.215354
    47  H    0.133810
    48  H    0.137391
    49  H    0.136374
 Sum of Mulliken charges =   1.00000
 Mulliken charges with hydrogens summed into heavy atoms:
               1
     1  C    0.362373
     2  C   -0.069219
     3  C    0.134019
     4  C    0.055955
     5  C    0.016192
     6  C   -0.103257
     7  C    0.249295
     8  C   -0.072153
     9  C    0.255974
    10  C   -0.114183
    12  C    0.031247
    13  C   -0.126747
    14  C    0.459470
    20  N   -0.198305
    21  C    0.213652
    25  C   -0.063646
    26  C   -0.063049
    27  C   -0.049413
    28  C   -0.016040
    29  C   -0.017609
    30  C    0.045242
    36  O   -0.360049
    37  C    0.266404
    41  N   -0.208594
    42  C    0.180219
    46  C    0.192221
 Electronic spatial extent (au):  <R**2>=           9693.4385
 Charge=              1.0000 electrons
 Dipole moment (field-independent basis, Debye):
    X=             -5.8245    Y=              3.8338    Z=             -0.1243  Tot=              6.9741
 Quadrupole moment (field-independent basis, Debye-Ang):
   XX=            -61.2951   YY=           -109.7848   ZZ=           -148.1026
   XY=              3.6811   XZ=             -0.6196   YZ=              1.9657
 Traceless Quadrupole moment (field-independent basis, Debye-Ang):
   XX=             45.0991   YY=             -3.3907   ZZ=            -41.7085
   XY=              3.6811   XZ=             -0.6196   YZ=              1.9657
 Octapole moment (field-independent basis, Debye-Ang**2):
  XXX=           -197.4769  YYY=             71.8156  ZZZ=              1.6034  XYY=             -1.5950
  XXY=             -5.9994  XXZ=            -17.3871  XZZ=              8.9157  YZZ=            -12.4311
  YYZ=             -0.7188  XYZ=            -10.9759
 Hexadecapole moment (field-independent basis, Debye-Ang**3):
 XXXX=          -5685.0251 YYYY=          -3713.0829 ZZZZ=           -439.3119 XXXY=            308.5294
 XXXZ=             15.7040 YYYX=            -27.1833 YYYZ=             24.2204 ZZZX=              5.8204
 ZZZY=              6.2643 XXYY=          -1689.1268 XXZZ=          -1460.0121 YYZZ=           -779.1481
 XXYZ=             -6.8391 YYXZ=            -16.4542 ZZXY=            -50.7215
 N-N= 2.282588729822D+03 E-N=-7.040169060222D+03  KE= 1.069245855663D+03
 Leave Link  601 at Sun Feb 21 08:54:53 2021, MaxMem=  5242880000 cpu:       114.9
 (Enter /opt/nce/packages/global/g09/l9999.exe)
 1\1\GINC-CN081\SP\RM06 TD-FC\Gen\C23H23N2O1(1+)\PNG4RJV\21-Feb-2021\0\
 \#p m06 chkbasis geom=allcheck Guess=Read int=ultrafine scrf=(SMD,solv
 ent=Acetonitrile) td=(NStates=30)\\Title\\1,1\C,0,-3.5285343742,-0.528
 0843476,-0.0490417544\C,0,-2.9068009542,0.7243952307,0.0210155994\C,0,
 -1.5261078713,0.8409686932,0.0900501156\C,0,-0.6995785275,-0.322102988
 2,0.0519309674\C,0,-1.3589943014,-1.5834195846,0.0215005162\C,0,-2.702
 8644373,-1.6949460831,-0.0245174198\C,0,0.6847302543,-0.2101637277,0.0
 478119023\C,0,1.2811379102,1.0709066404,0.0023620676\C,0,0.4377620981,
 2.2179584214,0.0641825014\C,0,0.9864735405,3.502465553,-0.0315207225\H
 ,0,0.3548194521,4.3767496365,-0.045865604\C,0,2.3414434688,3.654532656
 5,-0.1566741309\C,0,3.2056529179,2.565813862,-0.1908388931\C,0,2.69538
 12921,1.2901218524,-0.1223659595\H,0,-3.5166861505,1.6118871443,-0.012
 8103692\H,0,-0.7560182627,-2.4822493707,0.0270400992\H,0,-3.1522844969
 ,-2.6775891356,-0.0516052131\H,0,2.7525253132,4.6537553286,-0.24324138
 25\H,0,4.269368856,2.7290043868,-0.2902952272\N,0,-0.9189619287,2.0619
 254146,0.2110221048\C,0,-1.7432524981,3.2316067822,0.4965469902\H,0,-1
 .1760394189,3.9427514148,1.0889410322\H,0,-2.0878807947,3.7124679449,-
 0.4212866689\H,0,-2.6011246463,2.9282067398,1.089190586\C,0,1.47960576
 26,-1.4623720291,0.0852428867\C,0,1.7476560623,-2.1635284787,-1.082166
 6443\C,0,1.9367651174,-1.9493131637,1.3017196848\C,0,2.499782474,-3.32
 50114888,-1.0360610074\C,0,2.685013383,-3.1135972841,1.3456903246\C,0,
 2.9749870974,-3.7995354284,0.1766580984\H,0,2.7137636303,-3.8634682189
 ,-1.9523965466\H,0,3.0433817245,-3.4864603205,2.298526118\H,0,1.376963
 3243,-1.7856261746,-2.0296133907\H,0,1.7175648849,-1.4022319531,2.2131
 135874\H,0,3.564447415,-4.7085655362,0.2113365812\O,0,3.463611746,0.20
 52399816,-0.1838140832\C,0,4.8640044199,0.3435219729,-0.320709978\H,0,
 5.1251359582,0.8600093263,-1.2488196923\H,0,5.2972745934,0.8786318384,
 0.528976921\H,0,5.2601491546,-0.6703925767,-0.348010878\N,0,-4.8637535
 378,-0.6429058934,-0.1387436547\C,0,-5.6974485613,0.5411855298,-0.1584
 048778\H,0,-5.4755457952,1.171723681,-1.024872606\H,0,-6.740567534,0.2
 423171619,-0.2119688453\H,0,-5.5579801883,1.1402484728,0.7463564566\C,
 0,-5.4993907165,-1.9446433201,-0.23092838\H,0,-6.573995771,-1.80496094
 85,-0.3107982423\H,0,-5.1609838725,-2.4949166615,-1.1128392934\H,0,-5.
 3005332114,-2.5531259532,0.6552623241\\Version=ES64L-G09RevE.01\State=
 1-A\HF=-1074.4808836\RMSD=3.851e-09\PG=C01 [X(C23H23N2O1)]\\@


 IF YOU DON'T HAVE THE LAW - ARGUE THE FACTS.
 IF YOU DON'T HAVE THE FACTS - ARGUE THE LAW.
 IF YOU DON'T HAVE EITHER - POUND THE TABLE.
 Job cpu time:       2 days  1 hours 36 minutes 32.0 seconds.
 File lengths (MBytes):  RWF=   4427 Int=      0 D2E=      0 Chk=    797 Scr=      1
 Normal termination of Gaussian 09 at Sun Feb 21 08:54:59 2021.
