
                                 *****************
                                 * O   R   C   A *
                                 *****************

                                            #,                                       
                                            ###                                      
                                            ####                                     
                                            #####                                    
                                            ######                                   
                                           ########,                                 
                                     ,,################,,,,,                         
                               ,,#################################,,                 
                          ,,##########################################,,             
                       ,#########################################, ''#####,          
                    ,#############################################,,   '####,        
                  ,##################################################,,,,####,       
                ,###########''''           ''''###############################       
              ,#####''   ,,,,##########,,,,          '''####'''          '####       
            ,##' ,,,,###########################,,,                        '##       
           ' ,,###''''                  '''############,,,                           
         ,,##''                                '''############,,,,        ,,,,,,###''
      ,#''                                            '''#######################'''  
     '                                                          ''''####''''         
             ,#######,   #######,   ,#######,      ##                                
            ,#'     '#,  ##    ##  ,#'     '#,    #''#        ######   ,####,        
            ##       ##  ##   ,#'  ##            #'  '#       #        #'  '#        
            ##       ##  #######   ##           ,######,      #####,   #    #        
            '#,     ,#'  ##    ##  '#,     ,#' ,#      #,         ##   #,  ,#        
             '#######'   ##     ##  '#######'  #'      '#     #####' # '####'        



                  #######################################################
                  #                        -***-                        #
                  #          Department of theory and spectroscopy      #
                  #    Directorship and core code : Frank Neese         #
                  #        Max Planck Institute fuer Kohlenforschung    #
                  #                Kaiser Wilhelm Platz 1               #
                  #                 D-45470 Muelheim/Ruhr               #
                  #                      Germany                        #
                  #                                                     #
                  #                  All rights reserved                #
                  #                        -***-                        #
                  #######################################################


                         Program Version 5.0.2 -  RELEASE  -


 With contributions from (in alphabetic order):
   Daniel Aravena         : Magnetic Suceptibility
   Michael Atanasov       : Ab Initio Ligand Field Theory (pilot matlab implementation)
   Alexander A. Auer      : GIAO ZORA, VPT2 properties, NMR spectrum
   Ute Becker             : Parallelization
   Giovanni Bistoni       : ED, misc. LED, open-shell LED, HFLD
   Martin Brehm           : Molecular dynamics
   Dmytro Bykov           : SCF Hessian
   Vijay G. Chilkuri      : MRCI spin determinant printing, contributions to CSF-ICE
   Dipayan Datta          : RHF DLPNO-CCSD density
   Achintya Kumar Dutta   : EOM-CC, STEOM-CC
   Dmitry Ganyushin       : Spin-Orbit,Spin-Spin,Magnetic field MRCI
   Miquel Garcia          : C-PCM and meta-GGA Hessian, CC/C-PCM, Gaussian charge scheme
   Yang Guo               : DLPNO-NEVPT2, F12-NEVPT2, CIM, IAO-localization
   Andreas Hansen         : Spin unrestricted coupled pair/coupled cluster methods
   Benjamin Helmich-Paris : MC-RPA, TRAH-SCF, COSX integrals
   Lee Huntington         : MR-EOM, pCC
   Robert Izsak           : Overlap fitted RIJCOSX, COSX-SCS-MP3, EOM
   Marcus Kettner         : VPT2
   Christian Kollmar      : KDIIS, OOCD, Brueckner-CCSD(T), CCSD density, CASPT2, CASPT2-K
   Simone Kossmann        : Meta GGA functionals, TD-DFT gradient, OOMP2, MP2 Hessian
   Martin Krupicka        : Initial AUTO-CI
   Lucas Lang             : DCDCAS
   Marvin Lechner         : AUTO-CI (C++ implementation), FIC-MRCC
   Dagmar Lenk            : GEPOL surface, SMD
   Dimitrios Liakos       : Extrapolation schemes; Compound Job, initial MDCI parallelization
   Dimitrios Manganas     : Further ROCIS development; embedding schemes
   Dimitrios Pantazis     : SARC Basis sets
   Anastasios Papadopoulos: AUTO-CI, single reference methods and gradients
   Taras Petrenko         : DFT Hessian,TD-DFT gradient, ASA, ECA, R-Raman, ABS, FL, XAS/XES, NRVS
   Peter Pinski           : DLPNO-MP2, DLPNO-MP2 Gradient
   Christoph Reimann      : Effective Core Potentials
   Marius Retegan         : Local ZFS, SOC
   Christoph Riplinger    : Optimizer, TS searches, QM/MM, DLPNO-CCSD(T), (RO)-DLPNO pert. Triples
   Tobias Risthaus        : Range-separated hybrids, TD-DFT gradient, RPA, STAB
   Michael Roemelt        : Original ROCIS implementation
   Masaaki Saitow         : Open-shell DLPNO-CCSD energy and density
   Barbara Sandhoefer     : DKH picture change effects
   Avijit Sen             : IP-ROCIS
   Kantharuban Sivalingam : CASSCF convergence, NEVPT2, FIC-MRCI
   Bernardo de Souza      : ESD, SOC TD-DFT
   Georgi Stoychev        : AutoAux, RI-MP2 NMR, DLPNO-MP2 response
   Willem Van den Heuvel  : Paramagnetic NMR
   Boris Wezisla          : Elementary symmetry handling
   Frank Wennmohs         : Technical directorship


 We gratefully acknowledge several colleagues who have allowed us to
 interface, adapt or use parts of their codes:
   Stefan Grimme, W. Hujo, H. Kruse, P. Pracht,  : VdW corrections, initial TS optimization,
                  C. Bannwarth, S. Ehlert          DFT functionals, gCP, sTDA/sTD-DF
   Ed Valeev, F. Pavosevic, A. Kumar             : LibInt (2-el integral package), F12 methods
   Garnet Chan, S. Sharma, J. Yang, R. Olivares  : DMRG
   Ulf Ekstrom                                   : XCFun DFT Library
   Mihaly Kallay                                 : mrcc  (arbitrary order and MRCC methods)
   Jiri Pittner, Ondrej Demel                    : Mk-CCSD
   Frank Weinhold                                : gennbo (NPA and NBO analysis)
   Christopher J. Cramer and Donald G. Truhlar   : smd solvation model
   Lars Goerigk                                  : TD-DFT with DH, B97 family of functionals
   V. Asgeirsson, H. Jonsson                     : NEB implementation
   FAccTs GmbH                                   : IRC, NEB, NEB-TS, DLPNO-Multilevel, CI-OPT
                                                   MM, QMMM, 2- and 3-layer-ONIOM, Crystal-QMMM,
                                                   LR-CPCM, SF, NACMEs, symmetry and pop. for TD-DFT,
                                                   nearIR, NL-DFT gradient (VV10), updates on ESD,
                                                   ML-optimized integration grids
   S Lehtola, MJT Oliveira, MAL Marques          : LibXC Library
   Liviu Ungur et al                             : ANISO software


 Your calculation uses the libint2 library for the computation of 2-el integrals
 For citations please refer to: http://libint.valeyev.net

 Your ORCA version has been built with support for libXC version: 5.1.0
 For citations please refer to: https://tddft.org/programs/libxc/

 This ORCA versions uses:
   CBLAS   interface :  Fast vector & matrix operations
   LAPACKE interface :  Fast linear algebra routines
   SCALAPACK package :  Parallel linear algebra routines
   Shared memory     :  Shared parallel matrices
   BLAS/LAPACK       :  OpenBLAS 0.3.15  USE64BITINT DYNAMIC_ARCH NO_AFFINITY Zen SINGLE_THREADED
        Core in use  :  Zen
   Copyright (c) 2011-2014, The OpenBLAS Project


Your calculation utilizes the atom-pairwise dispersion correction
with the Becke-Johnson damping scheme (D3BJ)
Cite in your paper:
S.Grimme, S.Ehrlich, L.Goerigk, J Comput Chem, (2011), 32, 1456–1465 
S.Grimme, J.Antony, S.Ehrlich and H.Krieg, J.Chem.Phys., 132, (2010), 154104 
   

Your calculation utilizes the SMD solvation module
Please cite in your paper:
A.V. Marenich, C.J. Cramer, D.G. Truhlar J. Phys. Chem. B, 113, (2009), 6378 

================================================================================

----- Orbital basis set information -----
Your calculation utilizes the basis: def2-TZVP
   F. Weigend and R. Ahlrichs, Phys. Chem. Chem. Phys. 7, 3297 (2005).

----- AuxJ basis set information -----
Your calculation utilizes the auxiliary basis: def2/J
   F. Weigend, Phys. Chem. Chem. Phys. 8, 1057 (2006).

----- AuxC basis set information -----
Your calculation utilizes the auxiliary basis: def2-TZVP/C
  H-La, Hf-Rn : A. Hellweg, C. Hattig, S. Hofener and W. Klopper, Theor. Chem. Acc. 117, 587 (2007).
        Ce-Lu : J. Chmela and M. E. Harding, Mol. Phys. (2018).

================================================================================
                                        WARNINGS
                       Please study these warnings very carefully!
================================================================================

INFO   : Checking CIS options ...
  ===> : (D) CORRECTION FOUND - SETTING MODE=3
  ===> : JK MODE FOUND - ACTIVATING RI-MP2 CODE
  ===> : MP2 AND CIS FOUND - CHECKING
WARNING: CIS(D) and MP2 runs must have the same orbital window
  ===> : adjusting orbital windows

WARNING: No MP2 level density has been requested!
         To caclulate MP2 level properties use
         %mp2 Density relaxed end
         or
         %mp2 Density unrelaxed end
         Otherwise for double-hybrid DFT only the energy is correct!

WARNING: The frozen-core approximation is turned on by default for 
         the MP2 part of double-hybrid DFT.

WARNING: CIS/ROCIS methods need fully converged wavefunctions
  ===> : Setting SCFConvForced true
         You can overwrite this default with %scf ConvForced false 


INFO   : the flag for use of the SHARK integral package has been found!

================================================================================
                                       INPUT FILE
================================================================================
NAME = Ph-Acr_1_M06L_def2TZVP_coords.inp
|  1> %maxcore 3200
|  2> %pal
|  3>  nprocs= 8
|  4> end
|  5> ! RI-B2PLYP D3BJ def2-TZVP def2/J def2-TZVP/C RIJCOSX CPCM TightSCF
|  6> %TDDFT DCORR 4
|  7>    NROOTS   30
|  8> 
|  9>    TDA      FALSE
| 10> END
| 11> 
| 12> %CPCM
| 13>    SMD          TRUE
| 14>    SMDsolvent   "ACETONITRILE"
| 15> END
| 16>    
| 17> 
| 18> * xyz 1 1
| 19> C                  -3.52189000   -0.52501000   -0.05008700
| 20> C                  -2.90087400    0.72989200    0.01676100
| 21> C                  -1.51934600    0.84488300    0.08802500
| 22> C                  -0.68841000   -0.31903600    0.04796800
| 23> C                  -1.34967100   -1.57914000    0.02689900
| 24> C                  -2.69765000   -1.69089300   -0.01917500
| 25> C                   0.70136100   -0.20537400    0.04004800
| 26> C                   1.29126100    1.07949500   -0.01169900
| 27> C                   0.44605700    2.22994900    0.07301100
| 28> C                   0.99140500    3.51785500   -0.00013100
| 29> H                   0.35649700    4.38755400    0.00881700
| 30> C                   2.34835600    3.67686100   -0.13387100
| 31> C                   3.21173200    2.58960400   -0.20917700
| 32> C                   2.70124100    1.30852400   -0.16632100
| 33> H                  -3.51054600    1.61539600   -0.01689900
| 34> H                  -0.74778900   -2.47656800    0.03877300
| 35> H                  -3.14974400   -2.67107200   -0.03973600
| 36> H                   2.75628500    4.67734800   -0.20064000
| 37> H                   4.27212500    2.75167000   -0.32506300
| 38> N                  -0.91226800    2.06891200    0.22154400
| 39> C                  -1.73695500    3.23562800    0.51809200
| 40> H                  -1.17652900    3.93035400    1.13248800
| 41> H                  -2.06346500    3.73798800   -0.39237700
| 42> H                  -2.60518900    2.92266000    1.08586300
| 43> C                   1.49472700   -1.45902700    0.09499600
| 44> C                   1.66751900   -2.24348600   -1.04172100
| 45> C                   2.03202800   -1.88512000    1.30659500
| 46> C                   2.38910600   -3.42548200   -0.97133300
| 47> C                   2.74520000   -3.07163300    1.37535800
| 48> C                   2.93047900   -3.84285400    0.23619400
| 49> H                   2.52369200   -4.02427700   -1.86344500
| 50> H                   3.15671600   -3.39460100    2.32346900
| 51> H                   1.24184700   -1.91901000   -1.98372700
| 52> H                   1.89485700   -1.27870500    2.19395500
| 53> H                   3.49035800   -4.76783200    0.29053700
| 54> O                   3.47015400    0.22073600   -0.29071000
| 55> C                   4.87155600    0.39021200   -0.45657100
| 56> H                   5.09947600    0.94873800   -1.36633100
| 57> H                   5.31488900    0.89671700    0.40244900
| 58> H                   5.28245100   -0.61239200   -0.53606400
| 59> N                  -4.86123200   -0.63897200   -0.13997700
| 60> C                  -5.69336200    0.54654000   -0.16347700
| 61> H                  -5.46776300    1.17398500   -1.02855700
| 62> H                  -6.73440500    0.24922500   -0.21756900
| 63> H                  -5.55183400    1.14735500    0.73735400
| 64> C                  -5.49772500   -1.94080700   -0.22465500
| 65> H                  -6.56977300   -1.80043600   -0.30515000
| 66> H                  -5.15827400   -2.49575300   -1.10060700
| 67> H                  -5.29749100   -2.54329800    0.66281000
| 68> *
| 69> 
| 70> 
| 71>                          ****END OF INPUT****
================================================================================

                       ****************************
                       * Single Point Calculation *
                       ****************************

---------------------------------
CARTESIAN COORDINATES (ANGSTROEM)
---------------------------------
  C     -3.521890   -0.525010   -0.050087
  C     -2.900874    0.729892    0.016761
  C     -1.519346    0.844883    0.088025
  C     -0.688410   -0.319036    0.047968
  C     -1.349671   -1.579140    0.026899
  C     -2.697650   -1.690893   -0.019175
  C      0.701361   -0.205374    0.040048
  C      1.291261    1.079495   -0.011699
  C      0.446057    2.229949    0.073011
  C      0.991405    3.517855   -0.000131
  H      0.356497    4.387554    0.008817
  C      2.348356    3.676861   -0.133871
  C      3.211732    2.589604   -0.209177
  C      2.701241    1.308524   -0.166321
  H     -3.510546    1.615396   -0.016899
  H     -0.747789   -2.476568    0.038773
  H     -3.149744   -2.671072   -0.039736
  H      2.756285    4.677348   -0.200640
  H      4.272125    2.751670   -0.325063
  N     -0.912268    2.068912    0.221544
  C     -1.736955    3.235628    0.518092
  H     -1.176529    3.930354    1.132488
  H     -2.063465    3.737988   -0.392377
  H     -2.605189    2.922660    1.085863
  C      1.494727   -1.459027    0.094996
  C      1.667519   -2.243486   -1.041721
  C      2.032028   -1.885120    1.306595
  C      2.389106   -3.425482   -0.971333
  C      2.745200   -3.071633    1.375358
  C      2.930479   -3.842854    0.236194
  H      2.523692   -4.024277   -1.863445
  H      3.156716   -3.394601    2.323469
  H      1.241847   -1.919010   -1.983727
  H      1.894857   -1.278705    2.193955
  H      3.490358   -4.767832    0.290537
  O      3.470154    0.220736   -0.290710
  C      4.871556    0.390212   -0.456571
  H      5.099476    0.948738   -1.366331
  H      5.314889    0.896717    0.402449
  H      5.282451   -0.612392   -0.536064
  N     -4.861232   -0.638972   -0.139977
  C     -5.693362    0.546540   -0.163477
  H     -5.467763    1.173985   -1.028557
  H     -6.734405    0.249225   -0.217569
  H     -5.551834    1.147355    0.737354
  C     -5.497725   -1.940807   -0.224655
  H     -6.569773   -1.800436   -0.305150
  H     -5.158274   -2.495753   -1.100607
  H     -5.297491   -2.543298    0.662810

----------------------------
CARTESIAN COORDINATES (A.U.)
----------------------------
  NO LB      ZA    FRAG     MASS         X           Y           Z
   0 C     6.0000    0    12.011   -6.655408   -0.992125   -0.094651
   1 C     6.0000    0    12.011   -5.481857    1.379296    0.031674
   2 C     6.0000    0    12.011   -2.871148    1.596597    0.166343
   3 C     6.0000    0    12.011   -1.300906   -0.602891    0.090646
   4 C     6.0000    0    12.011   -2.550509   -2.984142    0.050832
   5 C     6.0000    0    12.011   -5.097820   -3.195325   -0.036235
   6 C     6.0000    0    12.011    1.325380   -0.388101    0.075680
   7 C     6.0000    0    12.011    2.440130    2.039950   -0.022108
   8 C     6.0000    0    12.011    0.842926    4.213993    0.137971
   9 C     6.0000    0    12.011    1.873484    6.647783   -0.000248
  10 H     1.0000    0     1.008    0.673682    8.291275    0.016662
  11 C     6.0000    0    12.011    4.437750    6.948260   -0.252980
  12 C     6.0000    0    12.011    6.069294    4.893642   -0.395287
  13 C     6.0000    0    12.011    5.104606    2.472752   -0.314301
  14 H     1.0000    0     1.008   -6.633971    3.052656   -0.031934
  15 H     1.0000    0     1.008   -1.413116   -4.680035    0.073270
  16 H     1.0000    0     1.008   -5.952154   -5.047595   -0.075090
  17 H     1.0000    0     1.008    5.208624    8.838907   -0.379155
  18 H     1.0000    0     1.008    8.073146    5.199903   -0.614280
  19 N     7.0000    0    14.007   -1.723937    3.909677    0.418657
  20 C     6.0000    0    12.011   -3.282369    6.114451    0.979052
  21 H     1.0000    0     1.008   -2.223318    7.427293    2.140092
  22 H     1.0000    0     1.008   -3.899384    7.063774   -0.741485
  23 H     1.0000    0     1.008   -4.923094    5.523027    2.051984
  24 C     6.0000    0    12.011    2.824625   -2.757161    0.179516
  25 C     6.0000    0    12.011    3.151154   -4.239574   -1.968567
  26 C     6.0000    0    12.011    3.839976   -3.562361    2.469107
  27 C     6.0000    0    12.011    4.514756   -6.473223   -1.835553
  28 C     6.0000    0    12.011    5.187676   -5.804545    2.599050
  29 C     6.0000    0    12.011    5.537803   -7.261942    0.446342
  30 H     1.0000    0     1.008    4.769087   -7.604781   -3.521401
  31 H     1.0000    0     1.008    5.965329   -6.414866    4.390720
  32 H     1.0000    0     1.008    2.346751   -3.626403   -3.748701
  33 H     1.0000    0     1.008    3.580761   -2.416402    4.145974
  34 H     1.0000    0     1.008    6.595821   -9.009897    0.549035
  35 O     8.0000    0    15.999    6.557641    0.417131   -0.549362
  36 C     6.0000    0    12.011    9.205907    0.737394   -0.862794
  37 H     1.0000    0     1.008    9.636613    1.792855   -2.581991
  38 H     1.0000    0     1.008   10.043685    1.694550    0.760518
  39 H     1.0000    0     1.008    9.982386   -1.157253   -1.013014
  40 N     7.0000    0    14.007   -9.186397   -1.207482   -0.264518
  41 C     6.0000    0    12.011  -10.758895    1.032811   -0.308927
  42 H     1.0000    0     1.008  -10.332575    2.218510   -1.943691
  43 H     1.0000    0     1.008  -12.726181    0.470967   -0.411146
  44 H     1.0000    0     1.008  -10.491446    2.168187    1.393397
  45 C     6.0000    0    12.011  -10.389195   -3.667594   -0.424536
  46 H     1.0000    0     1.008  -12.415072   -3.402331   -0.576650
  47 H     1.0000    0     1.008   -9.747725   -4.716290   -2.079846
  48 H     1.0000    0     1.008  -10.010807   -4.806137    1.252529

--------------------------------
INTERNAL COORDINATES (ANGSTROEM)
--------------------------------
 C      0   0   0     0.000000000000     0.00000000     0.00000000
 C      1   0   0     1.401751959857     0.00000000     0.00000000
 C      2   1   0     1.388135837215   121.16657502     0.00000000
 C      3   2   1     1.430652521721   120.61142345     2.19528300
 C      4   3   2     1.423225949629   116.79958303   355.76710297
 C      5   4   3     1.353387945464   122.43734866     3.14167166
 C      4   3   2     1.394433651733   120.84463849   176.20634216
 C      7   4   3     1.414760795743   119.32756881   356.10403124
 C      8   7   4     1.430066429168   118.81707738     5.84105160
 C      9   8   7     1.400519924208   120.43475010   181.21194941
 H     10   9   8     1.076830806473   120.84276434   176.63361403
 C     10   9   8     1.372765570677   119.76917731   359.01933008
 C     12  10   9     1.390401702768   121.90431549     0.43680256
 C     13  12  10     1.379711442374   119.64587719     0.83297796
 H      2   1   3     1.075616231376   118.97324969   178.21855014
 H      5   4   3     1.080638676424   118.44636870   182.54483991
 H      6   5   4     1.079612250578   119.51809459   179.61555700
 H     12  10   9     1.082514852356   119.04879953   179.30887173
 H     13  12  10     1.078947759533   119.90972087   179.32545362
 N      3   2   1     1.372813903734   121.26270674   183.32879715
 C     20   3   2     1.459203751684   118.86475646    10.38683403
 H     21  20   3     1.083606921982   109.60587298   147.20644715
 H     21  20   3     1.089921166718   111.59653897   268.62378829
 H     21  20   3     1.083578864791   109.17146671    29.57385716
 C      7   4   3     1.484619391315   117.61724708   175.76112424
 C     25   7   4     1.391890274423   120.79893478    78.25474714
 C     25   7   4     1.392199607115   119.79473774   260.68855995
 C     26  25   7     1.386635068477   120.23607433   181.24882112
 C     27  25   7     1.386057629005   120.24825133   178.34541114
 C     28  26  25     1.387589841143   120.23874067     0.77522390
 H     28  26  25     1.082835474098   119.61941179   180.46001184
 H     29  27  25     1.082851889965   119.62315933   180.14361036
 H     26  25   7     1.083446643908   119.50478194     1.81338291
 H     27  25   7     1.083495641461   119.51050522   357.89507183
 H     30  28  26     1.082590391965   120.16256969   179.76196717
 O     14  13  12     1.337902297567   122.64282948   177.09946479
 C     36  14  13     1.421323169269   118.72214483     0.82770606
 H     37  36  14     1.091586953328   111.35449118   298.80341511
 H     37  36  14     1.091332591062   111.34750807    61.31918950
 H     37  36  14     1.086447706468   105.74768787   180.06031783
 N      1   2   3     1.347183930467   121.28948386   181.03009878
 C     41   1   2     1.448596316799   120.19522432   359.72406491
 H     42  41   1     1.092220464570   111.36663704    61.47835760
 H     42  41   1     1.084016919397   109.14837157   181.18069219
 H     42  41   1     1.092018923632   111.24982112   300.81999131
 C     41   1   2     1.451574341864   121.04365627   179.27212189
 H     46  41   1     1.084191116441   108.77118676   180.90927460
 H     46  41   1     1.091093007319   111.50381834   300.26360948
 H     46  41   1     1.091184304351   111.54796038    61.56945853

---------------------------
INTERNAL COORDINATES (A.U.)
---------------------------
 C      0   0   0     0.000000000000     0.00000000     0.00000000
 C      1   0   0     2.648927311818     0.00000000     0.00000000
 C      2   1   0     2.623196569018   121.16657502     0.00000000
 C      3   2   1     2.703541458856   120.61142345     2.19528300
 C      4   3   2     2.689507271489   116.79958303   355.76710297
 C      5   4   3     2.557532569876   122.43734866     3.14167166
 C      4   3   2     2.635097713699   120.84463849   176.20634216
 C      7   4   3     2.673510448962   119.32756881   356.10403124
 C      8   7   4     2.702433904441   118.81707738     5.84105160
 C      9   8   7     2.646599101854   120.43475010   181.21194941
 H     10   9   8     2.034915316803   120.84276434   176.63361403
 C     10   9   8     2.594150974656   119.76917731   359.01933008
 C     12  10   9     2.627478434370   121.90431549     0.43680256
 C     13  12  10     2.607276769924   119.64587719     0.83297796
 H      2   1   3     2.032620102502   118.97324969   178.21855014
 H      5   4   3     2.042111148165   118.44636870   182.54483991
 H      6   5   4     2.040171484419   119.51809459   179.61555700
 H     12  10   9     2.045656606855   119.04879953   179.30887173
 H     13  12  10     2.038915778325   119.90972087   179.32545362
 N      3   2   1     2.594242310897   121.26270674   183.32879715
 C     20   3   2     2.757495464273   118.86475646    10.38683403
 H     21  20   3     2.047720319368   109.60587298   147.20644715
 H     21  20   3     2.059652512662   111.59653897   268.62378829
 H     21  20   3     2.047667298960   109.17146671    29.57385716
 C      7   4   3     2.805524062695   117.61724708   175.76112424
 C     25   7   4     2.630291427128   120.79893478    78.25474714
 C     25   7   4     2.630875981200   119.79473774   260.68855995
 C     26  25   7     2.620360527112   120.23607433   181.24882112
 C     27  25   7     2.619269324651   120.24825133   178.34541114
 C     28  26  25     2.622164785971   120.23874067     0.77522390
 H     28  26  25     2.046262494140   119.61941179   180.46001184
 H     29  27  25     2.046293515633   119.62315933   180.14361036
 H     26  25   7     2.047417437703   119.50478194     1.81338291
 H     27  25   7     2.047510029660   119.51050522   357.89507183
 H     30  28  26     2.045799356027   120.16256969   179.76196717
 O     14  13  12     2.528268936345   122.64282948   177.09946479
 C     36  14  13     2.685911537715   118.72214483     0.82770606
 H     37  36  14     2.062800393151   111.35449118   298.80341511
 H     37  36  14     2.062319718130   111.34750807    61.31918950
 H     37  36  14     2.053088624052   105.74768787   180.06031783
 N      1   2   3     2.545808680602   121.28948386   181.03009878
 C     41   1   2     2.737450317357   120.19522432   359.72406491
 H     42  41   1     2.063997555902   111.36663704    61.47835760
 H     42  41   1     2.048495102196   109.14837157   181.18069219
 H     42  41   1     2.063616698724   111.24982112   300.81999131
 C     41   1   2     2.743077969150   121.04365627   179.27212189
 H     46  41   1     2.048824286904   108.77118676   180.90927460
 H     46  41   1     2.061866970470   111.50381834   300.26360948
 H     46  41   1     2.062039496857   111.54796038    61.56945853

---------------------
BASIS SET INFORMATION
---------------------
There are 4 groups of distinct atoms

 Group   1 Type C   : 11s6p2d1f contracted to 5s3p2d1f pattern {62111/411/11/1}
 Group   2 Type H   : 5s1p contracted to 3s1p pattern {311/1}
 Group   3 Type N   : 11s6p2d1f contracted to 5s3p2d1f pattern {62111/411/11/1}
 Group   4 Type O   : 11s6p2d1f contracted to 5s3p2d1f pattern {62111/411/11/1}

Atom   0C    basis set group =>   1
Atom   1C    basis set group =>   1
Atom   2C    basis set group =>   1
Atom   3C    basis set group =>   1
Atom   4C    basis set group =>   1
Atom   5C    basis set group =>   1
Atom   6C    basis set group =>   1
Atom   7C    basis set group =>   1
Atom   8C    basis set group =>   1
Atom   9C    basis set group =>   1
Atom  10H    basis set group =>   2
Atom  11C    basis set group =>   1
Atom  12C    basis set group =>   1
Atom  13C    basis set group =>   1
Atom  14H    basis set group =>   2
Atom  15H    basis set group =>   2
Atom  16H    basis set group =>   2
Atom  17H    basis set group =>   2
Atom  18H    basis set group =>   2
Atom  19N    basis set group =>   3
Atom  20C    basis set group =>   1
Atom  21H    basis set group =>   2
Atom  22H    basis set group =>   2
Atom  23H    basis set group =>   2
Atom  24C    basis set group =>   1
Atom  25C    basis set group =>   1
Atom  26C    basis set group =>   1
Atom  27C    basis set group =>   1
Atom  28C    basis set group =>   1
Atom  29C    basis set group =>   1
Atom  30H    basis set group =>   2
Atom  31H    basis set group =>   2
Atom  32H    basis set group =>   2
Atom  33H    basis set group =>   2
Atom  34H    basis set group =>   2
Atom  35O    basis set group =>   4
Atom  36C    basis set group =>   1
Atom  37H    basis set group =>   2
Atom  38H    basis set group =>   2
Atom  39H    basis set group =>   2
Atom  40N    basis set group =>   3
Atom  41C    basis set group =>   1
Atom  42H    basis set group =>   2
Atom  43H    basis set group =>   2
Atom  44H    basis set group =>   2
Atom  45C    basis set group =>   1
Atom  46H    basis set group =>   2
Atom  47H    basis set group =>   2
Atom  48H    basis set group =>   2
---------------------------------
AUXILIARY/J BASIS SET INFORMATION
---------------------------------
There are 4 groups of distinct atoms

 Group   1 Type C   : 12s5p4d2f1g contracted to 6s4p3d1f1g pattern {711111/2111/211/2/1}
 Group   2 Type H   : 5s2p1d contracted to 3s1p1d pattern {311/2/1}
 Group   3 Type N   : 12s5p4d2f1g contracted to 6s4p3d1f1g pattern {711111/2111/211/2/1}
 Group   4 Type O   : 12s5p4d2f1g contracted to 6s4p3d1f1g pattern {711111/2111/211/2/1}

Atom   0C    basis set group =>   1
Atom   1C    basis set group =>   1
Atom   2C    basis set group =>   1
Atom   3C    basis set group =>   1
Atom   4C    basis set group =>   1
Atom   5C    basis set group =>   1
Atom   6C    basis set group =>   1
Atom   7C    basis set group =>   1
Atom   8C    basis set group =>   1
Atom   9C    basis set group =>   1
Atom  10H    basis set group =>   2
Atom  11C    basis set group =>   1
Atom  12C    basis set group =>   1
Atom  13C    basis set group =>   1
Atom  14H    basis set group =>   2
Atom  15H    basis set group =>   2
Atom  16H    basis set group =>   2
Atom  17H    basis set group =>   2
Atom  18H    basis set group =>   2
Atom  19N    basis set group =>   3
Atom  20C    basis set group =>   1
Atom  21H    basis set group =>   2
Atom  22H    basis set group =>   2
Atom  23H    basis set group =>   2
Atom  24C    basis set group =>   1
Atom  25C    basis set group =>   1
Atom  26C    basis set group =>   1
Atom  27C    basis set group =>   1
Atom  28C    basis set group =>   1
Atom  29C    basis set group =>   1
Atom  30H    basis set group =>   2
Atom  31H    basis set group =>   2
Atom  32H    basis set group =>   2
Atom  33H    basis set group =>   2
Atom  34H    basis set group =>   2
Atom  35O    basis set group =>   4
Atom  36C    basis set group =>   1
Atom  37H    basis set group =>   2
Atom  38H    basis set group =>   2
Atom  39H    basis set group =>   2
Atom  40N    basis set group =>   3
Atom  41C    basis set group =>   1
Atom  42H    basis set group =>   2
Atom  43H    basis set group =>   2
Atom  44H    basis set group =>   2
Atom  45C    basis set group =>   1
Atom  46H    basis set group =>   2
Atom  47H    basis set group =>   2
Atom  48H    basis set group =>   2
---------------------------------
AUXILIARY/C BASIS SET INFORMATION
---------------------------------
There are 4 groups of distinct atoms

 Group   1 Type C   : 8s6p5d3f1g contracted to 8s6p4d3f1g pattern {11111111/111111/2111/111/1}
 Group   2 Type H   : 4s3p2d contracted to 4s2p1d pattern {1111/21/2}
 Group   3 Type N   : 8s6p5d3f1g contracted to 8s6p4d3f1g pattern {11111111/111111/2111/111/1}
 Group   4 Type O   : 8s6p5d3f1g contracted to 8s6p4d3f1g pattern {11111111/111111/2111/111/1}

Atom   0C    basis set group =>   1
Atom   1C    basis set group =>   1
Atom   2C    basis set group =>   1
Atom   3C    basis set group =>   1
Atom   4C    basis set group =>   1
Atom   5C    basis set group =>   1
Atom   6C    basis set group =>   1
Atom   7C    basis set group =>   1
Atom   8C    basis set group =>   1
Atom   9C    basis set group =>   1
Atom  10H    basis set group =>   2
Atom  11C    basis set group =>   1
Atom  12C    basis set group =>   1
Atom  13C    basis set group =>   1
Atom  14H    basis set group =>   2
Atom  15H    basis set group =>   2
Atom  16H    basis set group =>   2
Atom  17H    basis set group =>   2
Atom  18H    basis set group =>   2
Atom  19N    basis set group =>   3
Atom  20C    basis set group =>   1
Atom  21H    basis set group =>   2
Atom  22H    basis set group =>   2
Atom  23H    basis set group =>   2
Atom  24C    basis set group =>   1
Atom  25C    basis set group =>   1
Atom  26C    basis set group =>   1
Atom  27C    basis set group =>   1
Atom  28C    basis set group =>   1
Atom  29C    basis set group =>   1
Atom  30H    basis set group =>   2
Atom  31H    basis set group =>   2
Atom  32H    basis set group =>   2
Atom  33H    basis set group =>   2
Atom  34H    basis set group =>   2
Atom  35O    basis set group =>   4
Atom  36C    basis set group =>   1
Atom  37H    basis set group =>   2
Atom  38H    basis set group =>   2
Atom  39H    basis set group =>   2
Atom  40N    basis set group =>   3
Atom  41C    basis set group =>   1
Atom  42H    basis set group =>   2
Atom  43H    basis set group =>   2
Atom  44H    basis set group =>   2
Atom  45C    basis set group =>   1
Atom  46H    basis set group =>   2
Atom  47H    basis set group =>   2
Atom  48H    basis set group =>   2


           ************************************************************
           *        Program running with 8 parallel MPI-processes     *
           *              working on a common directory               *
           ************************************************************
------------------------------------------------------------------------------
                           ORCA GTO INTEGRAL CALCULATION
                           -- RI-GTO INTEGRALS CHOSEN --
------------------------------------------------------------------------------
------------------------------------------------------------------------------
                   ___                                                        
                  /   \      - P O W E R E D   B Y -                         
                 /     \                                                     
                 |  |  |   _    _      __       _____    __    __             
                 |  |  |  | |  | |    /  \     |  _  \  |  |  /  |          
                  \  \/   | |  | |   /    \    | | | |  |  | /  /          
                 / \  \   | |__| |  /  /\  \   | |_| |  |  |/  /          
                |  |  |   |  __  | /  /__\  \  |    /   |      \           
                |  |  |   | |  | | |   __   |  |    \   |  |\   \          
                \     /   | |  | | |  |  |  |  | |\  \  |  | \   \       
                 \___/    |_|  |_| |__|  |__|  |_| \__\ |__|  \__/        
                                                                              
                      - O R C A' S   B I G   F R I E N D -                    
                                      &                                       
                       - I N T E G R A L  F E E D E R -                       
                                                                              
 v1 FN, 2020, v2 2021                                                         
------------------------------------------------------------------------------


Reading SHARK input file Ph-Acr_1_M06L_def2TZVP_coords.SHARKINP.tmp ... ok
----------------------
SHARK INTEGRAL PACKAGE
----------------------

Number of atoms                             ...     49
Number of basis functions                   ...    944
Number of shells                            ...    378
Maximum angular momentum                    ...      3
Integral batch strategy                     ... SHARK/LIBINT Hybrid
RI-J (if used) integral strategy            ... SPLIT-RIJ (Revised 2003 algorithm where possible)
Printlevel                                  ...      1
Contraction scheme used                     ... SEGMENTED contraction
Coulomb Range Separation                    ... NOT USED
Exchange Range Separation                   ... NOT USED
Finite Nucleus Model                        ... NOT USED
Auxiliary Coulomb fitting basis             ... AVAILABLE
   # of basis functions in Aux-J            ...   1527
   # of shells in Aux-J                     ...    505
   Maximum angular momentum in Aux-J        ...      4
Auxiliary J/K fitting basis                 ... NOT available
Auxiliary Correlation fitting basis         ... AVAILABLE
   # of basis functions in Aux-C            ...   2321
   # of shells in Aux-C                     ...    733
   Maximum angular momentum in Aux-C        ...      4
Auxiliary 'external' fitting basis          ... NOT available
Integral threshold                          ...     2.500000e-11
Primitive cut-off                           ...     2.500000e-12
Primitive pair pre-selection threshold      ...     2.500000e-12

Calculating pre-screening integrals         ... done (  0.1 sec) Dimension = 378
Organizing shell pair data                  ... done (  1.0 sec)
Shell pair information
Total number of shell pairs                 ...     71631
Shell pairs after pre-screening             ...     48441
Total number of primitive shell pairs       ...    217452
Primitive shell pairs kept                  ...     97017
          la=0 lb=0:  12800 shell pairs
          la=1 lb=0:  14092 shell pairs
          la=1 lb=1:   3872 shell pairs
          la=2 lb=0:   6858 shell pairs
          la=2 lb=1:   3773 shell pairs
          la=2 lb=2:    954 shell pairs
          la=3 lb=0:   3177 shell pairs
          la=3 lb=1:   1810 shell pairs
          la=3 lb=2:    880 shell pairs
          la=3 lb=3:    225 shell pairs

Calculating one electron integrals          ... done (  0.1 sec)
Calculating RI/J V-Matrix + Cholesky decomp.... done (  0.2 sec)
Calculating RI/C V-Matrix + Cholesky decomp.... done (  0.4 sec)
Calculating Nuclear repulsion               ... done (  0.0 sec) ENN=   2278.414533673170 Eh

SHARK setup successfully completed in   2.4 seconds

Maximum memory used throughout the entire GTOINT-calculation: 76.4 MB


           ************************************************************
           *        Program running with 8 parallel MPI-processes     *
           *              working on a common directory               *
           ************************************************************
-------------------------------------------------------------------------------
                                 ORCA SCF
-------------------------------------------------------------------------------

------------
SCF SETTINGS
------------
Hamiltonian:
 Density Functional     Method          .... DFT(GTOs)
 Exchange Functional    Exchange        .... B88
   X-Alpha parameter    XAlpha          ....  0.666667
   Becke's b parameter  XBeta           ....  0.004200
 Correlation Functional Correlation     .... LYP
 LDA part of GGA corr.  LDAOpt          .... VWN-3
 Gradients option       PostSCFGGA      .... off
 Hybrid DFT is turned on
   Fraction HF Exchange ScalHFX         ....  0.530000
   Scaling of DF-GGA-X  ScalDFX         ....  0.470000
   Scaling of DF-GGA-C  ScalDFC         ....  0.730000
   Scaling of DF-LDA-C  ScalLDAC        ....  0.730000
   Perturbative correction              ....  0.270000
   Density functional embedding theory  .... OFF
   NL short-range parameter             ....  7.800000
 RI-approximation to the Coulomb term is turned on
   Number of AuxJ basis functions       .... 1527
   RIJ-COSX (HFX calculated with COS-X)).... on


General Settings:
 Integral files         IntName         .... Ph-Acr_1_M06L_def2TZVP_coords
 Hartree-Fock type      HFTyp           .... RHF
 Total Charge           Charge          ....    1
 Multiplicity           Mult            ....    1
 Number of Electrons    NEL             ....  182
 Basis Dimension        Dim             ....  944
 Nuclear Repulsion      ENuc            ....   2278.4145336732 Eh

Convergence Acceleration:
 DIIS                   CNVDIIS         .... on
   Start iteration      DIISMaxIt       ....    12
   Startup error        DIISStart       ....  0.200000
   # of expansion vecs  DIISMaxEq       ....     5
   Bias factor          DIISBfac        ....   1.050
   Max. coefficient     DIISMaxC        ....  10.000
 Trust-Rad. Augm. Hess. CNVTRAH         .... auto
   Auto Start mean grad. ratio tolernc. ....  1.125000
   Auto Start start iteration           ....    20
   Auto Start num. interpolation iter.  ....    10
   Max. Number of Micro iterations      ....    16
   Max. Number of Macro iterations      .... Maxiter - #DIIS iter
   Number of Davidson start vectors     ....     2
   Converg. threshold I  (grad. norm)   ....   1.000e-05
   Converg. threshold II (energy diff.) ....   1.000e-08
   Grad. Scal. Fac. for Micro threshold ....   0.100
   Minimum threshold for Micro iter.    ....   0.010
   NR start threshold (gradient norm)   ....   0.001
   Initial trust radius                 ....   0.400
   Minimum AH scaling param. (alpha)    ....   1.000
   Maximum AH scaling param. (alpha)    .... 1000.000
   Orbital update algorithm             .... Taylor
   White noise on init. David. guess    .... on
   Maximum white noise                  ....   0.010
   Quad. conv. algorithm                .... NR
 SOSCF                  CNVSOSCF        .... on
   Start iteration      SOSCFMaxIt      ....   150
   Startup grad/error   SOSCFStart      ....  0.003300
 Level Shifting         CNVShift        .... on
   Level shift para.    LevelShift      ....    0.2500
   Turn off err/grad.   ShiftErr        ....    0.0010
 Zerner damping         CNVZerner       .... off
 Static damping         CNVDamp         .... on
   Fraction old density DampFac         ....    0.7000
   Max. Damping (<1)    DampMax         ....    0.9800
   Min. Damping (>=0)   DampMin         ....    0.0000
   Turn off err/grad.   DampErr         ....    0.1000
 Fernandez-Rico         CNVRico         .... off

SCF Procedure:
 Maximum # iterations   MaxIter         ....   125
 SCF integral mode      SCFMode         .... Direct
   Integral package                     .... SHARK and LIBINT hybrid scheme
 Reset frequency        DirectResetFreq ....    20
 Integral Threshold     Thresh          ....  2.500e-11 Eh
 Primitive CutOff       TCut            ....  2.500e-12 Eh

Convergence Tolerance:
 Convergence Check Mode ConvCheckMode   .... Total+1el-Energy
 Convergence forced     ConvForced      .... 1
 Energy Change          TolE            ....  1.000e-08 Eh
 1-El. energy change                    ....  1.000e-05 Eh
 Orbital Gradient       TolG            ....  1.000e-05
 Orbital Rotation angle TolX            ....  1.000e-05
 DIIS Error             TolErr          ....  5.000e-07


Diagonalization of the overlap matrix:
Smallest eigenvalue                        ... 4.510e-06
Time for diagonalization                   ...    0.185 sec
Threshold for overlap eigenvalues          ... 1.000e-08
Number of eigenvalues below threshold      ... 0
Time for construction of square roots      ...    0.208 sec
Total time needed                          ...    0.398 sec

Time for model grid setup =    0.320 sec

------------------------------
INITIAL GUESS: MODEL POTENTIAL
------------------------------
Loading Hartree-Fock densities                     ... done
Calculating cut-offs                               ... done
Initializing the effective Hamiltonian             ... done
Setting up the integral package (SHARK)            ... done
Starting the Coulomb interaction                   ... done (   0.6 sec)
Reading the grid                                   ... done
Mapping shells                                     ... done
Starting the XC term evaluation                    ... done (   0.4 sec)
  promolecular density results
     # of electrons  =    182.982794941
     EX              =   -146.657691339
     EC              =     -2.076181101
     EX+EC           =   -148.733872440
Transforming the Hamiltonian                       ... done (   0.1 sec)
Diagonalizing the Hamiltonian                      ... done (   0.2 sec)
Back transforming the eigenvectors                 ... done (   0.1 sec)
Now organizing SCF variables                       ... done
                      ------------------
                      INITIAL GUESS DONE (   1.8 sec)
                      ------------------
-------------------
DFT GRID GENERATION
-------------------

General Integration Accuracy     IntAcc      ... 4.388
Radial Grid Type                 RadialGrid  ... OptM3 with GC (2021)
Angular Grid (max. ang.)         AngularGrid ... 4 (Lebedev-302)
Angular grid pruning method      GridPruning ... 4 (adaptive)
Weight generation scheme         WeightScheme... Becke
Basis function cutoff            BFCut       ... 1.0000e-11
Integration weight cutoff        WCut        ... 1.0000e-14
Angular grids for H and He will be reduced by one unit
Partially contracted basis set               ... off
Rotationally invariant grid construction     ... off

Total number of grid points                  ...   227536
Total number of batches                      ...     3583
Average number of points per batch           ...       63
Average number of grid points per atom       ...     4644
Time for grid setup =    1.424 sec

--------------------
COSX GRID GENERATION
--------------------

GRIDX 1
-------
General Integration Accuracy     IntAcc      ... 3.816
Radial Grid Type                 RadialGrid  ... OptM3 with GC (2021)
Angular Grid (max. ang.)         AngularGrid ... 1 (Lebedev-50)
Angular grid pruning method      GridPruning ... 4 (adaptive)
Weight generation scheme         WeightScheme... Becke
Basis function cutoff            BFCut       ... 1.0000e-11
Integration weight cutoff        WCut        ... 1.0000e-14
Angular grids for H and He will be reduced by one unit
Partially contracted basis set               ... on
Rotationally invariant grid construction     ... off

Total number of grid points                  ...    28980
Total number of batches                      ...      478
Average number of points per batch           ...       60
Average number of grid points per atom       ...      591
UseSFitting                                  ... on

GRIDX 2
-------
General Integration Accuracy     IntAcc      ... 4.020
Radial Grid Type                 RadialGrid  ... OptM3 with GC (2021)
Angular Grid (max. ang.)         AngularGrid ... 2 (Lebedev-110)
Angular grid pruning method      GridPruning ... 4 (adaptive)
Weight generation scheme         WeightScheme... Becke
Basis function cutoff            BFCut       ... 1.0000e-11
Integration weight cutoff        WCut        ... 1.0000e-14
Angular grids for H and He will be reduced by one unit
Partially contracted basis set               ... on
Rotationally invariant grid construction     ... off

Total number of grid points                  ...    61924
Total number of batches                      ...      994
Average number of points per batch           ...       62
Average number of grid points per atom       ...     1264
UseSFitting                                  ... on

GRIDX 3
-------
General Integration Accuracy     IntAcc      ... 4.338
Radial Grid Type                 RadialGrid  ... OptM3 with GC (2021)
Angular Grid (max. ang.)         AngularGrid ... 3 (Lebedev-194)
Angular grid pruning method      GridPruning ... 4 (adaptive)
Weight generation scheme         WeightScheme... Becke
Basis function cutoff            BFCut       ... 1.0000e-11
Integration weight cutoff        WCut        ... 1.0000e-14
Angular grids for H and He will be reduced by one unit
Partially contracted basis set               ... on
Rotationally invariant grid construction     ... off

Total number of grid points                  ...   135139
Total number of batches                      ...     2136
Average number of points per batch           ...       63
Average number of grid points per atom       ...     2758
UseSFitting                                  ... on

Time for X-Grid setup             =    2.411 sec


--------------------
CPCM SOLVATION MODEL
--------------------
CPCM parameters:
  Epsilon                                         ...      35.6880
  Refrac                                          ...       1.3442
  Rsolv                                           ...       1.3000
  Surface type                                    ... GAUSSIAN VDW
  Epsilon function type                           ...         CPCM
Solvent:                                     ... ACETONITRILE
SMD-CDS solvent descriptors:
  Soln                                       ...    1.3442
  Soln25                                     ...    1.3416
  Sola                                       ...    0.0700
  Solb                                       ...    0.3200
  Solg                                       ...   41.2500
  Solc                                       ...    0.0000
  Solh                                       ...    0.0000
Radii:
 Radius for C  used is    3.4960 Bohr (=   1.8500 Ang.)
 Radius for H  used is    2.2677 Bohr (=   1.2000 Ang.)
 Radius for N  used is    3.5716 Bohr (=   1.8900 Ang.)
 Radius for O  used is    4.0969 Bohr (=   2.1680 Ang.)
Calculating surface                               ...        done! (  0.0s)
GEPOL surface points                              ...         2675
GEPOL Volume                                      ...    2428.7677
GEPOL Surface-area                                ...    1290.6886
Calculating surface distance matrix               ...        done! (  0.1s)
Performing Cholesky decomposition & store         ...        done! (  0.6s)
Overall time for CPCM initialization              ...                 0.7s
--------------
SCF ITERATIONS
--------------
ITER       Energy         Delta-E        Max-DP      RMS-DP      [F,P]     Damp
               ***  Starting incremental Fock matrix formation  ***
  0  -1072.3511942676   0.000000000000 0.03259032  0.00051488  0.1671063 0.7000
  1  -1072.5793454399  -0.228151172282 0.02201033  0.00040776  0.0983804 0.7000
                               ***Turning on DIIS***
  2  -1072.7043845335  -0.125039093561 0.05438579  0.00088537  0.0544501 0.0000
  3  -1072.9191295397  -0.214745006206 0.02849021  0.00028030  0.0343087 0.0000
  4  -1072.9438755515  -0.024746011808 0.00554554  0.00010759  0.0052085 0.0000
                      *** Initiating the SOSCF procedure ***
                           *** Shutting down DIIS ***
                      *** Re-Reading the Fockian *** 
                      *** Removing any level shift *** 
ITER      Energy       Delta-E        Grad      Rot      Max-DP    RMS-DP
  5  -1072.94468105  -0.0008054956  0.001516  0.001516  0.003874  0.000044
               *** Restarting incremental Fock matrix formation ***
  6  -1072.94476653  -0.0000854812  0.000764  0.002786  0.007104  0.000096
  7  -1072.94480335  -0.0000368173  0.000291  0.002270  0.002931  0.000042
  8  -1072.94481045  -0.0000071065  0.000170  0.000557  0.002576  0.000034
  9  -1072.94481307  -0.0000026140  0.000037  0.000156  0.000497  0.000007
 10  -1072.94481325  -0.0000001807  0.000028  0.000102  0.000237  0.000003
 11  -1072.94481330  -0.0000000526  0.000007  0.000030  0.000202  0.000002
 12  -1072.94481328   0.0000000150  0.000006  0.000019  0.000147  0.000001
                  ***Gradient check signals convergence***
              ***Rediagonalizing the Fockian in SOSCF/NRSCF***

               *****************************************************
               *                     SUCCESS                       *
               *           SCF CONVERGED AFTER  13 CYCLES          *
               *****************************************************

Old exchange energy                            =    -79.001871436 Eh
New exchange energy                            =    -79.001832566 Eh
Exchange energy change after final integration =      0.000038869 Eh
Total energy after final integration           =  -1072.944774461 Eh
Final COS-X integration done in                =    36.280 sec

SMD CDS free energy correction energy :                -4.65458     Kcal/mol
Total Energy after SMD CDS correction =             -1072.952192011 Eh

----------------
TOTAL SCF ENERGY
----------------

Total Energy       :        -1072.95219201 Eh          -29196.51347 eV

Components:
Nuclear Repulsion  :         2278.41453367 Eh           61998.81142 eV
Electronic Energy  :        -3351.36672568 Eh          -91195.32489 eV
One Electron Energy:        -5961.32329112 Eh         -162215.85365 eV
Two Electron Energy:         2609.95656544 Eh           71020.52876 eV
Max COSX asymmetry :            0.00000433 Eh               0.00012 eV
CPCM Dielectric    :           -0.07476907 Eh              -2.03457 eV
SMD CDS (Gcds)     :           -0.00741755 Eh              -0.20184 eV

Virial components:
Potential Energy   :        -2142.39643834 Eh          -58297.57088 eV
Kinetic Energy     :         1069.44424633 Eh           29101.05741 eV
Virial Ratio       :            2.00328016


DFT components:
N(Alpha)           :       91.000005906353 electrons
N(Beta)            :       91.000005906353 electrons
N(Total)           :      182.000011812707 electrons
E(X)               :      -70.176626900138 Eh       
E(C)               :       -4.514175238760 Eh       
E(XC)              :      -74.690802138898 Eh       
DFET-embed. en.    :        0.000000000000 Eh       
CPCM Solvation Model Properties:
Surface-charge          :           -1.06516178
Charge-correction       :            0.00658586 Eh               0.17921 eV
Free-energy (cav+disp)  :           -0.00741755 Eh              -0.20184 eV

---------------
SCF CONVERGENCE
---------------

  Last Energy change         ...   -4.5721e-08  Tolerance :   1.0000e-08
  Last MAX-Density change    ...    1.7764e-15  Tolerance :   1.0000e-07
  Last RMS-Density change    ...    1.2254e-17  Tolerance :   5.0000e-09
  Last Orbital Gradient      ...    1.2595e-06  Tolerance :   1.0000e-05
  Last Orbital Rotation      ...    8.9441e-06  Tolerance :   1.0000e-05

             **** THE GBW FILE WAS UPDATED (Ph-Acr_1_M06L_def2TZVP_coords.gbw) ****
             **** DENSITY Ph-Acr_1_M06L_def2TZVP_coords.scfp WAS UPDATED ****
             **** ENERGY FILE WAS UPDATED (Ph-Acr_1_M06L_def2TZVP_coords.en.tmp) ****
             **** THE GBW FILE WAS UPDATED (Ph-Acr_1_M06L_def2TZVP_coords.gbw) ****
             **** DENSITY Ph-Acr_1_M06L_def2TZVP_coords.scfp WAS UPDATED ****
----------------
ORBITAL ENERGIES
----------------

  NO   OCC          E(Eh)            E(eV) 
   0   2.0000     -19.766052      -537.8616 
   1   2.0000     -14.919903      -405.9912 
   2   2.0000     -14.876893      -404.8208 
   3   2.0000     -10.707902      -291.3768 
   4   2.0000     -10.698480      -291.1205 
   5   2.0000     -10.698454      -291.1197 
   6   2.0000     -10.689566      -290.8779 
   7   2.0000     -10.682950      -290.6978 
   8   2.0000     -10.660295      -290.0814 
   9   2.0000     -10.653961      -289.9090 
  10   2.0000     -10.648022      -289.7474 
  11   2.0000     -10.647622      -289.7365 
  12   2.0000     -10.639725      -289.5216 
  13   2.0000     -10.639536      -289.5165 
  14   2.0000     -10.638241      -289.4812 
  15   2.0000     -10.638028      -289.4754 
  16   2.0000     -10.636926      -289.4455 
  17   2.0000     -10.626700      -289.1672 
  18   2.0000     -10.620485      -288.9981 
  19   2.0000     -10.620379      -288.9952 
  20   2.0000     -10.619877      -288.9815 
  21   2.0000     -10.618960      -288.9566 
  22   2.0000     -10.618689      -288.9492 
  23   2.0000     -10.617622      -288.9202 
  24   2.0000     -10.617374      -288.9134 
  25   2.0000     -10.616547      -288.8909 
  26   2.0000      -1.231445       -33.5093 
  27   2.0000      -1.147087       -31.2138 
  28   2.0000      -1.104963       -30.0676 
  29   2.0000      -1.014597       -27.6086 
  30   2.0000      -1.000451       -27.2237 
  31   2.0000      -0.983850       -26.7719 
  32   2.0000      -0.944613       -25.7042 
  33   2.0000      -0.900194       -24.4955 
  34   2.0000      -0.884687       -24.0736 
  35   2.0000      -0.877840       -23.8872 
  36   2.0000      -0.868878       -23.6434 
  37   2.0000      -0.864550       -23.5256 
  38   2.0000      -0.836439       -22.7607 
  39   2.0000      -0.822285       -22.3755 
  40   2.0000      -0.817037       -22.2327 
  41   2.0000      -0.795293       -21.6410 
  42   2.0000      -0.763881       -20.7862 
  43   2.0000      -0.737296       -20.0629 
  44   2.0000      -0.714295       -19.4370 
  45   2.0000      -0.704246       -19.1635 
  46   2.0000      -0.697918       -18.9913 
  47   2.0000      -0.672112       -18.2891 
  48   2.0000      -0.656492       -17.8640 
  49   2.0000      -0.641530       -17.4569 
  50   2.0000      -0.624572       -16.9955 
  51   2.0000      -0.596082       -16.2202 
  52   2.0000      -0.591317       -16.0906 
  53   2.0000      -0.588382       -16.0107 
  54   2.0000      -0.575992       -15.6735 
  55   2.0000      -0.564537       -15.3618 
  56   2.0000      -0.563247       -15.3267 
  57   2.0000      -0.553048       -15.0492 
  58   2.0000      -0.549102       -14.9418 
  59   2.0000      -0.545838       -14.8530 
  60   2.0000      -0.541916       -14.7463 
  61   2.0000      -0.534733       -14.5508 
  62   2.0000      -0.528048       -14.3689 
  63   2.0000      -0.527279       -14.3480 
  64   2.0000      -0.507220       -13.8021 
  65   2.0000      -0.494863       -13.4659 
  66   2.0000      -0.493445       -13.4273 
  67   2.0000      -0.485440       -13.2095 
  68   2.0000      -0.481188       -13.0938 
  69   2.0000      -0.475827       -12.9479 
  70   2.0000      -0.472878       -12.8677 
  71   2.0000      -0.472537       -12.8584 
  72   2.0000      -0.466537       -12.6951 
  73   2.0000      -0.452493       -12.3130 
  74   2.0000      -0.448896       -12.2151 
  75   2.0000      -0.447307       -12.1718 
  76   2.0000      -0.441207       -12.0058 
  77   2.0000      -0.435577       -11.8526 
  78   2.0000      -0.421777       -11.4771 
  79   2.0000      -0.417276       -11.3547 
  80   2.0000      -0.412199       -11.2165 
  81   2.0000      -0.405222       -11.0267 
  82   2.0000      -0.400084       -10.8868 
  83   2.0000      -0.385742       -10.4966 
  84   2.0000      -0.374098       -10.1797 
  85   2.0000      -0.330951        -9.0056 
  86   2.0000      -0.309770        -8.4293 
  87   2.0000      -0.298210        -8.1147 
  88   2.0000      -0.290380        -7.9016 
  89   2.0000      -0.260564        -7.0903 
  90   2.0000      -0.249982        -6.8024 
  91   0.0000      -0.056643        -1.5413 
  92   0.0000       0.014133         0.3846 
  93   0.0000       0.035362         0.9622 
  94   0.0000       0.038623         1.0510 
  95   0.0000       0.047775         1.3000 
  96   0.0000       0.065372         1.7789 
  97   0.0000       0.075036         2.0418 
  98   0.0000       0.088218         2.4005 
  99   0.0000       0.095933         2.6105 
 100   0.0000       0.098277         2.6742 
 101   0.0000       0.103107         2.8057 
 102   0.0000       0.109532         2.9805 
 103   0.0000       0.112851         3.0708 
 104   0.0000       0.115217         3.1352 
 105   0.0000       0.125798         3.4231 
 106   0.0000       0.131287         3.5725 
 107   0.0000       0.133780         3.6403 
 108   0.0000       0.134764         3.6671 
 109   0.0000       0.140043         3.8108 
 110   0.0000       0.142948         3.8898 
 111   0.0000       0.148598         4.0436 
 112   0.0000       0.153400         4.1742 
 113   0.0000       0.157804         4.2941 
 114   0.0000       0.159515         4.3406 
 115   0.0000       0.165933         4.5153 
 116   0.0000       0.172491         4.6937 
 117   0.0000       0.174936         4.7602 
 118   0.0000       0.176373         4.7994 
 119   0.0000       0.180175         4.9028 
 120   0.0000       0.185026         5.0348 
 121   0.0000       0.186088         5.0637 
 122   0.0000       0.190017         5.1706 
 123   0.0000       0.197709         5.3799 
 124   0.0000       0.204252         5.5580 
 125   0.0000       0.205235         5.5847 
 126   0.0000       0.207866         5.6563 
 127   0.0000       0.210849         5.7375 
 128   0.0000       0.217813         5.9270 
 129   0.0000       0.223630         6.0853 
 130   0.0000       0.226039         6.1508 
 131   0.0000       0.231772         6.3068 
 132   0.0000       0.237880         6.4731 
 133   0.0000       0.243079         6.6145 
 134   0.0000       0.252873         6.8810 
 135   0.0000       0.253258         6.8915 
 136   0.0000       0.255836         6.9617 
 137   0.0000       0.258192         7.0258 
 138   0.0000       0.263854         7.1798 
 139   0.0000       0.268390         7.3033 
 140   0.0000       0.273566         7.4441 
 141   0.0000       0.276270         7.5177 
 142   0.0000       0.277794         7.5591 
 143   0.0000       0.280155         7.6234 
 144   0.0000       0.283362         7.7107 
 145   0.0000       0.287064         7.8114 
 146   0.0000       0.292350         7.9552 
 147   0.0000       0.297186         8.0868 
 148   0.0000       0.301279         8.1982 
 149   0.0000       0.306400         8.3376 
 150   0.0000       0.310952         8.4614 
 151   0.0000       0.314729         8.5642 
 152   0.0000       0.317637         8.6433 
 153   0.0000       0.321876         8.7587 
 154   0.0000       0.332859         9.0575 
 155   0.0000       0.334486         9.1018 
 156   0.0000       0.339868         9.2483 
 157   0.0000       0.345672         9.4062 
 158   0.0000       0.349503         9.5105 
 159   0.0000       0.350201         9.5294 
 160   0.0000       0.354939         9.6584 
 161   0.0000       0.359180         9.7738 
 162   0.0000       0.363845         9.9007 
 163   0.0000       0.369050        10.0424 
 164   0.0000       0.373097        10.1525 
 165   0.0000       0.375040        10.2054 
 166   0.0000       0.381477        10.3805 
 167   0.0000       0.384616        10.4659 
 168   0.0000       0.389731        10.6051 
 169   0.0000       0.393366        10.7040 
 170   0.0000       0.402655        10.9568 
 171   0.0000       0.403248        10.9729 
 172   0.0000       0.405290        11.0285 
 173   0.0000       0.410740        11.1768 
 174   0.0000       0.414963        11.2917 
 175   0.0000       0.421358        11.4657 
 176   0.0000       0.423406        11.5215 
 177   0.0000       0.424866        11.5612 
 178   0.0000       0.429404        11.6847 
 179   0.0000       0.433547        11.7974 
 180   0.0000       0.437368        11.9014 
 181   0.0000       0.440069        11.9749 
 182   0.0000       0.442883        12.0514 
 183   0.0000       0.448922        12.2158 
 184   0.0000       0.456223        12.4145 
 185   0.0000       0.457083        12.4379 
 186   0.0000       0.458662        12.4808 
 187   0.0000       0.460820        12.5395 
 188   0.0000       0.461507        12.5582 
 189   0.0000       0.467299        12.7158 
 190   0.0000       0.472468        12.8565 
 191   0.0000       0.476810        12.9747 
 192   0.0000       0.479780        13.0555 
 193   0.0000       0.483840        13.1660 
 194   0.0000       0.486285        13.2325 
 195   0.0000       0.489890        13.3306 
 196   0.0000       0.491667        13.3789 
 197   0.0000       0.494712        13.4618 
 198   0.0000       0.499091        13.5810 
 199   0.0000       0.504183        13.7195 
 200   0.0000       0.504808        13.7365 
 201   0.0000       0.512151        13.9363 
 202   0.0000       0.514267        13.9939 
 203   0.0000       0.516224        14.0472 
 204   0.0000       0.519408        14.1338 
 205   0.0000       0.526023        14.3138 
 206   0.0000       0.529462        14.4074 
 207   0.0000       0.531744        14.4695 
 208   0.0000       0.533939        14.5292 
 209   0.0000       0.540093        14.6967 
 210   0.0000       0.542997        14.7757 
 211   0.0000       0.549581        14.9549 
 212   0.0000       0.550183        14.9712 
 213   0.0000       0.551888        15.0176 
 214   0.0000       0.553061        15.0496 
 215   0.0000       0.558088        15.1863 
 216   0.0000       0.561442        15.2776 
 217   0.0000       0.567199        15.4343 
 218   0.0000       0.568125        15.4595 
 219   0.0000       0.573968        15.6185 
 220   0.0000       0.575749        15.6669 
 221   0.0000       0.581578        15.8255 
 222   0.0000       0.586043        15.9471 
 223   0.0000       0.592208        16.1148 
 224   0.0000       0.593855        16.1596 
 225   0.0000       0.599988        16.3265 
 226   0.0000       0.604233        16.4420 
 227   0.0000       0.610275        16.6064 
 228   0.0000       0.614839        16.7306 
 229   0.0000       0.622713        16.9449 
 230   0.0000       0.626295        17.0424 
 231   0.0000       0.634351        17.2616 
 232   0.0000       0.638663        17.3789 
 233   0.0000       0.642046        17.4709 
 234   0.0000       0.645324        17.5602 
 235   0.0000       0.653342        17.7783 
 236   0.0000       0.661294        17.9947 
 237   0.0000       0.670089        18.2340 
 238   0.0000       0.675098        18.3704 
 239   0.0000       0.680845        18.5267 
 240   0.0000       0.686941        18.6926 
 241   0.0000       0.690375        18.7860 
 242   0.0000       0.695830        18.9345 
 243   0.0000       0.702815        19.1246 
 244   0.0000       0.705732        19.2040 
 245   0.0000       0.709883        19.3169 
 246   0.0000       0.713371        19.4118 
 247   0.0000       0.716846        19.5064 
 248   0.0000       0.722785        19.6680 
 249   0.0000       0.725993        19.7553 
 250   0.0000       0.731269        19.8988 
 251   0.0000       0.738694        20.1009 
 252   0.0000       0.741354        20.1733 
 253   0.0000       0.743061        20.2197 
 254   0.0000       0.745295        20.2805 
 255   0.0000       0.758447        20.6384 
 256   0.0000       0.761909        20.7326 
 257   0.0000       0.765061        20.8184 
 258   0.0000       0.771738        21.0001 
 259   0.0000       0.775451        21.1011 
 260   0.0000       0.776308        21.1244 
 261   0.0000       0.786620        21.4050 
 262   0.0000       0.790514        21.5110 
 263   0.0000       0.791144        21.5281 
 264   0.0000       0.793936        21.6041 
 265   0.0000       0.801208        21.8020 
 266   0.0000       0.804717        21.8975 
 267   0.0000       0.807920        21.9846 
 268   0.0000       0.809097        22.0166 
 269   0.0000       0.816767        22.2254 
 270   0.0000       0.819784        22.3074 
 271   0.0000       0.829146        22.5622 
 272   0.0000       0.831758        22.6333 
 273   0.0000       0.836078        22.7508 
 274   0.0000       0.846936        23.0463 
 275   0.0000       0.852654        23.2019 
 276   0.0000       0.860614        23.4185 
 277   0.0000       0.863041        23.4845 
 278   0.0000       0.873445        23.7676 
 279   0.0000       0.881384        23.9837 
 280   0.0000       0.886842        24.1322 
 281   0.0000       0.890895        24.2425 
 282   0.0000       0.894395        24.3377 
 283   0.0000       0.898918        24.4608 
 284   0.0000       0.903870        24.5956 
 285   0.0000       0.908001        24.7080 
 286   0.0000       0.909129        24.7387 
 287   0.0000       0.916589        24.9416 
 288   0.0000       0.922916        25.1138 
 289   0.0000       0.926520        25.2119 
 290   0.0000       0.934195        25.4207 
 291   0.0000       0.942907        25.6578 
 292   0.0000       0.946988        25.7689 
 293   0.0000       0.952302        25.9135 
 294   0.0000       0.958692        26.0873 
 295   0.0000       0.965021        26.2595 
 296   0.0000       0.973105        26.4795 
 297   0.0000       0.980924        26.6923 
 298   0.0000       0.985348        26.8127 
 299   0.0000       0.989706        26.9313 
 300   0.0000       1.002672        27.2841 
 301   0.0000       1.006760        27.3953 
 302   0.0000       1.009977        27.4829 
 303   0.0000       1.014341        27.6016 
 304   0.0000       1.032546        28.0970 
 305   0.0000       1.035145        28.1677 
 306   0.0000       1.038885        28.2695 
 307   0.0000       1.046593        28.4793 
 308   0.0000       1.051134        28.6028 
 309   0.0000       1.061141        28.8751 
 310   0.0000       1.071105        29.1462 
 311   0.0000       1.076241        29.2860 
 312   0.0000       1.076880        29.3034 
 313   0.0000       1.091623        29.7046 
 314   0.0000       1.094143        29.7731 
 315   0.0000       1.105509        30.0824 
 316   0.0000       1.109199        30.1828 
 317   0.0000       1.112160        30.2634 
 318   0.0000       1.124185        30.5906 
 319   0.0000       1.129132        30.7252 
 320   0.0000       1.132543        30.8181 
 321   0.0000       1.137059        30.9410 
 322   0.0000       1.145025        31.1577 
 323   0.0000       1.149371        31.2760 
 324   0.0000       1.156157        31.4606 
 325   0.0000       1.160697        31.5842 
 326   0.0000       1.173330        31.9279 
 327   0.0000       1.181430        32.1483 
 328   0.0000       1.190932        32.4069 
 329   0.0000       1.199612        32.6431 
 330   0.0000       1.201567        32.6963 
 331   0.0000       1.203594        32.7514 
 332   0.0000       1.213575        33.0230 
 333   0.0000       1.225052        33.3353 
 334   0.0000       1.228231        33.4219 
 335   0.0000       1.233100        33.5544 
 336   0.0000       1.239494        33.7284 
 337   0.0000       1.244813        33.8731 
 338   0.0000       1.253143        34.0998 
 339   0.0000       1.262536        34.3553 
 340   0.0000       1.267800        34.4986 
 341   0.0000       1.273874        34.6639 
 342   0.0000       1.289525        35.0897 
 343   0.0000       1.294652        35.2293 
 344   0.0000       1.299208        35.3532 
 345   0.0000       1.314377        35.7660 
 346   0.0000       1.317534        35.8519 
 347   0.0000       1.323795        36.0223 
 348   0.0000       1.329591        36.1800 
 349   0.0000       1.335775        36.3483 
 350   0.0000       1.345204        36.6049 
 351   0.0000       1.347385        36.6642 
 352   0.0000       1.358243        36.9597 
 353   0.0000       1.364744        37.1366 
 354   0.0000       1.367277        37.2055 
 355   0.0000       1.369603        37.2688 
 356   0.0000       1.373405        37.3722 
 357   0.0000       1.385104        37.6906 
 358   0.0000       1.386261        37.7221 
 359   0.0000       1.390292        37.8318 
 360   0.0000       1.405458        38.2445 
 361   0.0000       1.414379        38.4872 
 362   0.0000       1.422985        38.7214 
 363   0.0000       1.434967        39.0474 
 364   0.0000       1.441455        39.2240 
 365   0.0000       1.453970        39.5645 
 366   0.0000       1.463012        39.8106 
 367   0.0000       1.467698        39.9381 
 368   0.0000       1.480038        40.2739 
 369   0.0000       1.487947        40.4891 
 370   0.0000       1.491974        40.5987 
 371   0.0000       1.496256        40.7152 
 372   0.0000       1.501040        40.8454 
 373   0.0000       1.504845        40.9489 
 374   0.0000       1.520727        41.3811 
 375   0.0000       1.527139        41.5556 
 376   0.0000       1.537436        41.8358 
 377   0.0000       1.543997        42.0143 
 378   0.0000       1.547855        42.1193 
 379   0.0000       1.551704        42.2240 
 380   0.0000       1.556581        42.3567 
 381   0.0000       1.559948        42.4484 
 382   0.0000       1.565010        42.5861 
 383   0.0000       1.574522        42.8449 
 384   0.0000       1.576570        42.9007 
 385   0.0000       1.587087        43.1868 
 386   0.0000       1.595281        43.4098 
 387   0.0000       1.597690        43.4754 
 388   0.0000       1.600641        43.5556 
 389   0.0000       1.608383        43.7663 
 390   0.0000       1.615379        43.9567 
 391   0.0000       1.625719        44.2381 
 392   0.0000       1.630794        44.3762 
 393   0.0000       1.633253        44.4431 
 394   0.0000       1.637128        44.5485 
 395   0.0000       1.642625        44.6981 
 396   0.0000       1.645282        44.7704 
 397   0.0000       1.648549        44.8593 
 398   0.0000       1.652654        44.9710 
 399   0.0000       1.654845        45.0306 
 400   0.0000       1.661157        45.2024 
 401   0.0000       1.663935        45.2780 
 402   0.0000       1.666766        45.3550 
 403   0.0000       1.672186        45.5025 
 404   0.0000       1.680394        45.7259 
 405   0.0000       1.685872        45.8749 
 406   0.0000       1.690241        45.9938 
 407   0.0000       1.692319        46.0503 
 408   0.0000       1.699322        46.2409 
 409   0.0000       1.703342        46.3503 
 410   0.0000       1.710123        46.5348 
 411   0.0000       1.715184        46.6725 
 412   0.0000       1.723111        46.8882 
 413   0.0000       1.727034        46.9950 
 414   0.0000       1.732515        47.1441 
 415   0.0000       1.735243        47.2184 
 416   0.0000       1.742397        47.4130 
 417   0.0000       1.743075        47.4315 
 418   0.0000       1.749136        47.5964 
 419   0.0000       1.751571        47.6627 
 420   0.0000       1.762049        47.9478 
 421   0.0000       1.766808        48.0773 
 422   0.0000       1.771064        48.1931 
 423   0.0000       1.776304        48.3357 
 424   0.0000       1.783160        48.5223 
 425   0.0000       1.787408        48.6378 
 426   0.0000       1.794154        48.8214 
 427   0.0000       1.801752        49.0282 
 428   0.0000       1.810059        49.2542 
 429   0.0000       1.818748        49.4906 
 430   0.0000       1.821463        49.5645 
 431   0.0000       1.828565        49.7578 
 432   0.0000       1.834417        49.9170 
 433   0.0000       1.837631        50.0045 
 434   0.0000       1.841856        50.1194 
 435   0.0000       1.844162        50.1822 
 436   0.0000       1.852396        50.4063 
 437   0.0000       1.858384        50.5692 
 438   0.0000       1.864397        50.7328 
 439   0.0000       1.872390        50.9503 
 440   0.0000       1.879925        51.1554 
 441   0.0000       1.890579        51.4453 
 442   0.0000       1.903859        51.8066 
 443   0.0000       1.911301        52.0092 
 444   0.0000       1.919631        52.2358 
 445   0.0000       1.923088        52.3299 
 446   0.0000       1.932818        52.5947 
 447   0.0000       1.939993        52.7899 
 448   0.0000       1.948488        53.0211 
 449   0.0000       1.948978        53.0344 
 450   0.0000       1.964396        53.4539 
 451   0.0000       1.976758        53.7903 
 452   0.0000       1.980625        53.8956 
 453   0.0000       1.992513        54.2190 
 454   0.0000       2.000810        54.4448 
 455   0.0000       2.007712        54.6326 
 456   0.0000       2.009202        54.6732 
 457   0.0000       2.015241        54.8375 
 458   0.0000       2.035662        55.3932 
 459   0.0000       2.043039        55.5939 
 460   0.0000       2.058184        56.0060 
 461   0.0000       2.068503        56.2868 
 462   0.0000       2.076198        56.4962 
 463   0.0000       2.087814        56.8123 
 464   0.0000       2.089983        56.8713 
 465   0.0000       2.096163        57.0395 
 466   0.0000       2.097726        57.0820 
 467   0.0000       2.104887        57.2769 
 468   0.0000       2.109307        57.3972 
 469   0.0000       2.122221        57.7486 
 470   0.0000       2.127981        57.9053 
 471   0.0000       2.132706        58.0339 
 472   0.0000       2.143222        58.3200 
 473   0.0000       2.145382        58.3788 
 474   0.0000       2.149487        58.4905 
 475   0.0000       2.158859        58.7455 
 476   0.0000       2.168399        59.0051 
 477   0.0000       2.173291        59.1383 
 478   0.0000       2.178213        59.2722 
 479   0.0000       2.187123        59.5146 
 480   0.0000       2.195449        59.7412 
 481   0.0000       2.198582        59.8264 
 482   0.0000       2.202337        59.9286 
 483   0.0000       2.213570        60.2343 
 484   0.0000       2.216395        60.3112 
 485   0.0000       2.223850        60.5140 
 486   0.0000       2.237969        60.8982 
 487   0.0000       2.247530        61.1584 
 488   0.0000       2.256001        61.3889 
 489   0.0000       2.269525        61.7569 
 490   0.0000       2.272885        61.8483 
 491   0.0000       2.282659        62.1143 
 492   0.0000       2.288046        62.2609 
 493   0.0000       2.302918        62.6656 
 494   0.0000       2.312843        62.9356 
 495   0.0000       2.317649        63.0664 
 496   0.0000       2.325938        63.2920 
 497   0.0000       2.333573        63.4997 
 498   0.0000       2.337637        63.6103 
 499   0.0000       2.349453        63.9319 
 500   0.0000       2.361539        64.2608 
 501   0.0000       2.364215        64.3336 
 502   0.0000       2.380598        64.7794 
 503   0.0000       2.393422        65.1283 
 504   0.0000       2.395060        65.1729 
 505   0.0000       2.402383        65.3722 
 506   0.0000       2.404108        65.4191 
 507   0.0000       2.409945        65.5779 
 508   0.0000       2.418995        65.8242 
 509   0.0000       2.430594        66.1398 
 510   0.0000       2.436655        66.3047 
 511   0.0000       2.437936        66.3396 
 512   0.0000       2.444160        66.5090 
 513   0.0000       2.452585        66.7382 
 514   0.0000       2.457085        66.8607 
 515   0.0000       2.461974        66.9937 
 516   0.0000       2.474393        67.3317 
 517   0.0000       2.479968        67.4833 
 518   0.0000       2.490664        67.7744 
 519   0.0000       2.498945        67.9997 
 520   0.0000       2.508950        68.2720 
 521   0.0000       2.527362        68.7730 
 522   0.0000       2.528857        68.8137 
 523   0.0000       2.530940        68.8704 
 524   0.0000       2.540636        69.1342 
 525   0.0000       2.557003        69.5796 
 526   0.0000       2.559301        69.6421 
 527   0.0000       2.564658        69.7879 
 528   0.0000       2.573003        70.0150 
 529   0.0000       2.575144        70.0732 
 530   0.0000       2.588394        70.4338 
 531   0.0000       2.594501        70.6000 
 532   0.0000       2.607456        70.9525 
 533   0.0000       2.609767        71.0154 
 534   0.0000       2.621611        71.3377 
 535   0.0000       2.626620        71.4740 
 536   0.0000       2.632371        71.6305 
 537   0.0000       2.639690        71.8296 
 538   0.0000       2.648198        72.0611 
 539   0.0000       2.649250        72.0898 
 540   0.0000       2.650744        72.1304 
 541   0.0000       2.656118        72.2766 
 542   0.0000       2.664959        72.5172 
 543   0.0000       2.672201        72.7143 
 544   0.0000       2.679630        72.9164 
 545   0.0000       2.687261        73.1241 
 546   0.0000       2.690444        73.2107 
 547   0.0000       2.695864        73.3582 
 548   0.0000       2.703167        73.5569 
 549   0.0000       2.710546        73.7577 
 550   0.0000       2.713758        73.8451 
[...]
    83a ->  91a  :     0.034231 
    85a ->  95a  :     0.019531 
    86a ->  92a  :     0.242845 
    88a ->  92a  :     0.037775 
    89a ->  93a  :     0.142048 
    89a ->  94a  :     0.057304 
    89a ->  95a  :     0.048788 
    89a ->  96a  :     0.082689 
    89a -> 101a  :     0.011649 
    90a ->  94a  :     0.092645 
    90a ->  95a  :     0.011623 
    90a ->  96a  :     0.108823 

STATE 16:  E=   0.197203 au      5.366 eV    43281.0 cm**-1 <S**2> =   0.000000
    84a ->  91a  :     0.203274 
    88a ->  94a  :     0.012350 
    89a ->  93a  :     0.282675 
    89a ->  94a  :     0.037994 
    89a ->  96a  :     0.061003 
    90a ->  92a  :     0.012791 
    90a ->  93a  :     0.198494 
    90a ->  94a  :     0.061891 
    90a ->  95a  :     0.035389 
    90a ->  96a  :     0.011977 

STATE 17:  E=   0.206298 au      5.614 eV    45277.2 cm**-1 <S**2> =   0.000000
    87a ->  93a  :     0.021131 
    87a ->  94a  :     0.025814 
    88a ->  92a  :     0.253015 
    89a ->  93a  :     0.031859 
    89a ->  94a  :     0.334324 
    89a ->  95a  :     0.025385 
    89a ->  96a  :     0.092154 
    90a ->  93a  :     0.043508 
    90a ->  94a  :     0.048496 
    90a ->  95a  :     0.014475 
    90a ->  96a  :     0.043374 

STATE 18:  E=   0.206014 au      5.606 eV    45214.7 cm**-1 <S**2> =   0.000000
    83a ->  91a  :     0.020432 
    86a ->  92a  :     0.049825 
    88a ->  92a  :     0.032715 
    89a ->  93a  :     0.013627 
    89a ->  94a  :     0.026113 
    89a ->  95a  :     0.113441 
    89a ->  96a  :     0.046988 
    90a ->  92a  :     0.014496 
    90a ->  93a  :     0.010790 
    90a ->  94a  :     0.238620 
    90a ->  95a  :     0.322281 
    90a ->  96a  :     0.014515 
    90a ->  97a  :     0.027306 

STATE 19:  E=   0.212666 au      5.787 eV    46674.7 cm**-1 <S**2> =   0.000000
    76a ->  91a  :     0.011533 
    81a ->  91a  :     0.138767 
    82a ->  91a  :     0.193071 
    83a ->  91a  :     0.069238 
    86a ->  92a  :     0.016650 
    87a ->  93a  :     0.110364 
    87a ->  94a  :     0.017085 
    88a ->  92a  :     0.180565 
    88a ->  93a  :     0.012717 
    89a ->  93a  :     0.023948 
    89a ->  94a  :     0.034226 
    89a ->  95a  :     0.010048 
    90a ->  93a  :     0.036246 
    90a ->  94a  :     0.025616 
    90a ->  96a  :     0.011114 
    90a ->  97a  :     0.019815 

STATE 20:  E=   0.225701 au      6.142 eV    49535.7 cm**-1 <S**2> =   0.000000
    88a ->  92a  :     0.010534 
    90a ->  94a  :     0.013658 
    90a ->  97a  :     0.794015 
    90a ->  98a  :     0.037954 
    90a -> 102a  :     0.013960 

STATE 21:  E=   0.211157 au      5.746 eV    46343.5 cm**-1 <S**2> =   0.000000
    76a ->  91a  :     0.017803 
    81a ->  91a  :     0.096385 
    82a ->  91a  :     0.241546 
    83a ->  91a  :     0.023535 
    86a ->  92a  :     0.035755 
    87a ->  93a  :     0.027820 
    88a ->  92a  :     0.240486 
    88a ->  93a  :     0.014324 
    88a ->  94a  :     0.011247 
    89a ->  94a  :     0.066730 
    89a ->  95a  :     0.012433 
    90a ->  93a  :     0.012459 
    90a ->  96a  :     0.105597 

STATE 22:  E=   0.212752 au      5.789 eV    46693.6 cm**-1 <S**2> =   0.000000
    82a ->  91a  :     0.011457 
    83a ->  91a  :     0.034687 
    85a ->  92a  :     0.013474 
    86a ->  92a  :     0.066610 
    86a ->  94a  :     0.010122 
    86a ->  95a  :     0.016171 
    89a ->  92a  :     0.020546 
    89a ->  94a  :     0.011610 
    89a ->  95a  :     0.237586 
    89a ->  96a  :     0.040842 
    90a ->  93a  :     0.037792 
    90a ->  94a  :     0.100280 
    90a ->  95a  :     0.018001 
    90a ->  96a  :     0.304631 

STATE 23:  E=   0.214151 au      5.827 eV    47000.7 cm**-1 <S**2> =   0.000000
    81a ->  91a  :     0.015068 
    82a ->  91a  :     0.030432 
    83a ->  91a  :     0.125358 
    84a ->  91a  :     0.035359 
    86a ->  92a  :     0.125419 
    86a ->  94a  :     0.014063 
    86a ->  95a  :     0.011271 
    89a ->  93a  :     0.019638 
    89a ->  94a  :     0.051857 
    89a ->  95a  :     0.034979 
    89a ->  96a  :     0.280410 
    90a ->  95a  :     0.093983 
    90a ->  96a  :     0.054485 

STATE 24:  E=   0.227080 au      6.179 eV    49838.3 cm**-1 <S**2> =   0.000000
    82a ->  91a  :     0.014542 
    83a ->  91a  :     0.042132 
    84a ->  91a  :     0.030682 
    85a ->  92a  :     0.019550 
    86a ->  92a  :     0.021371 
    87a ->  92a  :     0.410323 
    87a ->  94a  :     0.083878 
    87a ->  95a  :     0.028768 
    88a ->  93a  :     0.205704 
    88a ->  94a  :     0.035120 
    89a ->  94a  :     0.013299 
    89a ->  96a  :     0.025996 

STATE 25:  E=   0.233933 au      6.366 eV    51342.3 cm**-1 <S**2> =   0.000000
    78a ->  91a  :     0.016548 
    82a ->  91a  :     0.014317 
    83a ->  91a  :     0.041512 
    87a ->  92a  :     0.018336 
    87a ->  93a  :     0.240405 
    87a ->  94a  :     0.035006 
    88a ->  92a  :     0.040751 
    88a ->  93a  :     0.044154 
    88a ->  94a  :     0.411439 
    88a ->  95a  :     0.031093 
    90a ->  96a  :     0.018605 

STATE 26:  E=   0.220849 au      6.010 eV    48470.8 cm**-1 <S**2> =   0.000000
    74a ->  91a  :     0.015998 
    75a ->  91a  :     0.087755 
    77a ->  91a  :     0.026492 
    81a ->  91a  :     0.406031 
    82a ->  91a  :     0.271374 
    88a ->  95a  :     0.060868 

STATE 27:  E=   0.223620 au      6.085 eV    49078.9 cm**-1 <S**2> =   0.000000
    78a ->  91a  :     0.011391 
    81a ->  91a  :     0.037665 
    82a ->  91a  :     0.020869 
    83a ->  91a  :     0.450189 
    85a ->  92a  :     0.027400 
    86a ->  92a  :     0.152955 
    87a ->  92a  :     0.080807 
    87a ->  93a  :     0.017415 
    88a ->  93a  :     0.055607 
    88a ->  94a  :     0.016711 
    90a ->  95a  :     0.017002 
    90a ->  96a  :     0.019996 

STATE 28:  E=   0.242632 au      6.602 eV    53251.5 cm**-1 <S**2> =   0.000000
    89a ->  97a  :     0.492771 
    89a ->  98a  :     0.149412 
    89a -> 100a  :     0.011646 
    89a -> 102a  :     0.031084 
    89a -> 103a  :     0.026906 
    90a ->  98a  :     0.078151 
    90a ->  99a  :     0.071148 

STATE 29:  E=   0.234754 au      6.388 eV    51522.6 cm**-1 <S**2> =   0.000000
    85a ->  92a  :     0.199322 
    86a ->  95a  :     0.011211 
    87a ->  92a  :     0.193512 
    87a ->  93a  :     0.052718 
    87a ->  94a  :     0.250980 
    87a ->  95a  :     0.049203 
    88a ->  93a  :     0.061755 
    89a ->  96a  :     0.015954 
    90a ->  96a  :     0.015137 
    90a -> 101a  :     0.053954 

STATE 30:  E=   0.234675 au      6.386 eV    51505.2 cm**-1 <S**2> =   0.000000
    83a ->  91a  :     0.065309 
    85a ->  92a  :     0.317424 
    87a ->  92a  :     0.139152 
    87a ->  93a  :     0.042507 
    87a ->  94a  :     0.096861 
    87a ->  95a  :     0.025791 
    88a ->  93a  :     0.011738 
    89a ->  95a  :     0.015420 
    89a ->  97a  :     0.010149 
    90a ->  98a  :     0.017465 
    90a -> 100a  :     0.029239 
    90a -> 101a  :     0.107434 


-------------------------
TD-DFT-EXCITATION SPECTRA
-------------------------

Center of mass = (  0.0690, -0.0026,  0.0028)
Calculating the Dipole integrals                  ... done
Transforming integrals                            ... done
Calculating the Linear Momentum integrals         ... done
Transforming integrals                            ... done
Calculating angular momentum integrals            ... done
Transforming integrals                            ... done

-----------------------------------------------------------------------------
         ABSORPTION SPECTRUM VIA TRANSITION ELECTRIC DIPOLE MOMENTS
-----------------------------------------------------------------------------
State   Energy    Wavelength  fosc         T2        TX        TY        TZ  
        (cm-1)      (nm)                 (au**2)    (au)      (au)      (au) 
-----------------------------------------------------------------------------
   1   21053.6    475.0   0.299671380   4.68592   1.62825   1.42418   0.08031
   2   23712.7    421.7   0.465082683   6.45691  -2.52412  -0.28503   0.06695
   3   29424.3    339.9   0.018501677   0.20700   0.10896  -0.43184   0.09299
   4   31964.5    312.8   0.014823562   0.15267   0.38712   0.04714  -0.02419
   5   32554.9    307.2   0.009509302   0.09616   0.26682  -0.14625  -0.05985
   6   35614.6    280.8   0.863422690   7.98125  -2.78964  -0.44351  -0.04955
   7   35300.1    283.3   0.099190967   0.92506   0.91853  -0.28455  -0.01985
   8   39657.9    252.2   0.492244983   4.08627   0.61025   1.92312  -0.12431
   9   41392.3    241.6   0.003535108   0.02812  -0.05749  -0.15033   0.04703
  10   39656.5    252.2   0.057302532   0.47570  -0.04143  -0.68835   0.01242
  11   47904.1    208.8   0.002974730   0.02044   0.05443  -0.11919  -0.05722
  12   43830.2    228.2   0.094222234   0.70771  -0.22056  -0.80893  -0.06849
  13   43972.6    227.4   0.060335178   0.45171  -0.65023  -0.17002   0.00354
  14   44973.5    222.4   0.018550653   0.13579   0.10840   0.31354  -0.16043
  15   44933.9    222.5   0.088519595   0.64855   0.65484   0.46333   0.07108
  16   43281.0    231.0   0.136641723   1.03935  -0.54463   0.79729  -0.32719
  17   45277.2    220.9   0.173107270   1.25867  -0.20061   1.01588   0.43175
  18   45214.7    221.2   0.040505720   0.29493  -0.48171  -0.16387   0.18980
  19   46674.7    214.2   0.061453592   0.43345  -0.12534   0.33000  -0.55573
  20   49535.7    201.9   0.069009586   0.45863  -0.12373   0.12327  -0.65432
  21   46343.5    215.8   0.036537441   0.25955   0.34807   0.22237  -0.29824
  22   46693.6    214.2   0.022342022   0.15752   0.20774   0.33314   0.05818
  23   47000.7    212.8   0.224776248   1.57442  -0.84607   0.89273   0.24823
  24   49838.3    200.6   0.398892547   2.63493  -0.75636   1.42218  -0.20061
  25   51342.3    194.8   0.326356858   2.09263   0.39973   0.27442   1.36292
  26   48470.8    206.3   0.007184448   0.04880   0.06220  -0.21162  -0.01197
  27   49078.9    203.8   0.041522203   0.27852  -0.13212   0.38775   0.33275
  28   53251.5    187.8   0.001082124   0.00669  -0.05117   0.06381   0.00016
  29   51522.6    194.1   0.064659358   0.41315   0.47612  -0.39672   0.17053
  30   51505.2    194.2   0.223578803   1.42908  -0.75326   0.92730  -0.04228

-----------------------------------------------------------------------------
         ABSORPTION SPECTRUM VIA TRANSITION VELOCITY DIPOLE MOMENTS
-----------------------------------------------------------------------------
State   Energy    Wavelength   fosc        P2         PX        PY        PZ  
        (cm-1)      (nm)                 (au**2)     (au)      (au)      (au) 
-----------------------------------------------------------------------------
   1   21053.6    475.0   0.455435396   0.06553  -0.19109  -0.17007  -0.00960
   2   23712.7    421.7   0.635403221   0.10298   0.31889   0.03480  -0.00852
   3   29424.3    339.9   0.024393246   0.00491  -0.01641   0.06657  -0.01432
   4   31964.5    312.8   0.019712844   0.00431  -0.06503  -0.00782   0.00410
   5   32554.9    307.2   0.012904109   0.00287  -0.04575   0.02580   0.01062
   6   35614.6    280.8   1.134028879   0.27603   0.51898   0.08129   0.00927
   7   35300.1    283.3   0.135452767   0.03268  -0.17183   0.05603   0.00365
   8   39657.9    252.2   0.612826408   0.16610  -0.12277  -0.38780   0.02524
   9   41392.3    241.6   0.004148807   0.00117   0.01153   0.03075  -0.00975
  10   39656.5    252.2   0.078988202   0.02141   0.00883   0.14602  -0.00286
  11   47904.1    208.8   0.002981354   0.00098  -0.01135   0.02632   0.01242
  12   43830.2    228.2   0.116597771   0.03493   0.04845   0.17983   0.01554
  13   43972.6    227.4   0.078202771   0.02350   0.14823   0.03911  -0.00127
  14   44973.5    222.4   0.022934998   0.00705  -0.02415  -0.07138   0.03704
  15   44933.9    222.5   0.115026694   0.03532  -0.15285  -0.10806  -0.01690
  16   43281.0    231.0   0.191816322   0.05674   0.12754  -0.18611   0.07639
  17   45277.2    220.9   0.230884034   0.07145   0.04817  -0.24213  -0.10246
  18   45214.7    221.2   0.054010940   0.01669   0.11458   0.04088  -0.04348
  19   46674.7    214.2   0.080906054   0.02581   0.03052  -0.07951   0.13622
  20   49535.7    201.9   0.071503360   0.02421   0.03078  -0.02907   0.14972
  21   46343.5    215.8   0.049282742   0.01561  -0.08471  -0.05450   0.07391
  22   46693.6    214.2   0.029541225   0.00943  -0.05067  -0.08144  -0.01507
  23   47000.7    212.8   0.305528446   0.09814   0.21151  -0.22268  -0.06181
  24   49838.3    200.6   0.487330415   0.16599   0.19025  -0.35674   0.05037
  25   51342.3    194.8   0.387576623   0.13600  -0.10161  -0.06996  -0.34754
  26   48470.8    206.3   0.009794876   0.00324  -0.01599   0.05458   0.00311
  27   49078.9    203.8   0.056432352   0.01893   0.03464  -0.10141  -0.08629
  28   53251.5    187.8   0.001313145   0.00048   0.01348  -0.01717   0.00122
  29   51522.6    194.1   0.081800320   0.02880  -0.12502   0.10554  -0.04512
  30   51505.2    194.2   0.286176836   0.10074   0.19999  -0.24623   0.01057

-------------------------------------------------------------------
                             CD SPECTRUM
-------------------------------------------------------------------
State  Energy     Wavelength     R         MX        MY        MZ   
       (cm-1)       (nm)     (1e40*cgs)   (au)      (au)      (au)  
-------------------------------------------------------------------
   1   21053.6    475.0     35.85356   0.01841   0.02350   0.15680
   2   23712.7    421.7    -52.08375   0.05174  -0.02674   0.18658
   3   29424.3    339.9      1.45288  -0.04875   0.01220   0.14693
   4   31964.5    312.8      3.58751  -0.03535   0.01867  -0.84403
   5   32554.9    307.2      3.17907   0.04912   0.04202   0.00365
   6   35614.6    280.8    -51.89343   0.04202  -0.07019   0.48391
   7   35300.1    283.3      1.07401   0.01263   0.04001  -0.10375
   8   39657.9    252.2    -16.83851  -0.06605  -0.01714  -0.30217
   9   41392.3    241.6      5.34077  -0.05109  -0.04256   0.04237
  10   39656.5    252.2     13.27244   0.00660  -0.03618   0.28335
  11   47904.1    208.8      2.17355   0.01150   0.04570  -0.16482
  12   43830.2    228.2      7.99077  -0.00723   0.04933  -0.80683
  13   43972.6    227.4      5.77175  -0.02119   0.01630   0.34960
  14   44973.5    222.4     29.94068   0.15128   0.10274  -0.09286
  15   44933.9    222.5    -43.79653  -0.10791   0.03154  -0.51843
  16   43281.0    231.0     12.13925   0.19277   0.17736   0.03261
  17   45277.2    220.9    -65.11945  -0.28289  -0.25280   0.14347
  18   45214.7    221.2     11.81936  -0.07748   0.01199  -0.05420
  19   46674.7    214.2     39.49770   0.54346   0.41461  -0.02712
  20   49535.7    201.9    -18.26479  -0.08258  -0.56476  -0.03158
  21   46343.5    215.8    103.94197   0.22822   0.22912  -0.30205
  22   46693.6    214.2      7.25077   0.00547  -0.04342   0.49343
  23   47000.7    212.8     73.63021  -0.04743  -0.06469   0.70015
  24   49838.3    200.6     12.03927   0.06030   0.06865   0.13200
  25   51342.3    194.8    -83.75279  -1.02280  -0.78547   0.32778
  26   48470.8    206.3     -5.84247   0.01119   0.06515  -0.05837
  27   49078.9    203.8    -10.05487  -0.21866  -0.18463   0.06424
  28   53251.5    187.8      5.10097  -0.19657   0.01198  -0.01477
  29   51522.6    194.1      5.38927  -0.01844   0.02427   0.17498
  30   51505.2    194.2      6.42017   0.15183   0.15118   0.28879

Total run time:     5351.743 sec

           *** ORCA-CIS/TD-DFT FINISHED WITHOUT ERROR ***

Maximum memory used throughout the entire CIS-calculation: 4286.3 MB

-----------------------
CIS/TD-DFT TOTAL ENERGY
-----------------------

    E(SCF)  =  -1072.952192011 Eh
    DE(CIS) =      0.095927112 Eh (Root  1)
    ----------------------------- ---------
    E(tot)  =  -1072.856264900 Eh



-------------------------------------------------------------------------------
                          DFT DISPERSION CORRECTION                            
                                                                               
                              DFTD3 V3.1  Rev 1                                
                          USING Becke-Johnson damping                          
-------------------------------------------------------------------------------
The B2PLYP functional is recognized
Active option DFTDOPT                   ...         4   

molecular C6(AA) [au] = 26628.322994 


            DFT-D V3
 parameters
 s6 scaling factor         :     0.6400 
 a1 scaling factor         :     0.3065 
 s8 scaling factor         :     0.9147 
 a2 scaling factor         :     5.0570 
 ad hoc parameters k1-k3   :    16.0000     1.3333    -4.0000 

 Edisp/kcal,au: -34.491828469349  -0.054966221572 
 E6   /kcal   : -19.551002205 
 E8   /kcal   : -14.940826265 
 % E8         :  43.317002686 

-------------------------   ----------------
Dispersion correction           -0.054966222
-------------------------   ----------------


-------------------------   --------------------
FINAL SINGLE POINT ENERGY     -1072.911231121290
-------------------------   --------------------


                            ***************************************
                            *     ORCA property calculations      *
                            ***************************************


  WARNING: The energy has been calculated at the MP2 level but the densities
           used in the property calculations are still SCF densities
           MP2 response densities have not been calculated 
           use %mp2 Density relaxed end
           or  %mp2 Density unrelaxed end

                                    ---------------------
                                    Active property flags
                                    ---------------------
   (+) Dipole Moment


------------------------------------------------------------------------------
                       ORCA ELECTRIC PROPERTIES CALCULATION
------------------------------------------------------------------------------

Dipole Moment Calculation                       ... on
Quadrupole Moment Calculation                   ... off
Polarizability Calculation                      ... off
GBWName                                         ... Ph-Acr_1_M06L_def2TZVP_coords.gbw
Electron density                                ... Ph-Acr_1_M06L_def2TZVP_coords.scfp
The origin for moment calculation is the CENTER OF MASS  = ( 0.069025, -0.002553  0.002755)

-------------
DIPOLE MOMENT
-------------
                                X             Y             Z
Electronic contribution:     10.41549       1.12636       0.45785
Nuclear contribution   :    -12.63152       0.46724      -0.50410
                        -----------------------------------------
Total Dipole Moment    :     -2.21603       1.59360      -0.04625
                        -----------------------------------------
Magnitude (a.u.)       :      2.72992
Magnitude (Debye)      :      6.93891



--------------------
Rotational spectrum 
--------------------
 
Rotational constants in cm-1:     0.010162     0.005301     0.003642 
Rotational constants in MHz :   304.643415   158.912869   109.175082 

 Dipole components along the rotational axes: 
x,y,z [a.u.] :    -2.214590     1.595728    -0.041484 
x,y,z [Debye]:    -5.629039     4.056018    -0.105445 

 

Timings for individual modules:

Sum of individual times         ...     6370.047 sec (= 106.167 min)
GTO integral calculation        ...        2.930 sec (=   0.049 min)   0.0 %
SCF iterations                  ...      292.472 sec (=   4.875 min)   4.6 %
MP2 module                      ...      721.869 sec (=  12.031 min)  11.3 %
CIS module                      ...     5352.775 sec (=  89.213 min)  84.0 %
                             ****ORCA TERMINATED NORMALLY****
TOTAL RUN TIME: 0 days 1 hours 46 minutes 13 seconds 217 msec
