
                                 *****************
                                 * O   R   C   A *
                                 *****************

                                            #,                                       
                                            ###                                      
                                            ####                                     
                                            #####                                    
                                            ######                                   
                                           ########,                                 
                                     ,,################,,,,,                         
                               ,,#################################,,                 
                          ,,##########################################,,             
                       ,#########################################, ''#####,          
                    ,#############################################,,   '####,        
                  ,##################################################,,,,####,       
                ,###########''''           ''''###############################       
              ,#####''   ,,,,##########,,,,          '''####'''          '####       
            ,##' ,,,,###########################,,,                        '##       
           ' ,,###''''                  '''############,,,                           
         ,,##''                                '''############,,,,        ,,,,,,###''
      ,#''                                            '''#######################'''  
     '                                                          ''''####''''         
             ,#######,   #######,   ,#######,      ##                                
            ,#'     '#,  ##    ##  ,#'     '#,    #''#        ######   ,####,        
            ##       ##  ##   ,#'  ##            #'  '#       #        #'  '#        
            ##       ##  #######   ##           ,######,      #####,   #    #        
            '#,     ,#'  ##    ##  '#,     ,#' ,#      #,         ##   #,  ,#        
             '#######'   ##     ##  '#######'  #'      '#     #####' # '####'        



                  #######################################################
                  #                        -***-                        #
                  #          Department of theory and spectroscopy      #
                  #    Directorship and core code : Frank Neese         #
                  #        Max Planck Institute fuer Kohlenforschung    #
                  #                Kaiser Wilhelm Platz 1               #
                  #                 D-45470 Muelheim/Ruhr               #
                  #                      Germany                        #
                  #                                                     #
                  #                  All rights reserved                #
                  #                        -***-                        #
                  #######################################################


                         Program Version 5.0.2 -  RELEASE  -


 With contributions from (in alphabetic order):
   Daniel Aravena         : Magnetic Suceptibility
   Michael Atanasov       : Ab Initio Ligand Field Theory (pilot matlab implementation)
   Alexander A. Auer      : GIAO ZORA, VPT2 properties, NMR spectrum
   Ute Becker             : Parallelization
   Giovanni Bistoni       : ED, misc. LED, open-shell LED, HFLD
   Martin Brehm           : Molecular dynamics
   Dmytro Bykov           : SCF Hessian
   Vijay G. Chilkuri      : MRCI spin determinant printing, contributions to CSF-ICE
   Dipayan Datta          : RHF DLPNO-CCSD density
   Achintya Kumar Dutta   : EOM-CC, STEOM-CC
   Dmitry Ganyushin       : Spin-Orbit,Spin-Spin,Magnetic field MRCI
   Miquel Garcia          : C-PCM and meta-GGA Hessian, CC/C-PCM, Gaussian charge scheme
   Yang Guo               : DLPNO-NEVPT2, F12-NEVPT2, CIM, IAO-localization
   Andreas Hansen         : Spin unrestricted coupled pair/coupled cluster methods
   Benjamin Helmich-Paris : MC-RPA, TRAH-SCF, COSX integrals
   Lee Huntington         : MR-EOM, pCC
   Robert Izsak           : Overlap fitted RIJCOSX, COSX-SCS-MP3, EOM
   Marcus Kettner         : VPT2
   Christian Kollmar      : KDIIS, OOCD, Brueckner-CCSD(T), CCSD density, CASPT2, CASPT2-K
   Simone Kossmann        : Meta GGA functionals, TD-DFT gradient, OOMP2, MP2 Hessian
   Martin Krupicka        : Initial AUTO-CI
   Lucas Lang             : DCDCAS
   Marvin Lechner         : AUTO-CI (C++ implementation), FIC-MRCC
   Dagmar Lenk            : GEPOL surface, SMD
   Dimitrios Liakos       : Extrapolation schemes; Compound Job, initial MDCI parallelization
   Dimitrios Manganas     : Further ROCIS development; embedding schemes
   Dimitrios Pantazis     : SARC Basis sets
   Anastasios Papadopoulos: AUTO-CI, single reference methods and gradients
   Taras Petrenko         : DFT Hessian,TD-DFT gradient, ASA, ECA, R-Raman, ABS, FL, XAS/XES, NRVS
   Peter Pinski           : DLPNO-MP2, DLPNO-MP2 Gradient
   Christoph Reimann      : Effective Core Potentials
   Marius Retegan         : Local ZFS, SOC
   Christoph Riplinger    : Optimizer, TS searches, QM/MM, DLPNO-CCSD(T), (RO)-DLPNO pert. Triples
   Tobias Risthaus        : Range-separated hybrids, TD-DFT gradient, RPA, STAB
   Michael Roemelt        : Original ROCIS implementation
   Masaaki Saitow         : Open-shell DLPNO-CCSD energy and density
   Barbara Sandhoefer     : DKH picture change effects
   Avijit Sen             : IP-ROCIS
   Kantharuban Sivalingam : CASSCF convergence, NEVPT2, FIC-MRCI
   Bernardo de Souza      : ESD, SOC TD-DFT
   Georgi Stoychev        : AutoAux, RI-MP2 NMR, DLPNO-MP2 response
   Willem Van den Heuvel  : Paramagnetic NMR
   Boris Wezisla          : Elementary symmetry handling
   Frank Wennmohs         : Technical directorship


 We gratefully acknowledge several colleagues who have allowed us to
 interface, adapt or use parts of their codes:
   Stefan Grimme, W. Hujo, H. Kruse, P. Pracht,  : VdW corrections, initial TS optimization,
                  C. Bannwarth, S. Ehlert          DFT functionals, gCP, sTDA/sTD-DF
   Ed Valeev, F. Pavosevic, A. Kumar             : LibInt (2-el integral package), F12 methods
   Garnet Chan, S. Sharma, J. Yang, R. Olivares  : DMRG
   Ulf Ekstrom                                   : XCFun DFT Library
   Mihaly Kallay                                 : mrcc  (arbitrary order and MRCC methods)
   Jiri Pittner, Ondrej Demel                    : Mk-CCSD
   Frank Weinhold                                : gennbo (NPA and NBO analysis)
   Christopher J. Cramer and Donald G. Truhlar   : smd solvation model
   Lars Goerigk                                  : TD-DFT with DH, B97 family of functionals
   V. Asgeirsson, H. Jonsson                     : NEB implementation
   FAccTs GmbH                                   : IRC, NEB, NEB-TS, DLPNO-Multilevel, CI-OPT
                                                   MM, QMMM, 2- and 3-layer-ONIOM, Crystal-QMMM,
                                                   LR-CPCM, SF, NACMEs, symmetry and pop. for TD-DFT,
                                                   nearIR, NL-DFT gradient (VV10), updates on ESD,
                                                   ML-optimized integration grids
   S Lehtola, MJT Oliveira, MAL Marques          : LibXC Library
   Liviu Ungur et al                             : ANISO software


 Your calculation uses the libint2 library for the computation of 2-el integrals
 For citations please refer to: http://libint.valeyev.net

 Your ORCA version has been built with support for libXC version: 5.1.0
 For citations please refer to: https://tddft.org/programs/libxc/

 This ORCA versions uses:
   CBLAS   interface :  Fast vector & matrix operations
   LAPACKE interface :  Fast linear algebra routines
   SCALAPACK package :  Parallel linear algebra routines
   Shared memory     :  Shared parallel matrices
   BLAS/LAPACK       :  OpenBLAS 0.3.15  USE64BITINT DYNAMIC_ARCH NO_AFFINITY Zen SINGLE_THREADED
        Core in use  :  Zen
   Copyright (c) 2011-2014, The OpenBLAS Project


Your calculation utilizes the SMD solvation module
Please cite in your paper:
A.V. Marenich, C.J. Cramer, D.G. Truhlar J. Phys. Chem. B, 113, (2009), 6378 

================================================================================

----- Orbital basis set information -----
Your calculation utilizes the basis: def2-TZVP
   F. Weigend and R. Ahlrichs, Phys. Chem. Chem. Phys. 7, 3297 (2005).

----- AuxJ basis set information -----
Your calculation utilizes the auxiliary basis: def2/J
   F. Weigend, Phys. Chem. Chem. Phys. 8, 1057 (2006).

----- AuxC basis set information -----
Your calculation utilizes the auxiliary basis: def2-TZVP/C
  H-La, Hf-Rn : A. Hellweg, C. Hattig, S. Hofener and W. Klopper, Theor. Chem. Acc. 117, 587 (2007).
        Ce-Lu : J. Chmela and M. E. Harding, Mol. Phys. (2018).

================================================================================
                                        WARNINGS
                       Please study these warnings very carefully!
================================================================================


WARNING: Post HF methods need fully converged wavefunctions
  ===> : Setting SCFConvForced true
         You can overwrite this default with %scf ConvForced false 


WARNING: MDCI localization with Augmented Hessian Foster-Boys
  ===> : Switching off randomization!

INFO   : the flag for use of the SHARK integral package has been found!

================================================================================
                                       INPUT FILE
================================================================================
NAME = Ph-Acr_2_STEOM-DLPNO-CCSD_DEF2-TZVP_RIJCOSX_SMD.inp
|  1> %maxcore 60000
|  2> %pal
|  3>  nprocs= 4
|  4> end
|  5> !STEOM-DLPNO-CCSD DEF2-TZVP DEF2-TZVP/C def2/J TightSCF TightPNO CPCM
|  6> %MDCI
|  7>    Dorootwise true
|  8>    OTHRESH 0.005
|  9>    VTHRESH 0.005
| 10>    TCutPNOSingles 1e-11
| 11>    DTol 1e-5
| 12>    NROOTS  25
| 13>    DOSOLV  TRUE
| 14>    MAXITER 500
| 15> END
| 16> %CPCM
| 17>    SMD          TRUE
| 18>    SMDsolvent   "ACETONITRILE"
| 19> END
| 20> 
| 21> 
| 22> * xyz 1 1
| 23> C                  -3.14769200   -3.00562300   -0.16049300
| 24> C                  -3.40382700   -1.66285200   -0.08385600
| 25> C                  -2.34161900   -0.74416600    0.00500800
| 26> C                  -1.00147800   -1.22363900   -0.02194200
| 27> C                  -0.78893000   -2.62356500   -0.07962500
| 28> C                  -1.83406400   -3.49759400   -0.14343500
| 29> C                   0.07741800   -0.31461000    0.00914600
| 30> C                  -0.18355100    1.06034500   -0.00273200
| 31> C                  -1.54795000    1.51382800    0.02087000
| 32> C                  -1.84226300    2.88158700   -0.04765200
| 33> H                  -2.86102700    3.22639700   -0.08787400
| 34> C                  -0.82096900    3.79298100   -0.10894600
| 35> C                   0.51812500    3.40910100   -0.09534500
| 36> C                   0.84611900    2.07411700   -0.04664800
| 37> H                  -4.42544500   -1.32196100   -0.12379800
| 38> H                   0.22672800   -2.99208100   -0.08195200
| 39> H                  -1.65307300   -4.56252100   -0.19312900
| 40> H                  -1.06171900    4.84616800   -0.17618200
| 41> H                   1.29115300    4.16070500   -0.13633000
| 42> N                  -2.56494300    0.60043800    0.10866500
| 43> C                  -3.92831600    1.09003600    0.31949500
| 44> H                  -3.90316400    1.94415000    0.98608400
| 45> H                  -4.39038400    1.37603500   -0.62407400
| 46> H                  -4.52008400    0.32179100    0.79708900
| 47> C                   1.44535500   -0.88951100    0.04048300
| 48> C                   2.09452900   -1.22643500   -1.14356200
| 49> C                   2.06418300   -1.14418400    1.26035400
| 50> C                   3.36138500   -1.78761300   -1.10590400
| 51> C                   3.33046700   -1.70794200    1.29249100
| 52> C                   3.98425000   -2.02710300    0.11094100
| 53> H                   3.86139700   -2.04150200   -2.03214800
| 54> H                   3.80588700   -1.90009700    2.24614300
| 55> H                   1.60736800   -1.03816300   -2.09270500
| 56> H                   1.55457200   -0.89202900    2.18241000
| 57> H                   4.97339000   -2.46606200    0.13829300
| 58> O                   2.10431100    1.63501100   -0.04875600
| 59> C                   3.16204100    2.58601200   -0.11067600
| 60> H                   3.10759500    3.17709500   -1.02618200
| 61> H                   3.14703300    3.24955700    0.75544000
| 62> H                   4.07934700    2.00445900   -0.10715100
| 63> H                  -3.97872600   -3.69411500   -0.24236800
| 64> *
| 65> 
| 66> 
| 67>                          ****END OF INPUT****
================================================================================

                       ****************************
                       * Single Point Calculation *
                       ****************************

---------------------------------
CARTESIAN COORDINATES (ANGSTROEM)
---------------------------------
  C     -3.147692   -3.005623   -0.160493
  C     -3.403827   -1.662852   -0.083856
  C     -2.341619   -0.744166    0.005008
  C     -1.001478   -1.223639   -0.021942
  C     -0.788930   -2.623565   -0.079625
  C     -1.834064   -3.497594   -0.143435
  C      0.077418   -0.314610    0.009146
  C     -0.183551    1.060345   -0.002732
  C     -1.547950    1.513828    0.020870
  C     -1.842263    2.881587   -0.047652
  H     -2.861027    3.226397   -0.087874
  C     -0.820969    3.792981   -0.108946
  C      0.518125    3.409101   -0.095345
  C      0.846119    2.074117   -0.046648
  H     -4.425445   -1.321961   -0.123798
  H      0.226728   -2.992081   -0.081952
  H     -1.653073   -4.562521   -0.193129
  H     -1.061719    4.846168   -0.176182
  H      1.291153    4.160705   -0.136330
  N     -2.564943    0.600438    0.108665
  C     -3.928316    1.090036    0.319495
  H     -3.903164    1.944150    0.986084
  H     -4.390384    1.376035   -0.624074
  H     -4.520084    0.321791    0.797089
  C      1.445355   -0.889511    0.040483
  C      2.094529   -1.226435   -1.143562
  C      2.064183   -1.144184    1.260354
  C      3.361385   -1.787613   -1.105904
  C      3.330467   -1.707942    1.292491
  C      3.984250   -2.027103    0.110941
  H      3.861397   -2.041502   -2.032148
  H      3.805887   -1.900097    2.246143
  H      1.607368   -1.038163   -2.092705
  H      1.554572   -0.892029    2.182410
  H      4.973390   -2.466062    0.138293
  O      2.104311    1.635011   -0.048756
  C      3.162041    2.586012   -0.110676
  H      3.107595    3.177095   -1.026182
  H      3.147033    3.249557    0.755440
  H      4.079347    2.004459   -0.107151
  H     -3.978726   -3.694115   -0.242368

----------------------------
CARTESIAN COORDINATES (A.U.)
----------------------------
  NO LB      ZA    FRAG     MASS         X           Y           Z
   0 C     6.0000    0    12.011   -5.948276   -5.679804   -0.303288
   1 C     6.0000    0    12.011   -6.432301   -3.142335   -0.158465
   2 C     6.0000    0    12.011   -4.425019   -1.406270    0.009464
   3 C     6.0000    0    12.011   -1.892519   -2.312343   -0.041464
   4 C     6.0000    0    12.011   -1.490862   -4.957819   -0.150469
   5 C     6.0000    0    12.011   -3.465879   -6.609495   -0.271053
   6 C     6.0000    0    12.011    0.146299   -0.594527    0.017283
   7 C     6.0000    0    12.011   -0.346861    2.003762   -0.005163
   8 C     6.0000    0    12.011   -2.925202    2.860720    0.039439
   9 C     6.0000    0    12.011   -3.481373    5.445410   -0.090049
  10 H     1.0000    0     1.008   -5.406557    6.097007   -0.166058
  11 C     6.0000    0    12.011   -1.551407    7.167695   -0.205878
  12 C     6.0000    0    12.011    0.979114    6.442267   -0.180176
  13 C     6.0000    0    12.011    1.598933    3.919513   -0.088152
  14 H     1.0000    0     1.008   -8.362879   -2.498144   -0.233944
  15 H     1.0000    0     1.008    0.428454   -5.654214   -0.154867
  16 H     1.0000    0     1.008   -3.123855   -8.621915   -0.364961
  17 H     1.0000    0     1.008   -2.006358    9.157930   -0.332936
  18 H     1.0000    0     1.008    2.439926    7.862593   -0.257626
  19 N     7.0000    0    14.007   -4.847040    1.134663    0.205347
  20 C     6.0000    0    12.011   -7.423441    2.059870    0.603758
  21 H     1.0000    0     1.008   -7.375911    3.673911    1.863429
  22 H     1.0000    0     1.008   -8.296623    2.600329   -1.179329
  23 H     1.0000    0     1.008   -8.541721    0.608097    1.506280
  24 C     6.0000    0    12.011    2.731325   -1.680932    0.076502
  25 C     6.0000    0    12.011    3.958086   -2.317626   -2.161019
  26 C     6.0000    0    12.011    3.900741   -2.162194    2.381724
  27 C     6.0000    0    12.011    6.352097   -3.378099   -2.089856
  28 C     6.0000    0    12.011    6.293671   -3.227543    2.442454
  29 C     6.0000    0    12.011    7.529141   -3.830670    0.209648
  30 H     1.0000    0     1.008    7.296983   -3.857880   -3.840203
  31 H     1.0000    0     1.008    7.192084   -3.590663    4.244595
  32 H     1.0000    0     1.008    3.037485   -1.961844   -3.954639
  33 H     1.0000    0     1.008    2.937715   -1.685691    4.124157
  34 H     1.0000    0     1.008    9.398345   -4.660182    0.261336
  35 O     8.0000    0    15.999    3.976571    3.089723   -0.092135
  36 C     6.0000    0    12.011    5.975392    4.886854   -0.209147
  37 H     1.0000    0     1.008    5.872503    6.003839   -1.939203
  38 H     1.0000    0     1.008    5.947031    6.140773    1.427575
  39 H     1.0000    0     1.008    7.708849    3.787879   -0.202486
  40 H     1.0000    0     1.008   -7.518703   -6.980866   -0.458009

--------------------------------
INTERNAL COORDINATES (ANGSTROEM)
--------------------------------
 C      0   0   0     0.000000000000     0.00000000     0.00000000
 C      1   0   0     1.369128308974     0.00000000     0.00000000
 C      2   1   0     1.407183929824   120.17249672     0.00000000
 C      3   2   1     1.423586513040   119.30898765     1.67382950
 C      4   3   2     1.417143883404   118.33830249   357.30088506
 C      5   4   3     1.363929428855   121.33279718     1.69466601
 C      4   3   2     1.411140235909   120.15622723   177.32619597
 C      7   4   3     1.399552484857   119.34768818   356.74331416
 C      8   7   4     1.437980708109   119.11759366     3.06930460
 C      9   8   7     1.400742691765   120.43049843   182.72569794
 H     10   9   8     1.076286129744   120.89972566   176.43964956
 C     10   9   8     1.370196121768   119.67447768   358.61324630
 C     12  10   9     1.393097836635   122.19097807   359.49014976
 C     13  12  10     1.375548524081   119.80043640     1.36526430
 H      2   1   3     1.077731587720   119.04384795   178.10476297
 H      5   4   3     1.080449272363   118.55548816   181.10428832
 H      6   5   4     1.081340256832   120.33035987   179.61558538
 H     12  10   9     1.082443577821   118.95860946   179.11471844
 H     13  12  10     1.078962757386   119.75924731   180.55472846
 N      3   2   1     1.366959509072   121.57704632   181.27324341
 C     20   3   2     1.463878897871   119.47607607     8.64244444
 H     21  20   3     1.083736242368   109.30269783   142.91307114
 H     21  20   3     1.088863959540   110.99372273   263.94802511
 H     21  20   3     1.080965205122   109.62080070    25.29830373
 C      7   4   3     1.484164682014   117.10483100   177.29817145
 C     25   7   4     1.391728143740   120.38015002    86.37999664
 C     25   7   4     1.391363247737   119.95677315   268.96435196
 C     26  25   7     1.386096316056   120.08100334   181.28479280
 C     27  25   7     1.386481531788   120.06309663   178.60926828
 C     29  27  25     1.387572108941   120.27244518   359.67846818
 H     28  26  25     1.082774017051   119.58758904   180.34478342
 H     29  27  25     1.082774148901   119.57650823   179.82136467
 H     26  25   7     1.083348799027   119.57434474     1.88534927
 H     27  25   7     1.083269487469   119.63196516   358.10373821
 H     30  29  27     1.082511466537   120.15129790   179.92398822
 O     14  13  12     1.332616085662   123.01529572   179.09024078
 C     36  14  13     1.423737946850   118.77720099   359.68434873
 H     37  36  14     1.091097940536   111.17857181   299.15852408
 H     37  36  14     1.091180155861   111.18908772    61.60662398
 H     37  36  14     1.086124585427   105.64387241   180.37473525
 H      1   2   3     1.082285664159   118.97877283   180.86018672

---------------------------
INTERNAL COORDINATES (A.U.)
---------------------------
 C      0   0   0     0.000000000000     0.00000000     0.00000000
 C      1   0   0     2.587277546160     0.00000000     0.00000000
 C      2   1   0     2.659192247423   120.17249672     0.00000000
 C      3   2   1     2.690188637590   119.30898765     1.67382950
 C      4   3   2     2.678013831995   118.33830249   357.30088506
 C      5   4   3     2.577453086532   121.33279718     1.69466601
 C      4   3   2     2.666668582425   120.15622723   177.32619597
 C      7   4   3     2.644770906429   119.34768818   356.74331416
 C      8   7   4     2.717389724188   119.11759366     3.06930460
 C      9   8   7     2.647020071528   120.43049843   182.72569794
 H     10   9   8     2.033886026955   120.89972566   176.43964956
 C     10   9   8     2.589295419902   119.67447768   358.61324630
 C     12  10   9     2.632573388998   122.19097807   359.49014976
 C     13  12  10     2.599409994432   119.80043640     1.36526430
 H      2   1   3     2.036617546667   119.04384795   178.10476297
 H      5   4   3     2.041753226360   118.55548816   181.10428832
 H      6   5   4     2.043436942997   120.33035987   179.61558538
 H     12  10   9     2.045521917503   118.95860946   179.11471844
 H     13  12  10     2.038944120159   119.75924731   180.55472846
 N      3   2   1     2.583179108305   121.57704632   181.27324341
 C     20   3   2     2.766330210203   119.47607607     8.64244444
 H     21  20   3     2.047964699480   109.30269783   142.91307114
 H     21  20   3     2.057654680628   110.99372273   263.94802511
 H     21  20   3     2.042728197979   109.62080070    25.29830373
 C      7   4   3     2.804664786646   117.10483100   177.29817145
 C     25   7   4     2.629985044539   120.38015002    86.37999664
 C     25   7   4     2.629295491027   119.95677315   268.96435196
 C     26  25   7     2.619342432583   120.08100334   181.28479280
 C     27  25   7     2.620070384819   120.06309663   178.60926828
 C     29  27  25     2.622131276965   120.27244518   359.67846818
 H     28  26  25     2.046146357152   119.58758904   180.34478342
 H     29  27  25     2.046146606313   119.57650823   179.82136467
 H     26  25   7     2.047232537674   119.57434474     1.88534927
 H     27  25   7     2.047082660550   119.63196516   358.10373821
 H     30  29  27     2.045650208585   120.15129790   179.92398822
 O     14  13  12     2.518279443559   123.01529572   179.09024078
 C     36  14  13     2.690474806018   118.77720099   359.68434873
 H     37  36  14     2.061876292898   111.17857181   299.15852408
 H     37  36  14     2.062031657347   111.18908772    61.60662398
 H     37  36  14     2.052478013777   105.64387241   180.37473525
 H      1   2   3     2.045223503930   118.97877283   180.86018672

---------------------
BASIS SET INFORMATION
---------------------
There are 4 groups of distinct atoms

 Group   1 Type C   : 11s6p2d1f contracted to 5s3p2d1f pattern {62111/411/11/1}
 Group   2 Type H   : 5s1p contracted to 3s1p pattern {311/1}
 Group   3 Type N   : 11s6p2d1f contracted to 5s3p2d1f pattern {62111/411/11/1}
 Group   4 Type O   : 11s6p2d1f contracted to 5s3p2d1f pattern {62111/411/11/1}

Atom   0C    basis set group =>   1
Atom   1C    basis set group =>   1
Atom   2C    basis set group =>   1
Atom   3C    basis set group =>   1
Atom   4C    basis set group =>   1
Atom   5C    basis set group =>   1
Atom   6C    basis set group =>   1
Atom   7C    basis set group =>   1
Atom   8C    basis set group =>   1
Atom   9C    basis set group =>   1
Atom  10H    basis set group =>   2
Atom  11C    basis set group =>   1
Atom  12C    basis set group =>   1
Atom  13C    basis set group =>   1
Atom  14H    basis set group =>   2
Atom  15H    basis set group =>   2
Atom  16H    basis set group =>   2
Atom  17H    basis set group =>   2
Atom  18H    basis set group =>   2
Atom  19N    basis set group =>   3
Atom  20C    basis set group =>   1
Atom  21H    basis set group =>   2
Atom  22H    basis set group =>   2
Atom  23H    basis set group =>   2
Atom  24C    basis set group =>   1
Atom  25C    basis set group =>   1
Atom  26C    basis set group =>   1
Atom  27C    basis set group =>   1
Atom  28C    basis set group =>   1
Atom  29C    basis set group =>   1
Atom  30H    basis set group =>   2
Atom  31H    basis set group =>   2
Atom  32H    basis set group =>   2
Atom  33H    basis set group =>   2
Atom  34H    basis set group =>   2
Atom  35O    basis set group =>   4
Atom  36C    basis set group =>   1
Atom  37H    basis set group =>   2
Atom  38H    basis set group =>   2
Atom  39H    basis set group =>   2
Atom  40H    basis set group =>   2
---------------------------------
AUXILIARY/J BASIS SET INFORMATION
---------------------------------
There are 4 groups of distinct atoms

 Group   1 Type C   : 12s5p4d2f1g contracted to 6s4p3d1f1g pattern {711111/2111/211/2/1}
 Group   2 Type H   : 5s2p1d contracted to 3s1p1d pattern {311/2/1}
 Group   3 Type N   : 12s5p4d2f1g contracted to 6s4p3d1f1g pattern {711111/2111/211/2/1}
 Group   4 Type O   : 12s5p4d2f1g contracted to 6s4p3d1f1g pattern {711111/2111/211/2/1}

Atom   0C    basis set group =>   1
Atom   1C    basis set group =>   1
Atom   2C    basis set group =>   1
Atom   3C    basis set group =>   1
Atom   4C    basis set group =>   1
Atom   5C    basis set group =>   1
Atom   6C    basis set group =>   1
Atom   7C    basis set group =>   1
Atom   8C    basis set group =>   1
Atom   9C    basis set group =>   1
Atom  10H    basis set group =>   2
Atom  11C    basis set group =>   1
Atom  12C    basis set group =>   1
Atom  13C    basis set group =>   1
Atom  14H    basis set group =>   2
Atom  15H    basis set group =>   2
Atom  16H    basis set group =>   2
Atom  17H    basis set group =>   2
Atom  18H    basis set group =>   2
Atom  19N    basis set group =>   3
Atom  20C    basis set group =>   1
Atom  21H    basis set group =>   2
Atom  22H    basis set group =>   2
Atom  23H    basis set group =>   2
Atom  24C    basis set group =>   1
Atom  25C    basis set group =>   1
Atom  26C    basis set group =>   1
Atom  27C    basis set group =>   1
Atom  28C    basis set group =>   1
Atom  29C    basis set group =>   1
Atom  30H    basis set group =>   2
Atom  31H    basis set group =>   2
Atom  32H    basis set group =>   2
Atom  33H    basis set group =>   2
Atom  34H    basis set group =>   2
Atom  35O    basis set group =>   4
Atom  36C    basis set group =>   1
Atom  37H    basis set group =>   2
Atom  38H    basis set group =>   2
Atom  39H    basis set group =>   2
Atom  40H    basis set group =>   2
---------------------------------
AUXILIARY/C BASIS SET INFORMATION
---------------------------------
There are 4 groups of distinct atoms

 Group   1 Type C   : 8s6p5d3f1g contracted to 8s6p4d3f1g pattern {11111111/111111/2111/111/1}
 Group   2 Type H   : 4s3p2d contracted to 4s2p1d pattern {1111/21/2}
 Group   3 Type N   : 8s6p5d3f1g contracted to 8s6p4d3f1g pattern {11111111/111111/2111/111/1}
 Group   4 Type O   : 8s6p5d3f1g contracted to 8s6p4d3f1g pattern {11111111/111111/2111/111/1}

Atom   0C    basis set group =>   1
Atom   1C    basis set group =>   1
Atom   2C    basis set group =>   1
Atom   3C    basis set group =>   1
Atom   4C    basis set group =>   1
Atom   5C    basis set group =>   1
Atom   6C    basis set group =>   1
Atom   7C    basis set group =>   1
Atom   8C    basis set group =>   1
Atom   9C    basis set group =>   1
Atom  10H    basis set group =>   2
Atom  11C    basis set group =>   1
Atom  12C    basis set group =>   1
Atom  13C    basis set group =>   1
Atom  14H    basis set group =>   2
Atom  15H    basis set group =>   2
Atom  16H    basis set group =>   2
Atom  17H    basis set group =>   2
Atom  18H    basis set group =>   2
Atom  19N    basis set group =>   3
Atom  20C    basis set group =>   1
Atom  21H    basis set group =>   2
Atom  22H    basis set group =>   2
Atom  23H    basis set group =>   2
Atom  24C    basis set group =>   1
Atom  25C    basis set group =>   1
Atom  26C    basis set group =>   1
Atom  27C    basis set group =>   1
Atom  28C    basis set group =>   1
Atom  29C    basis set group =>   1
Atom  30H    basis set group =>   2
Atom  31H    basis set group =>   2
Atom  32H    basis set group =>   2
Atom  33H    basis set group =>   2
Atom  34H    basis set group =>   2
Atom  35O    basis set group =>   4
Atom  36C    basis set group =>   1
Atom  37H    basis set group =>   2
Atom  38H    basis set group =>   2
Atom  39H    basis set group =>   2
Atom  40H    basis set group =>   2


           ************************************************************
           *        Program running with 4 parallel MPI-processes     *
           *              working on a common directory               *
           ************************************************************
------------------------------------------------------------------------------
                           ORCA GTO INTEGRAL CALCULATION
------------------------------------------------------------------------------
------------------------------------------------------------------------------
                   ___                                                        
                  /   \      - P O W E R E D   B Y -                         
                 /     \                                                     
                 |  |  |   _    _      __       _____    __    __             
                 |  |  |  | |  | |    /  \     |  _  \  |  |  /  |          
                  \  \/   | |  | |   /    \    | | | |  |  | /  /          
                 / \  \   | |__| |  /  /\  \   | |_| |  |  |/  /          
                |  |  |   |  __  | /  /__\  \  |    /   |      \           
                |  |  |   | |  | | |   __   |  |    \   |  |\   \          
                \     /   | |  | | |  |  |  |  | |\  \  |  | \   \       
                 \___/    |_|  |_| |__|  |__|  |_| \__\ |__|  \__/        
                                                                              
                      - O R C A' S   B I G   F R I E N D -                    
                                      &                                       
                       - I N T E G R A L  F E E D E R -                       
                                                                              
 v1 FN, 2020, v2 2021                                                         
------------------------------------------------------------------------------


Reading SHARK input file Ph-Acr_2_STEOM-DLPNO-CCSD_DEF2-TZVP_RIJCOSX_SMD.SHARKINP.tmp ... ok
----------------------
SHARK INTEGRAL PACKAGE
----------------------

Number of atoms                             ...     41
Number of basis functions                   ...    821
Number of shells                            ...    325
Maximum angular momentum                    ...      3
Integral batch strategy                     ... SHARK/LIBINT Hybrid
RI-J (if used) integral strategy            ... SPLIT-RIJ (Revised 2003 algorithm where possible)
Printlevel                                  ...      1
Contraction scheme used                     ... SEGMENTED contraction
Coulomb Range Separation                    ... NOT USED
Exchange Range Separation                   ... NOT USED
Finite Nucleus Model                        ... NOT USED
Auxiliary Coulomb fitting basis             ... AVAILABLE
   # of basis functions in Aux-J            ...   1325
   # of shells in Aux-J                     ...    435
   Maximum angular momentum in Aux-J        ...      4
Auxiliary J/K fitting basis                 ... NOT available
Auxiliary Correlation fitting basis         ... AVAILABLE
   # of basis functions in Aux-C            ...   2018
   # of shells in Aux-C                     ...    632
   Maximum angular momentum in Aux-C        ...      4
Auxiliary 'external' fitting basis          ... NOT available
Integral threshold                          ...     2.500000e-11
Primitive cut-off                           ...     2.500000e-12
Primitive pair pre-selection threshold      ...     2.500000e-12

Calculating pre-screening integrals         ... done (  0.1 sec) Dimension = 325
Organizing shell pair data                  ... done (  0.5 sec)
Shell pair information
Total number of shell pairs                 ...     52975
Shell pairs after pre-screening             ...     39344
Total number of primitive shell pairs       ...    162156
Primitive shell pairs kept                  ...     80294
          la=0 lb=0:  10096 shell pairs
          la=1 lb=0:  11257 shell pairs
          la=1 lb=1:   3136 shell pairs
          la=2 lb=0:   5699 shell pairs
          la=2 lb=1:   3167 shell pairs
          la=2 lb=2:    843 shell pairs
          la=3 lb=0:   2648 shell pairs
          la=3 lb=1:   1523 shell pairs
          la=3 lb=2:    774 shell pairs
          la=3 lb=3:    201 shell pairs

Calculating one electron integrals          ... done (  0.1 sec)
Calculating RI/J V-Matrix + Cholesky decomp.... done (  0.1 sec)
Calculating RI/C V-Matrix + Cholesky decomp.... done (  0.2 sec)
Calculating Nuclear repulsion               ... done (  0.0 sec) ENN=   1858.365666304111 Eh

SHARK setup successfully completed in   1.2 seconds

Maximum memory used throughout the entire GTOINT-calculation: 72.9 MB


           ************************************************************
           *        Program running with 4 parallel MPI-processes     *
           *              working on a common directory               *
           ************************************************************
-------------------------------------------------------------------------------
                                 ORCA SCF
-------------------------------------------------------------------------------

------------
SCF SETTINGS
------------
Hamiltonian:
 Ab initio Hamiltonian  Method          .... Hartree-Fock(GTOs)


General Settings:
 Integral files         IntName         .... Ph-Acr_2_STEOM-DLPNO-CCSD_DEF2-TZVP_RIJCOSX_SMD
 Hartree-Fock type      HFTyp           .... RHF
 Total Charge           Charge          ....    1
 Multiplicity           Mult            ....    1
 Number of Electrons    NEL             ....  158
 Basis Dimension        Dim             ....  821
 Nuclear Repulsion      ENuc            ....   1858.3656663041 Eh

Convergence Acceleration:
 DIIS                   CNVDIIS         .... on
   Start iteration      DIISMaxIt       ....    12
   Startup error        DIISStart       ....  0.200000
   # of expansion vecs  DIISMaxEq       ....     5
   Bias factor          DIISBfac        ....   1.050
   Max. coefficient     DIISMaxC        ....  10.000
 Trust-Rad. Augm. Hess. CNVTRAH         .... auto
   Auto Start mean grad. ratio tolernc. ....  1.125000
   Auto Start start iteration           ....    20
   Auto Start num. interpolation iter.  ....    10
   Max. Number of Micro iterations      ....    16
   Max. Number of Macro iterations      .... Maxiter - #DIIS iter
   Number of Davidson start vectors     ....     2
   Converg. threshold I  (grad. norm)   ....   1.000e-05
   Converg. threshold II (energy diff.) ....   1.000e-08
   Grad. Scal. Fac. for Micro threshold ....   0.100
   Minimum threshold for Micro iter.    ....   0.010
   NR start threshold (gradient norm)   ....   0.001
   Initial trust radius                 ....   0.400
   Minimum AH scaling param. (alpha)    ....   1.000
   Maximum AH scaling param. (alpha)    .... 1000.000
   Orbital update algorithm             .... Taylor
   White noise on init. David. guess    .... on
   Maximum white noise                  ....   0.010
   Quad. conv. algorithm                .... NR
 SOSCF                  CNVSOSCF        .... on
   Start iteration      SOSCFMaxIt      ....   150
   Startup grad/error   SOSCFStart      ....  0.003300
 Level Shifting         CNVShift        .... on
   Level shift para.    LevelShift      ....    0.2500
   Turn off err/grad.   ShiftErr        ....    0.0010
 Zerner damping         CNVZerner       .... off
 Static damping         CNVDamp         .... on
   Fraction old density DampFac         ....    0.7000
   Max. Damping (<1)    DampMax         ....    0.9800
   Min. Damping (>=0)   DampMin         ....    0.0000
   Turn off err/grad.   DampErr         ....    0.1000
 Fernandez-Rico         CNVRico         .... off

SCF Procedure:
 Maximum # iterations   MaxIter         ....   125
 SCF integral mode      SCFMode         .... Direct
   Integral package                     .... SHARK and LIBINT hybrid scheme
 Reset frequency        DirectResetFreq ....    20
 Integral Threshold     Thresh          ....  2.500e-11 Eh
 Primitive CutOff       TCut            ....  2.500e-12 Eh

Convergence Tolerance:
 Convergence Check Mode ConvCheckMode   .... Total+1el-Energy
 Convergence forced     ConvForced      .... 1
 Energy Change          TolE            ....  1.000e-08 Eh
 1-El. energy change                    ....  1.000e-05 Eh
 Orbital Gradient       TolG            ....  1.000e-05
 Orbital Rotation angle TolX            ....  1.000e-05
 DIIS Error             TolErr          ....  5.000e-07


Diagonalization of the overlap matrix:
Smallest eigenvalue                        ... 4.871e-06
Time for diagonalization                   ...    0.090 sec
Threshold for overlap eigenvalues          ... 1.000e-08
Number of eigenvalues below threshold      ... 0
Time for construction of square roots      ...    0.061 sec
Total time needed                          ...    0.153 sec

Time for model grid setup =    0.359 sec

------------------------------
INITIAL GUESS: MODEL POTENTIAL
------------------------------
Loading Hartree-Fock densities                     ... done
Calculating cut-offs                               ... done
Initializing the effective Hamiltonian             ... done
Setting up the integral package (SHARK)            ... done
Starting the Coulomb interaction                   ... done (   0.9 sec)
Reading the grid                                   ... done
Mapping shells                                     ... done
Starting the XC term evaluation                    ... done (   0.3 sec)
Transforming the Hamiltonian                       ... done (   0.0 sec)
Diagonalizing the Hamiltonian                      ... done (   0.1 sec)
Back transforming the eigenvectors                 ... done (   0.0 sec)
Now organizing SCF variables                       ... done
                      ------------------
                      INITIAL GUESS DONE (   1.7 sec)
                      ------------------

--------------------
CPCM SOLVATION MODEL
--------------------
CPCM parameters:
  Epsilon                                         ...      35.6880
  Refrac                                          ...       1.3442
  Rsolv                                           ...       1.3000
  Surface type                                    ... GAUSSIAN VDW
  Epsilon function type                           ...         CPCM
Solvent:                                     ... ACETONITRILE
SMD-CDS solvent descriptors:
  Soln                                       ...    1.3442
  Soln25                                     ...    1.3416
  Sola                                       ...    0.0700
  Solb                                       ...    0.3200
  Solg                                       ...   41.2500
  Solc                                       ...    0.0000
  Solh                                       ...    0.0000
Radii:
 Radius for C  used is    3.4960 Bohr (=   1.8500 Ang.)
 Radius for H  used is    2.2677 Bohr (=   1.2000 Ang.)
 Radius for N  used is    3.5716 Bohr (=   1.8900 Ang.)
 Radius for O  used is    4.0969 Bohr (=   2.1680 Ang.)
Calculating surface                               ...        done! (  0.0s)
GEPOL surface points                              ...         2243
GEPOL Volume                                      ...    2114.2766
GEPOL Surface-area                                ...    1125.1343
Calculating surface distance matrix               ...        done! (  0.0s)
Performing Cholesky decomposition & store         ...        done! (  0.1s)
Overall time for CPCM initialization              ...                 0.2s
--------------
SCF ITERATIONS
--------------
ITER       Energy         Delta-E        Max-DP      RMS-DP      [F,P]     Damp
               ***  Starting incremental Fock matrix formation  ***
  0   -934.4504477816   0.000000000000 0.04017918  0.00072798  0.3016052 0.7000
  1   -934.7040484205  -0.253600638858 0.03002249  0.00056796  0.2204128 0.7000
                               ***Turning on DIIS***
  2   -934.8684683433  -0.164419922854 0.02812423  0.00042693  0.1604445 0.7000
  3   -936.9368831882  -2.068414844884 0.03660953  0.00035794  0.1163228 0.7000
  4   -936.7919633531   0.144919835064 0.10646112  0.00094134  0.0823874 0.0000
  5   -935.2893344340   1.502628919164 0.01060178  0.00009901  0.0046359 0.0000
  6   -935.2227665389   0.066567895112 0.00526153  0.00004743  0.0037641 0.0000
                      *** Initiating the SOSCF procedure ***
                           *** Shutting down DIIS ***
                      *** Re-Reading the Fockian *** 
                      *** Removing any level shift *** 
ITER      Energy       Delta-E        Grad      Rot      Max-DP    RMS-DP
  7   -935.22668213  -0.0039155945  0.002184  0.002184  0.002823  0.000028
               *** Restarting incremental Fock matrix formation ***
  8   -935.23097920  -0.0042970638  0.001111  0.003603  0.001094  0.000015
  9   -935.23105039  -0.0000711947  0.000706  0.007046  0.002820  0.000031
 10   -935.23110601  -0.0000556205  0.000163  0.000725  0.000393  0.000006
 11   -935.23110875  -0.0000027396  0.000131  0.000297  0.000172  0.000003
 12   -935.23110983  -0.0000010785  0.000046  0.000403  0.000137  0.000002
 13   -935.23111012  -0.0000002931  0.000019  0.000107  0.000064  0.000001
 14   -935.23111014  -0.0000000168  0.000013  0.000053  0.000024  0.000000
                  ***Gradient check signals convergence***
              ***Rediagonalizing the Fockian in SOSCF/NRSCF***

               *****************************************************
               *                     SUCCESS                       *
               *           SCF CONVERGED AFTER  15 CYCLES          *
               *****************************************************


SMD CDS free energy correction energy :                -4.54001     Kcal/mol
Total Energy after SMD CDS correction =              -935.238345098 Eh

----------------
TOTAL SCF ENERGY
----------------

Total Energy       :         -935.23834510 Eh          -25449.12918 eV

Components:
Nuclear Repulsion  :         1858.36566630 Eh           50568.70064 eV
Electronic Energy  :        -2793.60401140 Eh          -76017.82982 eV
One Electron Energy:        -4942.15637220 Eh         -134482.91187 eV
Two Electron Energy:         2148.55236080 Eh           58465.08204 eV
CPCM Dielectric    :           -0.07862787 Eh              -2.13957 eV
SMD CDS (Gcds)     :           -0.00723496 Eh              -0.19687 eV

Virial components:
Potential Energy   :        -1869.68443568 Eh          -50876.70002 eV
Kinetic Energy     :          934.44609058 Eh           25427.57084 eV
Virial Ratio       :            2.00084783

CPCM Solvation Model Properties:
Surface-charge          :           -1.05636398
Charge-correction       :            0.00609395 Eh               0.16582 eV
Free-energy (cav+disp)  :           -0.00723496 Eh              -0.19687 eV

---------------
SCF CONVERGENCE
---------------

  Last Energy change         ...    2.1699e-09  Tolerance :   1.0000e-08
  Last MAX-Density change    ...    1.1862e-05  Tolerance :   1.0000e-07
  Last RMS-Density change    ...    2.2186e-07  Tolerance :   5.0000e-09
  Last Orbital Gradient      ...    1.9118e-06  Tolerance :   1.0000e-05
  Last Orbital Rotation      ...    1.0220e-05  Tolerance :   1.0000e-05

             **** THE GBW FILE WAS UPDATED (Ph-Acr_2_STEOM-DLPNO-CCSD_DEF2-TZVP_RIJCOSX_SMD.gbw) ****
             **** DENSITY Ph-Acr_2_STEOM-DLPNO-CCSD_DEF2-TZVP_RIJCOSX_SMD.scfp WAS UPDATED ****
             **** ENERGY FILE WAS UPDATED (Ph-Acr_2_STEOM-DLPNO-CCSD_DEF2-TZVP_RIJCOSX_SMD.en.tmp) ****
             **** THE GBW FILE WAS UPDATED (Ph-Acr_2_STEOM-DLPNO-CCSD_DEF2-TZVP_RIJCOSX_SMD.gbw) ****
             **** DENSITY Ph-Acr_2_STEOM-DLPNO-CCSD_DEF2-TZVP_RIJCOSX_SMD.scfp WAS UPDATED ****
----------------
ORBITAL ENERGIES
----------------

  NO   OCC          E(Eh)            E(eV) 
   0   2.0000     -20.599927      -560.5525 
   1   2.0000     -15.654812      -425.9891 
   2   2.0000     -11.338231      -308.5289 
   3   2.0000     -11.332235      -308.3658 
   4   2.0000     -11.326470      -308.2089 
   5   2.0000     -11.319719      -308.0252 
   6   2.0000     -11.277348      -306.8723 
   7   2.0000     -11.275693      -306.8272 
   8   2.0000     -11.268224      -306.6240 
   9   2.0000     -11.267975      -306.6172 
  10   2.0000     -11.265620      -306.5531 
  11   2.0000     -11.262502      -306.4683 
  12   2.0000     -11.257412      -306.3297 
  13   2.0000     -11.254926      -306.2621 
  14   2.0000     -11.244240      -305.9713 
  15   2.0000     -11.239238      -305.8352 
  16   2.0000     -11.237463      -305.7869 
  17   2.0000     -11.237330      -305.7833 
  18   2.0000     -11.235310      -305.7283 
  19   2.0000     -11.234868      -305.7163 
  20   2.0000     -11.233974      -305.6920 
  21   2.0000     -11.233197      -305.6708 
  22   2.0000     -11.231735      -305.6311 
  23   2.0000      -1.438608       -39.1465 
  24   2.0000      -1.343362       -36.5547 
  25   2.0000      -1.195839       -32.5404 
  26   2.0000      -1.181094       -32.1392 
  27   2.0000      -1.159924       -31.5631 
  28   2.0000      -1.119267       -30.4568 
  29   2.0000      -1.059264       -28.8240 
  30   2.0000      -1.046795       -28.4847 
  31   2.0000      -1.036038       -28.1920 
  32   2.0000      -1.023492       -27.8506 
  33   2.0000      -1.022224       -27.8161 
  34   2.0000      -0.974349       -26.5134 
  35   2.0000      -0.961337       -26.1593 
  36   2.0000      -0.917553       -24.9679 
  37   2.0000      -0.897811       -24.4307 
  38   2.0000      -0.853921       -23.2364 
  39   2.0000      -0.833888       -22.6912 
  40   2.0000      -0.830538       -22.6001 
  41   2.0000      -0.799072       -21.7439 
  42   2.0000      -0.779919       -21.2227 
  43   2.0000      -0.770247       -20.9595 
  44   2.0000      -0.736164       -20.0320 
  45   2.0000      -0.704227       -19.1630 
  46   2.0000      -0.694019       -18.8852 
  47   2.0000      -0.682973       -18.5846 
  48   2.0000      -0.681371       -18.5410 
  49   2.0000      -0.670518       -18.2457 
  50   2.0000      -0.659210       -17.9380 
  51   2.0000      -0.655178       -17.8283 
  52   2.0000      -0.650779       -17.7086 
  53   2.0000      -0.636135       -17.3101 
  54   2.0000      -0.632531       -17.2120 
  55   2.0000      -0.622556       -16.9406 
  56   2.0000      -0.615164       -16.7395 
  57   2.0000      -0.600548       -16.3417 
  58   2.0000      -0.590254       -16.0616 
  59   2.0000      -0.581097       -15.8125 
  60   2.0000      -0.569359       -15.4930 
  61   2.0000      -0.562856       -15.3161 
  62   2.0000      -0.560539       -15.2530 
  63   2.0000      -0.536378       -14.5956 
  64   2.0000      -0.531719       -14.4688 
  65   2.0000      -0.530308       -14.4304 
  66   2.0000      -0.523515       -14.2456 
  67   2.0000      -0.517125       -14.0717 
  68   2.0000      -0.500909       -13.6304 
  69   2.0000      -0.497916       -13.5490 
  70   2.0000      -0.492928       -13.4133 
  71   2.0000      -0.488664       -13.2972 
  72   2.0000      -0.457955       -12.4616 
  73   2.0000      -0.427506       -11.6330 
  74   2.0000      -0.358067        -9.7435 
  75   2.0000      -0.349815        -9.5190 
  76   2.0000      -0.340605        -9.2683 
  77   2.0000      -0.339166        -9.2292 
  78   2.0000      -0.304887        -8.2964 
  79   0.0000       0.005109         0.1390 
  80   0.0000       0.081192         2.2093 
  81   0.0000       0.113639         3.0923 
  82   0.0000       0.114581         3.1179 
  83   0.0000       0.129966         3.5366 
  84   0.0000       0.140419         3.8210 
  85   0.0000       0.150931         4.1071 
  86   0.0000       0.154631         4.2077 
  87   0.0000       0.159646         4.3442 
  88   0.0000       0.167109         4.5473 
  89   0.0000       0.173025         4.7082 
  90   0.0000       0.183129         4.9832 
  91   0.0000       0.184282         5.0146 
  92   0.0000       0.185591         5.0502 
  93   0.0000       0.188241         5.1223 
  94   0.0000       0.197546         5.3755 
  95   0.0000       0.205849         5.6014 
  96   0.0000       0.207744         5.6530 
  97   0.0000       0.216135         5.8813 
  98   0.0000       0.217014         5.9053 
  99   0.0000       0.219487         5.9725 
 100   0.0000       0.228135         6.2079 
 101   0.0000       0.234953         6.3934 
 102   0.0000       0.239054         6.5050 
 103   0.0000       0.243104         6.6152 
 104   0.0000       0.249129         6.7791 
 105   0.0000       0.251355         6.8397 
 106   0.0000       0.260075         7.0770 
 107   0.0000       0.267361         7.2753 
 108   0.0000       0.281983         7.6731 
 109   0.0000       0.283718         7.7204 
 110   0.0000       0.295387         8.0379 
 111   0.0000       0.300815         8.1856 
 112   0.0000       0.308792         8.4027 
 113   0.0000       0.312483         8.5031 
 114   0.0000       0.318468         8.6659 
 115   0.0000       0.327090         8.9006 
 116   0.0000       0.331027         9.0077 
 117   0.0000       0.336211         9.1488 
 118   0.0000       0.338930         9.2228 
 119   0.0000       0.345170         9.3925 
 120   0.0000       0.347616         9.4591 
 121   0.0000       0.349251         9.5036 
 122   0.0000       0.353362         9.6155 
 123   0.0000       0.354786         9.6542 
 124   0.0000       0.358799         9.7634 
 125   0.0000       0.364642         9.9224 
 126   0.0000       0.369805        10.0629 
 127   0.0000       0.376536        10.2461 
 128   0.0000       0.380365        10.3503 
 129   0.0000       0.385740        10.4965 
 130   0.0000       0.390728        10.6323 
 131   0.0000       0.397944        10.8286 
 132   0.0000       0.402426        10.9506 
 133   0.0000       0.403189        10.9713 
 134   0.0000       0.409716        11.1489 
 135   0.0000       0.414277        11.2730 
 136   0.0000       0.418315        11.3829 
 137   0.0000       0.427243        11.6259 
 138   0.0000       0.431543        11.7429 
 139   0.0000       0.440172        11.9777 
 140   0.0000       0.444438        12.0938 
 141   0.0000       0.446029        12.1371 
 142   0.0000       0.454069        12.3558 
 143   0.0000       0.461520        12.5586 
 144   0.0000       0.463483        12.6120 
 145   0.0000       0.466522        12.6947 
 146   0.0000       0.472888        12.8679 
 147   0.0000       0.481232        13.0950 
 148   0.0000       0.485914        13.2224 
 149   0.0000       0.493305        13.4235 
 150   0.0000       0.496571        13.5124 
 151   0.0000       0.504920        13.7396 
 152   0.0000       0.509561        13.8659 
 153   0.0000       0.512461        13.9448 
 154   0.0000       0.515938        14.0394 
 155   0.0000       0.524423        14.2703 
 156   0.0000       0.526697        14.3321 
 157   0.0000       0.529942        14.4204 
 158   0.0000       0.539679        14.6854 
 159   0.0000       0.541999        14.7485 
 160   0.0000       0.544428        14.8146 
 161   0.0000       0.548086        14.9142 
 162   0.0000       0.549193        14.9443 
 163   0.0000       0.551962        15.0196 
 164   0.0000       0.558603        15.2004 
 165   0.0000       0.559498        15.2247 
 166   0.0000       0.562625        15.3098 
 167   0.0000       0.564021        15.3478 
 168   0.0000       0.569571        15.4988 
 169   0.0000       0.570479        15.5235 
 170   0.0000       0.575962        15.6727 
 171   0.0000       0.578201        15.7336 
 172   0.0000       0.582819        15.8593 
 173   0.0000       0.593203        16.1419 
 174   0.0000       0.596606        16.2345 
 175   0.0000       0.598229        16.2786 
 176   0.0000       0.601677        16.3725 
 177   0.0000       0.607358        16.5270 
 178   0.0000       0.611746        16.6465 
 179   0.0000       0.615722        16.7547 
 180   0.0000       0.622504        16.9392 
 181   0.0000       0.632095        17.2002 
 182   0.0000       0.636565        17.3218 
 183   0.0000       0.643761        17.5176 
 184   0.0000       0.647496        17.6193 
 185   0.0000       0.648751        17.6534 
 186   0.0000       0.655521        17.8376 
 187   0.0000       0.657432        17.8896 
 188   0.0000       0.659831        17.9549 
 189   0.0000       0.663849        18.0642 
 190   0.0000       0.667706        18.1692 
 191   0.0000       0.673677        18.3317 
 192   0.0000       0.677563        18.4374 
 193   0.0000       0.682147        18.5622 
 194   0.0000       0.688890        18.7457 
 195   0.0000       0.692521        18.8445 
 196   0.0000       0.700081        19.0502 
 197   0.0000       0.706628        19.2283 
 198   0.0000       0.721385        19.6299 
 199   0.0000       0.723401        19.6847 
 200   0.0000       0.738121        20.0853 
 201   0.0000       0.740694        20.1553 
 202   0.0000       0.742058        20.1924 
 203   0.0000       0.747083        20.3292 
 204   0.0000       0.758164        20.6307 
 205   0.0000       0.763171        20.7669 
 206   0.0000       0.768878        20.9222 
 207   0.0000       0.771585        20.9959 
 208   0.0000       0.774160        21.0660 
 209   0.0000       0.797659        21.7054 
 210   0.0000       0.804596        21.8942 
 211   0.0000       0.807970        21.9860 
 212   0.0000       0.812732        22.1155 
 213   0.0000       0.819580        22.3019 
 214   0.0000       0.825746        22.4697 
 215   0.0000       0.830506        22.5992 
 216   0.0000       0.832302        22.6481 
 217   0.0000       0.838485        22.8163 
 218   0.0000       0.847730        23.0679 
 219   0.0000       0.852386        23.1946 
 220   0.0000       0.856588        23.3089 
 221   0.0000       0.862105        23.4591 
 222   0.0000       0.873286        23.7633 
 223   0.0000       0.877652        23.8821 
 224   0.0000       0.886340        24.1185 
 225   0.0000       0.897010        24.4089 
 226   0.0000       0.898681        24.4544 
 227   0.0000       0.900980        24.5169 
 228   0.0000       0.906445        24.6656 
 229   0.0000       0.911696        24.8085 
 230   0.0000       0.913663        24.8620 
 231   0.0000       0.917795        24.9745 
 232   0.0000       0.921493        25.0751 
 233   0.0000       0.927701        25.2440 
 234   0.0000       0.931546        25.3487 
 235   0.0000       0.940794        25.6003 
 236   0.0000       0.946499        25.7556 
 237   0.0000       0.950206        25.8564 
 238   0.0000       0.954690        25.9784 
 239   0.0000       0.965204        26.2645 
 240   0.0000       0.967712        26.3328 
 241   0.0000       0.977726        26.6053 
 242   0.0000       0.982887        26.7457 
 243   0.0000       0.990749        26.9596 
 244   0.0000       0.994406        27.0592 
 245   0.0000       1.000987        27.2382 
 246   0.0000       1.006047        27.3759 
 247   0.0000       1.016094        27.6493 
 248   0.0000       1.022160        27.8144 
 249   0.0000       1.028253        27.9802 
 250   0.0000       1.041046        28.3283 
 251   0.0000       1.043811        28.4035 
 252   0.0000       1.053404        28.6646 
 253   0.0000       1.055900        28.7325 
 254   0.0000       1.064331        28.9619 
 255   0.0000       1.069519        29.1031 
 256   0.0000       1.081036        29.4165 
 257   0.0000       1.085357        29.5341 
 258   0.0000       1.091434        29.6994 
 259   0.0000       1.095899        29.8209 
 260   0.0000       1.100187        29.9376 
 261   0.0000       1.113524        30.3005 
 262   0.0000       1.122364        30.5411 
 263   0.0000       1.128958        30.7205 
 264   0.0000       1.131334        30.7852 
 265   0.0000       1.139535        31.0083 
 266   0.0000       1.141222        31.0542 
 267   0.0000       1.154903        31.4265 
 268   0.0000       1.163875        31.6706 
 269   0.0000       1.171933        31.8899 
 270   0.0000       1.179575        32.0979 
 271   0.0000       1.184147        32.2223 
 272   0.0000       1.206049        32.8183 
 273   0.0000       1.208864        32.8949 
 274   0.0000       1.216257        33.0960 
 275   0.0000       1.227055        33.3899 
 276   0.0000       1.237552        33.6755 
 277   0.0000       1.244926        33.8762 
 278   0.0000       1.248739        33.9799 
 279   0.0000       1.253771        34.1169 
 280   0.0000       1.268256        34.5110 
 281   0.0000       1.269139        34.5350 
 282   0.0000       1.279529        34.8178 
 283   0.0000       1.292020        35.1577 
 284   0.0000       1.306681        35.5566 
 285   0.0000       1.308266        35.5997 
 286   0.0000       1.324859        36.0513 
 287   0.0000       1.332387        36.2561 
 288   0.0000       1.344630        36.5892 
 289   0.0000       1.348947        36.7067 
 290   0.0000       1.352201        36.7953 
 291   0.0000       1.364787        37.1377 
 292   0.0000       1.369625        37.2694 
 293   0.0000       1.378092        37.4998 
 294   0.0000       1.379506        37.5383 
 295   0.0000       1.383610        37.6499 
 296   0.0000       1.401030        38.1240 
 297   0.0000       1.406575        38.2749 
 298   0.0000       1.422296        38.7026 
 299   0.0000       1.424464        38.7616 
 300   0.0000       1.436461        39.0881 
 301   0.0000       1.437678        39.1212 
 302   0.0000       1.445251        39.3273 
 303   0.0000       1.455526        39.6069 
 304   0.0000       1.474274        40.1170 
 305   0.0000       1.479532        40.2601 
 306   0.0000       1.480958        40.2989 
 307   0.0000       1.484523        40.3959 
 308   0.0000       1.488157        40.4948 
 309   0.0000       1.497947        40.7612 
 310   0.0000       1.501710        40.8636 
 311   0.0000       1.504082        40.9281 
 312   0.0000       1.513332        41.1799 
 313   0.0000       1.523701        41.4620 
 314   0.0000       1.526420        41.5360 
 315   0.0000       1.535265        41.7767 
 316   0.0000       1.554365        42.2964 
 317   0.0000       1.570533        42.7364 
 318   0.0000       1.581099        43.0239 
 319   0.0000       1.595980        43.4288 
 320   0.0000       1.597945        43.4823 
 321   0.0000       1.606065        43.7033 
 322   0.0000       1.615546        43.9612 
 323   0.0000       1.639401        44.6104 
 324   0.0000       1.645121        44.7660 
 325   0.0000       1.653379        44.9907 
 326   0.0000       1.657398        45.1001 
 327   0.0000       1.663379        45.2628 
 328   0.0000       1.677765        45.6543 
 329   0.0000       1.684928        45.8492 
 330   0.0000       1.692942        46.0673 
 331   0.0000       1.700841        46.2822 
 332   0.0000       1.714246        46.6470 
 333   0.0000       1.720537        46.8182 
 334   0.0000       1.722332        46.8670 
 335   0.0000       1.735422        47.2232 
 336   0.0000       1.739348        47.3301 
 337   0.0000       1.749163        47.5972 
 338   0.0000       1.750204        47.6255 
 339   0.0000       1.760502        47.9057 
 340   0.0000       1.762941        47.9721 
 341   0.0000       1.770412        48.1754 
 342   0.0000       1.776250        48.3342 
 343   0.0000       1.782461        48.5032 
 344   0.0000       1.795349        48.8539 
 345   0.0000       1.798722        48.9457 
 346   0.0000       1.805566        49.1319 
 347   0.0000       1.811559        49.2950 
 348   0.0000       1.812356        49.3167 
 349   0.0000       1.819110        49.5005 
 350   0.0000       1.825169        49.6654 
 351   0.0000       1.828397        49.7532 
 352   0.0000       1.838173        50.0192 
 353   0.0000       1.842737        50.1434 
 354   0.0000       1.855784        50.4984 
 355   0.0000       1.858476        50.5717 
 356   0.0000       1.865936        50.7747 
 357   0.0000       1.873250        50.9737 
 358   0.0000       1.874608        51.0107 
 359   0.0000       1.879854        51.1534 
 360   0.0000       1.888005        51.3752 
 361   0.0000       1.894987        51.5652 
 362   0.0000       1.899426        51.6860 
 363   0.0000       1.904638        51.8278 
 364   0.0000       1.915680        52.1283 
 365   0.0000       1.927523        52.4506 
 366   0.0000       1.931851        52.5683 
 367   0.0000       1.940003        52.7902 
 368   0.0000       1.941349        52.8268 
 369   0.0000       1.951147        53.0934 
 370   0.0000       1.962152        53.3929 
 371   0.0000       1.972293        53.6688 
 372   0.0000       1.980494        53.8920 
 373   0.0000       1.984771        54.0084 
 374   0.0000       1.996134        54.3176 
 375   0.0000       2.007293        54.6212 
 376   0.0000       2.010030        54.6957 
 377   0.0000       2.014863        54.8272 
 378   0.0000       2.021951        55.0201 
 379   0.0000       2.023884        55.0727 
 380   0.0000       2.031116        55.2695 
 381   0.0000       2.033158        55.3250 
 382   0.0000       2.041531        55.5529 
 383   0.0000       2.044884        55.6441 
 384   0.0000       2.047724        55.7214 
 385   0.0000       2.064397        56.1751 
 386   0.0000       2.067614        56.2626 
 387   0.0000       2.085431        56.7475 
 388   0.0000       2.093556        56.9686 
 389   0.0000       2.100752        57.1644 
 390   0.0000       2.114388        57.5354 
 391   0.0000       2.116807        57.6013 
 392   0.0000       2.125983        57.8509 
 393   0.0000       2.133534        58.0564 
 394   0.0000       2.153198        58.5915 
 395   0.0000       2.157477        58.7079 
 396   0.0000       2.174275        59.1650 
 397   0.0000       2.184679        59.4481 
 398   0.0000       2.189347        59.5752 
 399   0.0000       2.195722        59.7486 
 400   0.0000       2.206907        60.0530 
 401   0.0000       2.231797        60.7303 
 402   0.0000       2.237358        60.8816 
 403   0.0000       2.259717        61.4900 
 404   0.0000       2.262780        61.5734 
 405   0.0000       2.270498        61.7834 
 406   0.0000       2.273732        61.8714 
 407   0.0000       2.283903        62.1482 
 408   0.0000       2.292539        62.3831 
 409   0.0000       2.300763        62.6069 
 410   0.0000       2.308810        62.8259 
 411   0.0000       2.311949        62.9113 
 412   0.0000       2.325400        63.2773 
 413   0.0000       2.328891        63.3724 
 414   0.0000       2.343978        63.7829 
 415   0.0000       2.344829        63.8060 
 416   0.0000       2.357436        64.1491 
 417   0.0000       2.368932        64.4619 
 418   0.0000       2.383716        64.8642 
 419   0.0000       2.386885        64.9504 
 420   0.0000       2.403847        65.4120 
 421   0.0000       2.417183        65.7749 
 422   0.0000       2.420161        65.8559 
 423   0.0000       2.424772        65.9814 
 424   0.0000       2.434162        66.2369 
 425   0.0000       2.452166        66.7268 
 426   0.0000       2.455377        66.8142 
 427   0.0000       2.467145        67.1344 
 428   0.0000       2.476949        67.4012 
 429   0.0000       2.497940        67.9724 
 430   0.0000       2.505252        68.1714 
 431   0.0000       2.513086        68.3845 
 432   0.0000       2.516007        68.4640 
 433   0.0000       2.530636        68.8621 
 434   0.0000       2.537481        69.0484 
 435   0.0000       2.544441        69.2378 
 436   0.0000       2.552089        69.4459 
 437   0.0000       2.559157        69.6382 
 438   0.0000       2.581697        70.2515 
 439   0.0000       2.583050        70.2884 
 440   0.0000       2.585072        70.3434 
 441   0.0000       2.590024        70.4781 
 442   0.0000       2.592117        70.5351 
 443   0.0000       2.606078        70.9150 
 444   0.0000       2.617692        71.2310 
 445   0.0000       2.622645        71.3658 
 446   0.0000       2.626537        71.4717 
 447   0.0000       2.644093        71.9494 
 448   0.0000       2.653600        72.2081 
 449   0.0000       2.674514        72.7772 
 450   0.0000       2.685697        73.0815 
 451   0.0000       2.694433        73.3193 
 452   0.0000       2.701923        73.5231 
 453   0.0000       2.710648        73.7605 
 454   0.0000       2.723469        74.1094 
 455   0.0000       2.734384        74.4064 
 456   0.0000       2.736558        74.4655 
 457   0.0000       2.740359        74.5690 
 458   0.0000       2.746292        74.7304 
 459   0.0000       2.758361        75.0588 
 460   0.0000       2.767657        75.3118 
 461   0.0000       2.777371        75.5761 
 462   0.0000       2.802526        76.2606 
 463   0.0000       2.808446        76.4217 
 464   0.0000       2.824714        76.8644 
 465   0.0000       2.830358        77.0180 
 466   0.0000       2.833949        77.1157 
 467   0.0000       2.836087        77.1739 
 468   0.0000       2.842147        77.3388 
 469   0.0000       2.855665        77.7066 
 470   0.0000       2.864976        77.9600 
 471   0.0000       2.877292        78.2951 
 472   0.0000       2.879305        78.3499 
 473   0.0000       2.883481        78.4635 
 474   0.0000       2.893772        78.7435 
 475   0.0000       2.902531        78.9819 
 476   0.0000       2.904766        79.0427 
 477   0.0000       2.907666        79.1216 
 478   0.0000       2.924243        79.5727 
 479   0.0000       2.929008        79.7024 
 480   0.0000       2.935491        79.8788 
 481   0.0000       2.943452        80.0954 
 482   0.0000       2.947163        80.1964 
 483   0.0000       2.948687        80.2378 
 484   0.0000       2.957507        80.4779 
 485   0.0000       2.966411        80.7202 
 486   0.0000       2.969000        80.7906 
 487   0.0000       2.980733        81.1099 
 488   0.0000       2.985129        81.2295 
 489   0.0000       2.992939        81.4420 
 490   0.0000       2.994837        81.4937 
 491   0.0000       2.999888        81.6311 
 492   0.0000       3.003596        81.7320 
 493   0.0000       3.011030        81.9343 
 494   0.0000       3.015873        82.0661 
 495   0.0000       3.019430        82.1629 
 496   0.0000       3.023771        82.2810 
 497   0.0000       3.028805        82.4180 
 498   0.0000       3.037788        82.6624 
 499   0.0000       3.049405        82.9785 
 500   0.0000       3.050478        83.0077 
 501   0.0000       3.054825        83.1260 
 502   0.0000       3.059786        83.2610 
 503   0.0000       3.065817        83.4251 
 504   0.0000       3.079850        83.8070 
 505   0.0000       3.081381        83.8486 
 506   0.0000       3.092784        84.1589 
 507   0.0000       3.096074        84.2485 
 508   0.0000       3.101949        84.4083 
 509   0.0000       3.105396        84.5021 
 510   0.0000       3.118653        84.8629 
 511   0.0000       3.122862        84.9774 
 512   0.0000       3.132625        85.2430 
 513   0.0000       3.134282        85.2882 
 514   0.0000       3.137671        85.3804 
 515   0.0000       3.143729        85.5452 
 516   0.0000       3.150225        85.7220 
 517   0.0000       3.153168        85.8021 
 518   0.0000       3.160976        86.0145 
 519   0.0000       3.165601        86.1404 
 520   0.0000       3.173180        86.3466 
 521   0.0000       3.182794        86.6082 
 522   0.0000       3.186100        86.6982 
 523   0.0000       3.197245        87.0015 
 524   0.0000       3.200999        87.1036 
 525   0.0000       3.202812        87.1529 
 526   0.0000       3.210960        87.3747 
 527   0.0000       3.215679        87.5031 
 528   0.0000       3.228015        87.8387 
 529   0.0000       3.229756        87.8861 
 530   0.0000       3.237021        88.0838 
 531   0.0000       3.242655        88.2371 
 532   0.0000       3.248664        88.4006 
 533   0.0000       3.258013        88.6550 
 534   0.0000       3.262182        88.7685 
 535   0.0000       3.271792        89.0300 
 536   0.0000       3.277886        89.1958 
 537   0.0000       3.299329        89.7793 
 538   0.0000       3.309141        90.0463 
 539   0.0000       3.317261        90.2673 
 540   0.0000       3.317829        90.2827 
 541   0.0000       3.331571        90.6567 
 542   0.0000       3.339552        90.8738 
 543   0.0000       3.342821        90.9628 
 544   0.0000       3.350185        91.1632 
 545   0.0000       3.354441        91.2790 
 546   0.0000       3.356047        91.3227 
 547   0.0000       3.363334        91.5210 
 548   0.0000       3.374180        91.8161 
 549   0.0000       3.382642        92.0464 
 550   0.0000       3.390478        92.2596 
 551   0.0000       3.394591        92.3715 
 552   0.0000       3.399989        92.5184 
 553   0.0000       3.415213        92.9327 
 554   0.0000       3.421665        93.1082 
 555   0.0000       3.422821        93.1397 
 556   0.0000       3.443077        93.6909 
 557   0.0000       3.450199        93.8847 
 558   0.0000       3.454719        94.0077 
 559   0.0000       3.458996        94.1241 
 560   0.0000       3.465164        94.2919 
 561   0.0000       3.467157        94.3461 
 562   0.0000       3.474964        94.5586 
 563   0.0000       3.480781        94.7169 
 564   0.0000       3.485241        94.8382 
 565   0.0000       3.492183        95.0271 
 566   0.0000       3.496118        95.1342 
 567   0.0000       3.508917        95.4825 
 568   0.0000       3.513129        95.5971 
 569   0.0000       3.515396        95.6588 
 570   0.0000       3.520937        95.8096 
 571   0.0000       3.532959        96.1367 
 572   0.0000       3.540171        96.3330 
 573   0.0000       3.545355        96.4740 
 574   0.0000       3.553241        96.6886 
 575   0.0000       3.555890        96.7607 
 576   0.0000       3.566499        97.0494 
 577   0.0000       3.573276        97.2338 
 578   0.0000       3.578540        97.3770 
 579   0.0000       3.583701        97.5175 
 580   0.0000       3.586150        97.5841 
 581   0.0000       3.589790        97.6832 
 582   0.0000       3.604587        98.0858 
 583   0.0000       3.610828        98.2556 
 584   0.0000       3.616627        98.4134 
 585   0.0000       3.619218        98.4839 
 586   0.0000       3.628574        98.7385 
 587   0.0000       3.633586        98.8749 
 588   0.0000       3.636617        98.9574 
 589   0.0000       3.642481        99.1169 
 590   0.0000       3.646218        99.2186 
 591   0.0000       3.657211        99.5178 
 592   0.0000       3.661987        99.6477 
 593   0.0000       3.674333        99.9837 
 594   0.0000       3.676751       100.0495 
 595   0.0000       3.678821       100.1058 
 596   0.0000       3.684631       100.2639 
 597   0.0000       3.690436       100.4219 
 598   0.0000       3.692774       100.4855 
 599   0.0000       3.698925       100.6529 
 600   0.0000       3.705270       100.8255 
 601   0.0000       3.708564       100.9152 
 602   0.0000       3.712832       101.0313 
 603   0.0000       3.724182       101.3402 
 604   0.0000       3.731317       101.5343 
 605   0.0000       3.732771       101.5739 
 606   0.0000       3.736858       101.6851 
 607   0.0000       3.750454       102.0550 
 608   0.0000       3.753079       102.1265 
 609   0.0000       3.764667       102.4418 
 610   0.0000       3.767163       102.5097 
 611   0.0000       3.776409       102.7613 
 612   0.0000       3.778825       102.8270 
 613   0.0000       3.785915       103.0200 
 614   0.0000       3.791997       103.1855 
 615   0.0000       3.802368       103.4677 
 616   0.0000       3.805878       103.5632 
 617   0.0000       3.810180       103.6803 
 618   0.0000       3.818748       103.9134 
 619   0.0000       3.823094       104.0317 
 620   0.0000       3.827857       104.1613 
 621   0.0000       3.832483       104.2872 
 622   0.0000       3.843426       104.5849 
 623   0.0000       3.847665       104.7003 
 624   0.0000       3.854818       104.8949 
 625   0.0000       3.861079       105.0653 
 626   0.0000       3.866151       105.2033 
 627   0.0000       3.869490       105.2942 
 628   0.0000       3.876471       105.4841 
 629   0.0000       3.877377       105.5088 
 630   0.0000       3.885217       105.7221 
 631   0.0000       3.896143       106.0194 
 632   0.0000       3.900276       106.1319 
 633   0.0000       3.903263       106.2132 
 634   0.0000       3.909456       106.3817 
 635   0.0000       3.926812       106.8540 
 636   0.0000       3.928142       106.8902 
 637   0.0000       3.943705       107.3137 
 638   0.0000       3.950574       107.5006 
 639   0.0000       3.956302       107.6564 
 640   0.0000       3.960017       107.7575 
 641   0.0000       3.980277       108.3088 
 642   0.0000       3.984415       108.4214 
 643   0.0000       3.996047       108.7380 
 644   0.0000       4.002676       108.9183 
 645   0.0000       4.007335       109.0451 
 646   0.0000       4.015809       109.2757 
 647   0.0000       4.019663       109.3806 
 648   0.0000       4.028190       109.6126 
 649   0.0000       4.046614       110.1140 
 650   0.0000       4.052428       110.2722 
 651   0.0000       4.057412       110.4078 
 652   0.0000       4.064068       110.5889 
 653   0.0000       4.073889       110.8562 
 654   0.0000       4.092250       111.3558 
 655   0.0000       4.116501       112.0157 
 656   0.0000       4.122588       112.1813 
 657   0.0000       4.131433       112.4220 
 658   0.0000       4.161988       113.2534 
 659   0.0000       4.169792       113.4658 
 660   0.0000       4.189403       113.9995 
 661   0.0000       4.192986       114.0969 
 662   0.0000       4.207225       114.4844 
 663   0.0000       4.247962       115.5929 
 664   0.0000       4.249231       115.6274 
 665   0.0000       4.259236       115.8997 
 666   0.0000       4.272428       116.2587 
 667   0.0000       4.285344       116.6101 
 668   0.0000       4.293373       116.8286 
 669   0.0000       4.298585       116.9704 
 670   0.0000       4.304785       117.1392 
 671   0.0000       4.311844       117.3313 
 672   0.0000       4.335464       117.9740 
 673   0.0000       4.348363       118.3250 
 674   0.0000       4.361726       118.6886 
 675   0.0000       4.375860       119.0732 
 676   0.0000       4.389487       119.4440 
 677   0.0000       4.396317       119.6299 
 678   0.0000       4.403445       119.8238 
 679   0.0000       4.413339       120.0931 
 680   0.0000       4.444996       120.9545 
 681   0.0000       4.457223       121.2872 
 682   0.0000       4.462424       121.4287 
 683   0.0000       4.480762       121.9277 
 684   0.0000       4.490374       122.1893 
 685   0.0000       4.495490       122.3285 
 686   0.0000       4.503182       122.5378 
 687   0.0000       4.508063       122.6706 
 688   0.0000       4.510029       122.7241 
 689   0.0000       4.526721       123.1783 
 690   0.0000       4.541107       123.5698 
 691   0.0000       4.543390       123.6319 
 692   0.0000       4.546870       123.7266 
 693   0.0000       4.555604       123.9643 
 694   0.0000       4.568947       124.3274 
 695   0.0000       4.574631       124.4820 
 696   0.0000       4.584627       124.7541 
 697   0.0000       4.589295       124.8811 
 698   0.0000       4.595291       125.0442 
 699   0.0000       4.606126       125.3391 
 700   0.0000       4.612496       125.5124 
 701   0.0000       4.621682       125.7624 
 702   0.0000       4.625771       125.8736 
 703   0.0000       4.632303       126.0514 
 704   0.0000       4.653036       126.6155 
 705   0.0000       4.671783       127.1257 
 706   0.0000       4.675082       127.2155 
 707   0.0000       4.680619       127.3661 
 708   0.0000       4.688988       127.5939 
 709   0.0000       4.701308       127.9291 
 710   0.0000       4.710428       128.1773 
 711   0.0000       4.723676       128.5378 
 712   0.0000       4.730427       128.7215 
 713   0.0000       4.742636       129.0537 
 714   0.0000       4.748985       129.2265 
 715   0.0000       4.758487       129.4850 
 716   0.0000       4.789259       130.3224 
 717   0.0000       4.796129       130.5093 
 718   0.0000       4.808933       130.8577 
 719   0.0000       4.822818       131.2356 
 720   0.0000       4.838737       131.6687 
 721   0.0000       4.852058       132.0312 
 722   0.0000       4.866536       132.4252 
 723   0.0000       4.877909       132.7347 
 724   0.0000       4.917282       133.8060 
 725   0.0000       4.940773       134.4453 
 726   0.0000       4.948272       134.6493 
 727   0.0000       4.955692       134.8512 
 728   0.0000       4.966062       135.1334 
 729   0.0000       4.977561       135.4463 
 730   0.0000       4.999026       136.0304 
 731   0.0000       5.006156       136.2244 
 732   0.0000       5.010379       136.3393 
 733   0.0000       5.044411       137.2654 
 734   0.0000       5.059594       137.6785 
 735   0.0000       5.078871       138.2031 
 736   0.0000       5.089480       138.4918 
 737   0.0000       5.111426       139.0890 
 738   0.0000       5.116030       139.2143 
 739   0.0000       5.128744       139.5602 
 740   0.0000       5.175585       140.8348 
 741   0.0000       5.202386       141.5641 
 742   0.0000       5.212904       141.8503 
 743   0.0000       5.243846       142.6923 
 744   0.0000       5.281270       143.7107 
 745   0.0000       5.282978       143.7571 
 746   0.0000       5.284156       143.7892 
 747   0.0000       5.304709       144.3485 
 748   0.0000       5.358841       145.8215 
 749   0.0000       5.374182       146.2389 
 750   0.0000       5.416603       147.3933 
 751   0.0000       5.424677       147.6130 
 752   0.0000       5.435547       147.9087 
 753   0.0000       5.445414       148.1773 
 754   0.0000       5.485058       149.2560 
 755   0.0000       5.514259       150.0506 
 756   0.0000       5.532775       150.5545 
 757   0.0000       5.548616       150.9855 
[...]
  Amplitude    Excitation
   0.277488    74 ->  87
  -0.111108    74 ->  90
  -0.215105    78 ->  84
   0.294156    78 ->  86
  -0.696865    78 ->  87
   0.125232    78 ->  88
   0.398386    78 ->  90
  -0.110683    78 ->  91
  Ground state amplitude: -0.000284

Percentage Active Character     75.92

Warning:: the state may have not converged with respect to active space 
-------------------- Handle with Care -------------------- 

  Amplitude    Excitation in Canonical Basis
   0.127521    74 ->  84
   0.281359    74 ->  87
  -0.334206    78 ->  84
  -0.775477    78 ->  87
   0.199712    78 ->  88
   0.105117    78 ->  89

IROOT= 24:  0.280093 au     7.622 eV   61473.3 cm**-1
  Amplitude    Excitation
  -0.123164    72 ->  84
  -0.126596    74 ->  82
  -0.215197    74 ->  84
  -0.161423    74 ->  87
  -0.126795    74 ->  88
   0.152307    74 ->  90
  -0.130897    75 ->  82
  -0.108385    76 ->  82
   0.326361    78 ->  86
   0.561408    78 ->  87
   0.140394    78 ->  88
  -0.468599    78 ->  90
  -0.118088    78 ->  94
  Ground state amplitude: -0.000315

Percentage Active Character     64.88

Warning:: the state may have not converged with respect to active space 
-------------------- Handle with Care -------------------- 

  Amplitude    Excitation in Canonical Basis
  -0.132257    72 ->  84
  -0.123955    74 ->  81
   0.104833    74 ->  82
  -0.233256    74 ->  84
  -0.186749    74 ->  86
  -0.140887    74 ->  87
  -0.120223    74 ->  89
  -0.111206    75 ->  82
  -0.126560    78 ->  85
   0.571472    78 ->  86
   0.482528    78 ->  87
  -0.204569    78 ->  88
   0.136201    78 ->  89
  -0.140453    78 ->  94

IROOT= 25:  0.289629 au     7.881 eV   63566.2 cm**-1
  Amplitude    Excitation
  -0.677721    77 ->  84
  -0.526559    77 ->  86
   0.266979    77 ->  88
  -0.266731    77 ->  90
   0.126375    77 ->  92
  Ground state amplitude:  0.002041

Percentage Active Character     86.03

Warning:: the state may have not converged with respect to active space 
-------------------- Handle with Care -------------------- 

  Amplitude    Excitation in Canonical Basis
   0.163510    76 ->  84
   0.133034    76 ->  86
  -0.129912    76 ->  87
  -0.142714    76 ->  89
   0.620527    77 ->  84
   0.353236    77 ->  86
  -0.437653    77 ->  87
  -0.325910    77 ->  89



-------------------
CPCM SOLVENT SHIFT
-------------------

Reading the CPCM data                  ... done
Making difference densities            ... done
Computing the potentials               ... done
Calculating charges                    ... done

---------------------------------
     CALCULATED SOLVENT SHIFTS   
            CPCM  MODEL          
---------------------------------

Contributions of the 'fast' term to the solvent shift

 State Shift(Eh) Shift(eV) Shift(cm**-1) Shift(nm) Esteom(eV)  Esteom+SHIFT(eV)
-------------------------------------------------------------------------------
   0: -0.0042432 -0.115     -931.3       22.5      2.583          2.468
   1: -0.0004520 -0.012      -99.2        1.3      3.435          3.423
   2: -0.0151894 -0.413    -3333.7       42.6      3.683          3.270
   3: -0.0035080 -0.095     -769.9        8.7      3.746          3.651
   4: -0.0239526 -0.652    -5257.0       50.2      4.353          3.701
   5: -0.0001397 -0.004      -30.7        0.2      4.792          4.788
   6: -0.0025079 -0.068     -550.4        3.7      4.816          4.748
   7: -0.0008660 -0.024     -190.1        1.1      5.279          5.256
   8: -0.0008726 -0.024     -191.5        1.0      5.441          5.417
   9: -0.0044276 -0.120     -971.8        4.6      5.775          5.654
  10: -0.0044509 -0.121     -976.9        4.6      5.778          5.657
  11: -0.0018032 -0.049     -395.8        1.8      5.793          5.744
  12: -0.0013286 -0.036     -291.6        1.3      5.904          5.868
  13: -0.0086255 -0.235    -1893.1        8.2      6.093          5.858
  14: -0.0007521 -0.020     -165.1        0.7      6.117          6.096
  15: -0.0004338 -0.012      -95.2        0.4      6.245          6.233
  16: -0.0001123 -0.003      -24.7        0.1      6.339          6.336
  17: -0.0210010 -0.571    -4609.2       18.9      6.413          5.841
  18: -0.0177019 -0.482    -3885.1       14.1      6.751          6.269
  19: -0.0025283 -0.069     -554.9        1.8      6.949          6.880
  20: -0.0067252 -0.183    -1476.0        4.8      6.992          6.809
  21: -0.0128607 -0.350    -2822.6        8.4      7.352          7.002
  22: -0.0061516 -0.167    -1350.1        3.8      7.517          7.350
  23: -0.0065788 -0.179    -1443.9        3.9      7.622          7.443
  24: -0.0046754 -0.127    -1026.1        2.6      7.881          7.754

-------------------
CPCM SOLVENT SHIFT
-------------------

Reading the CPCM data                  ... done
Making difference densities            ... done
Computing the potentials               ... done
Calculating charges                    ... done

R0 correction
 State Shift(Eh) Shift(eV)
--------------------------
   0: -0.0041945 -0.114
   1: -0.0004506 -0.012
   2: -0.0151743 -0.413
   3: -0.0034319 -0.093
   4: -0.0239605 -0.652
   5: -0.0001397 -0.004
   6: -0.0025779 -0.070
   7: -0.0009234 -0.025
   8: -0.0008380 -0.023
   9: -0.0044263 -0.120
  10: -0.0044506 -0.121
  11: -0.0018051 -0.049
  12: -0.0013226 -0.036
  13: -0.0086262 -0.235
  14: -0.0007524 -0.020
  15: -0.0004360 -0.012
  16: -0.0001342 -0.004
  17: -0.0209984 -0.571
  18: -0.0177098 -0.482
  19: -0.0025281 -0.069
  20: -0.0067251 -0.183
  21: -0.0128607 -0.350
  22: -0.0061516 -0.167
  23: -0.0065788 -0.179
  24: -0.0046752 -0.127

STEOM-CCSD done ( 6841.2 sec)

PAIRWISE REDUNDANCY FOUND (L1=1.979276E+00,L2=2.072447E-02) AND REMOVED FOR IROOT=10 and IROOT=11!

Calculating the Dipole integrals                  ... done
Transforming integrals                            ... done
Calculating the Linear Momentum integrals         ... done
Transforming integrals                            ... done
Calculating angular momentum integrals            ... done
Transforming integrals                            ... done

--------------------------------------------------------------------
               UNRELAXED EXCITED STATE DIPOLE MOMENTS
--------------------------------------------------------------------
               E(eV)     DX(au)      DY(au)      DZ(au)      |D|(D)
IROOT=  0:     0.000   -2.307464    1.333430    0.006833    6.774010
IROOT=  1:     2.468   -1.392806    2.765200   -0.029344    7.870179
IROOT=  2:     3.423   -1.926729    1.133948    0.001164    5.682566
IROOT=  3:     3.270    2.519165   -0.422847    0.090423    6.496851
IROOT=  4:     3.651   -2.317085    0.221474   -0.040696    5.917308
IROOT=  5:     3.701    3.300495   -0.897281    0.159208    8.703099
IROOT=  6:     4.788   -3.514647    2.069370   -0.041701   10.367536
IROOT=  7:     4.748   -1.158267    2.332107    0.020231    6.618794
IROOT=  8:     5.256   -1.851774    1.129100    0.012362    5.512883
IROOT=  9:     5.417   -1.638504    0.882058    0.033702    4.730651
IROOT= 10:     5.654    0.410404    1.157730    0.013876    3.122341
IROOT= 11:     5.744   -0.780368    3.008093    0.060835    7.900577
IROOT= 12:     5.868   -1.588566    1.185520   -0.010024    5.038340
IROOT= 13:     5.858    4.600987   -1.216241    0.183125   12.105432
IROOT= 14:     6.096   -2.479184    2.044164   -0.037342    8.167979
IROOT= 15:     6.233   -2.733868    1.996058   -0.020901    8.604171
IROOT= 16:     6.336   -1.392037    1.161334    0.018522    4.608166
IROOT= 17:     5.841   -7.853104    5.344998   -0.197928   24.151016
IROOT= 18:     6.269   -6.731509    5.431600   -0.121099   21.987678
IROOT= 19:     6.880   -2.307942    1.702476   -0.086341    7.293001
IROOT= 20:     6.809    0.780890    2.676435    0.093918    7.090620
IROOT= 21:     7.002   -7.484119    3.382086   -0.190408   20.880960
IROOT= 22:     7.350   -0.115572   -1.585848    0.120561    4.053196
IROOT= 23:     7.443   -5.012536    0.704732    0.027376   12.866349
IROOT= 24:     7.754   -2.746434    1.452212   -0.056344    7.897999
--------------------------------------------------------------------

-----------------------------------------------------------------------------
         ABSORPTION SPECTRUM VIA TRANSITION ELECTRIC DIPOLE MOMENTS
-----------------------------------------------------------------------------
State   Energy  Wavelength   fosc         T2         TX        TY        TZ  
        (cm-1)    (nm)                  (au**2)     (au)      (au)      (au) 
-----------------------------------------------------------------------------
   1   19903.7    502.4   0.127648022   2.11133   1.40528   0.36825   0.02922
   2   27609.0    362.2   0.084976357   1.01326   0.17775   0.99057   0.01791
   3   26371.9    379.2   0.003411974   0.04259   0.08119   0.18689   0.02782
   4   29445.2    339.6   0.093070616   1.04058   0.14623   1.00910   0.01277
   5   29850.8    335.0   0.001187847   0.01310   0.06159   0.09594   0.00471
   6   38615.8    259.0   0.000702680   0.00599   0.00579   0.05089   0.00869
   7   38296.1    261.1   0.760251197   6.53549   0.75330   2.44294   0.00378
   8   42388.6    235.9   0.361862063   2.81041   0.68865   1.52769   0.00598
   9   43691.2    228.9   0.124314973   0.93671   0.93055   0.24724   0.00732
  10   45603.6    219.3   0.013253303   0.09568   0.21175   0.16832   0.09307
  11   46325.1    215.9   0.277086129   1.96913   0.14759   1.38775   0.03471
  12   47330.8    211.3   0.022603866   0.15722   0.38149   0.09646   0.01669
  13   47250.5    211.6   0.023481084   0.16360   0.23861   0.07839   0.30943
  14   49170.4    203.4   0.043450384   0.29091   0.49030   0.13778   0.14557
  15   50276.5    198.9   0.022302283   0.14604   0.33590   0.18018   0.01984
  16   51102.5    195.7   0.655163693   4.22069   2.00632   0.43349   0.08239
  17   47114.5    212.2   0.021815764   0.15244   0.29206   0.20317   0.14200
  18   50564.4    197.8   0.044743332   0.29131   0.27141   0.46419   0.04620
  19   55488.9    180.2   0.009835082   0.05835   0.14015   0.12036   0.15531
  20   54918.7    182.1   0.187887166   1.12630   0.03709   0.05498   1.05794
  21   56476.0    177.1   0.058732046   0.34236   0.02487   0.03647   0.58330
  22   59281.4    168.7   0.003828086   0.02126   0.01038   0.01204   0.14378
  23   60029.4    166.6   0.032779089   0.17977   0.01284   0.01361   0.42349
  24   62540.1    159.9   0.000521046   0.00274   0.01779   0.04325   0.01763

-------------------------------------------------------------------
                             CD SPECTRUM
-------------------------------------------------------------------
State   Energy Wavelength       R         MX        MY        MZ   
        (cm-1)   (nm)       (1e40*cgs)   (au)      (au)      (au)  
-------------------------------------------------------------------
   1     502.4   19903.7     -0.12835  -0.00947  -0.02322  -0.20869
   2     362.2   27609.0     -0.32914  -0.00538  -0.00446  -0.55281
   3     379.2   26371.9     -0.11269   0.04839  -0.02383  -0.05964
   4     339.6   29445.2      0.53354  -0.00042   0.00839  -0.46699
   5     335.0   29850.8      0.07537   0.00011   0.00302  -0.05389
   6     259.0   38615.8     -0.32053  -0.01161  -0.02666   0.02596
   7     261.1   38296.1     -0.21319   0.01372   0.01143   0.60864
   8     235.9   42388.6      0.78607  -0.00427   0.02131  -0.21647
   9     228.9   43691.2      0.01881  -0.00477  -0.01498  -0.07746
  10     219.3   45603.6     -0.21416  -0.00742  -0.02416  -0.00430
  11     215.9   46325.1     -1.25489   0.02871  -0.01868   0.45861
  12     211.3   47330.8      0.61930   0.00863   0.03510   0.17243
  13     211.6   47250.5      2.17012  -0.05240  -0.01627  -0.11549
  14     203.4   49170.4     -2.09247  -0.01997  -0.00331  -0.12019
  15     198.9   50276.5     -1.04252  -0.01805   0.00117  -0.10686
  16     195.7   51102.5     -0.57510   0.01127   0.01605   0.41825
  17     212.2   47114.5     -0.86807  -0.05529   0.03653   0.00652
  18     197.8   50564.4      0.19025  -0.00878  -0.00452  -0.04509
  19     180.2   55488.9     -0.61832   0.03187   0.12475   0.05251
  20     182.1   54918.7     -0.41397   0.08820   0.19203  -0.00051
  21     177.1   56476.0     -0.00192  -0.13957  -0.03033   0.03571
  22     168.7   59281.4     -0.28086   0.05036  -0.26766   0.04074
  23     166.6   60029.4     -0.00167  -0.21304  -0.04539   0.00452
  24     159.9   62540.1      0.02388   0.03068   0.00701   0.21382

TDM done ( 6912.5 sec)
STEOM-CCSD done in ( 6912.8)


--------------------------------------------------------------------------------
                                    TIMINGS
--------------------------------------------------------------------------------


Total execution time                   ...    36536.964 sec

Localization of occupied MO's          ...        1.720 sec (  0.0%)
Fock Matrix Formation                  ...      169.026 sec (  0.5%)
Global overlap, Fock, MKN matrices     ...        1.048 sec (  0.0%)
Differential overlap integrals         ...        3.329 sec (  0.0%)
Organizing maps                        ...        0.075 sec (  0.0%)
RI 3-index integral generations        ...       45.374 sec (  0.1%)
RI-PNO integral transformation         ...     4072.462 sec ( 11.1%)
Initial Guess                          ...      624.706 sec (  1.7%)
DIIS Solver                            ...        8.280 sec (  0.0%)
State Vector Update                    ...        0.081 sec (  0.0%)
Sigma-vector construction              ...     3468.495 sec (  9.5%)
  <0|H|D>                              ...        0.006 sec (  0.0% of sigma)
  <D|H|D>(0-ext)                       ...      169.397 sec (  4.9% of sigma)
  <D|H|D>(2-ext Fock)                  ...        0.233 sec (  0.0% of sigma)
  <D|H|D>(2-ext)                       ...      841.558 sec ( 24.3% of sigma)
  <D|H|D>(4-ext)                       ...      236.289 sec (  6.8% of sigma)
  <D|H|D>(4-ext-corr)                  ...     1413.552 sec ( 40.8% of sigma)
  CCSD doubles correction              ...        3.875 sec (  0.1% of sigma)
  <S|H|S>                              ...      115.187 sec (  3.3% of sigma)
  <S|H|D>(1-ext)                       ...       20.283 sec (  0.6% of sigma)
  <D|H|S>(1-ext)                       ...        0.207 sec (  0.0% of sigma)
  <S|H|D>(3-ext)                       ...        3.652 sec (  0.1% of sigma)
  CCSD singles correction              ...        0.003 sec (  0.0% of sigma)
  Fock-dressing                        ...      475.620 sec ( 13.7% of sigma)
  Singles amplitudes                   ...       10.874 sec (  0.3% of sigma)
  (ik|jl)-dressing                     ...      132.941 sec (  3.8% of sigma)
  (ij|ab),(ia|jb)-dressing             ...       37.852 sec (  1.1% of sigma)
  Pair energies                        ...        0.059 sec (  0.0% of sigma)
Total Time for computing EOM-CCSD      ...    19827.164 sec ( 54.3% of ALL)
  Dressing integrals                   ...      107.864 sec (  0.5% of (EOM))
  Initial EOM-Guess                    ...        0.004 sec (  0.0% of (EOM))
  EOM Singles                          ...      453.321 sec (  2.3% of (EOM))
  EOM Doubles                          ...    18255.005 sec ( 92.1% of (EOM))
  Build Hamiltonian                    ...       94.596 sec (  0.5% of (EOM))
  Diagonalize Hamiltonian              ...        5.888 sec (  0.0% of (EOM))
  Ritz vectors                         ...      204.079 sec (  1.0% of (EOM))
  Residual vectors                     ...      218.550 sec (  1.1% of (EOM))
One-particle density matrix            ...        7.973 sec (  0.0%)


Maximum memory used throughout the entire MDCI-calculation: 60200.4 MB

-------------------------   --------------------
FINAL SINGLE POINT ENERGY      -938.886476071212
-------------------------   --------------------


                            ***************************************
                            *     ORCA property calculations      *
                            ***************************************

                                    ---------------------
                                    Active property flags
                                    ---------------------
   (+) Dipole Moment


------------------------------------------------------------------------------
                       ORCA ELECTRIC PROPERTIES CALCULATION
------------------------------------------------------------------------------

Dipole Moment Calculation                       ... on
Quadrupole Moment Calculation                   ... off
Polarizability Calculation                      ... off
GBWName                                         ... Ph-Acr_2_STEOM-DLPNO-CCSD_DEF2-TZVP_RIJCOSX_SMD.gbw
Electron density                                ... Ph-Acr_2_STEOM-DLPNO-CCSD_DEF2-TZVP_RIJCOSX_SMD.scfp
The origin for moment calculation is the CENTER OF MASS  = (-0.005495, -0.021427 -0.001134)

-------------
DIPOLE MOMENT
-------------
                                X             Y             Z
Electronic contribution:     -2.99727      -2.10299      -0.18100
Nuclear contribution   :      0.87379       3.40696       0.18037
                        -----------------------------------------
Total Dipole Moment    :     -2.12347       1.30397      -0.00063
                        -----------------------------------------
Magnitude (a.u.)       :      2.49188
Magnitude (Debye)      :      6.33387



--------------------
Rotational spectrum 
--------------------
 
Rotational constants in cm-1:     0.011636     0.009229     0.005463 
Rotational constants in MHz :   348.841277   276.680661   163.762894 

 Dipole components along the rotational axes: 
x,y,z [a.u.] :     2.127651     1.297142     0.003106 
x,y,z [Debye]:     5.408058     3.297074     0.007896 

 

                           *** MDCI DENSITY ***

------------------------------------------------------------------------------
                       ORCA ELECTRIC PROPERTIES CALCULATION
------------------------------------------------------------------------------

Dipole Moment Calculation                       ... on
Quadrupole Moment Calculation                   ... off
Polarizability Calculation                      ... off
GBWName                                         ... Ph-Acr_2_STEOM-DLPNO-CCSD_DEF2-TZVP_RIJCOSX_SMD.gbw
Electron density                                ... Ph-Acr_2_STEOM-DLPNO-CCSD_DEF2-TZVP_RIJCOSX_SMD.mdcip
The origin for moment calculation is the CENTER OF MASS  = (-0.005495, -0.021427 -0.001134)

-------------
DIPOLE MOMENT
-------------
                                X             Y             Z
Electronic contribution:     -3.19405      -2.07820      -0.17199
Nuclear contribution   :      0.87379       3.40696       0.18037
                        -----------------------------------------
Total Dipole Moment    :     -2.32025       1.32876       0.00837
                        -----------------------------------------
Magnitude (a.u.)       :      2.67381
Magnitude (Debye)      :      6.79629



--------------------
Rotational spectrum 
--------------------
 
Rotational constants in cm-1:     0.011636     0.009229     0.005463 
Rotational constants in MHz :   348.841277   276.680661   163.762894 

 Dipole components along the rotational axes: 
x,y,z [a.u.] :     2.324496     1.321297     0.012417 
x,y,z [Debye]:     5.908400     3.358471     0.031562 

 

Timings for individual modules:

Sum of individual times         ...    38029.382 sec (= 633.823 min)
GTO integral calculation        ...        1.855 sec (=   0.031 min)   0.0 %
SCF iterations                  ...     1485.932 sec (=  24.766 min)   3.9 %
MDCI module                     ...    36541.595 sec (= 609.027 min)  96.1 %
                             ****ORCA TERMINATED NORMALLY****
TOTAL RUN TIME: 0 days 10 hours 33 minutes 51 seconds 964 msec
