
                                 *****************
                                 * O   R   C   A *
                                 *****************

                                            #,                                       
                                            ###                                      
                                            ####                                     
                                            #####                                    
                                            ######                                   
                                           ########,                                 
                                     ,,################,,,,,                         
                               ,,#################################,,                 
                          ,,##########################################,,             
                       ,#########################################, ''#####,          
                    ,#############################################,,   '####,        
                  ,##################################################,,,,####,       
                ,###########''''           ''''###############################       
              ,#####''   ,,,,##########,,,,          '''####'''          '####       
            ,##' ,,,,###########################,,,                        '##       
           ' ,,###''''                  '''############,,,                           
         ,,##''                                '''############,,,,        ,,,,,,###''
      ,#''                                            '''#######################'''  
     '                                                          ''''####''''         
             ,#######,   #######,   ,#######,      ##                                
            ,#'     '#,  ##    ##  ,#'     '#,    #''#        ######   ,####,        
            ##       ##  ##   ,#'  ##            #'  '#       #        #'  '#        
            ##       ##  #######   ##           ,######,      #####,   #    #        
            '#,     ,#'  ##    ##  '#,     ,#' ,#      #,         ##   #,  ,#        
             '#######'   ##     ##  '#######'  #'      '#     #####' # '####'        



                  #######################################################
                  #                        -***-                        #
                  #          Department of theory and spectroscopy      #
                  #    Directorship and core code : Frank Neese         #
                  #        Max Planck Institute fuer Kohlenforschung    #
                  #                Kaiser Wilhelm Platz 1               #
                  #                 D-45470 Muelheim/Ruhr               #
                  #                      Germany                        #
                  #                                                     #
                  #                  All rights reserved                #
                  #                        -***-                        #
                  #######################################################


                         Program Version 5.0.2 -  RELEASE  -


 With contributions from (in alphabetic order):
   Daniel Aravena         : Magnetic Suceptibility
   Michael Atanasov       : Ab Initio Ligand Field Theory (pilot matlab implementation)
   Alexander A. Auer      : GIAO ZORA, VPT2 properties, NMR spectrum
   Ute Becker             : Parallelization
   Giovanni Bistoni       : ED, misc. LED, open-shell LED, HFLD
   Martin Brehm           : Molecular dynamics
   Dmytro Bykov           : SCF Hessian
   Vijay G. Chilkuri      : MRCI spin determinant printing, contributions to CSF-ICE
   Dipayan Datta          : RHF DLPNO-CCSD density
   Achintya Kumar Dutta   : EOM-CC, STEOM-CC
   Dmitry Ganyushin       : Spin-Orbit,Spin-Spin,Magnetic field MRCI
   Miquel Garcia          : C-PCM and meta-GGA Hessian, CC/C-PCM, Gaussian charge scheme
   Yang Guo               : DLPNO-NEVPT2, F12-NEVPT2, CIM, IAO-localization
   Andreas Hansen         : Spin unrestricted coupled pair/coupled cluster methods
   Benjamin Helmich-Paris : MC-RPA, TRAH-SCF, COSX integrals
   Lee Huntington         : MR-EOM, pCC
   Robert Izsak           : Overlap fitted RIJCOSX, COSX-SCS-MP3, EOM
   Marcus Kettner         : VPT2
   Christian Kollmar      : KDIIS, OOCD, Brueckner-CCSD(T), CCSD density, CASPT2, CASPT2-K
   Simone Kossmann        : Meta GGA functionals, TD-DFT gradient, OOMP2, MP2 Hessian
   Martin Krupicka        : Initial AUTO-CI
   Lucas Lang             : DCDCAS
   Marvin Lechner         : AUTO-CI (C++ implementation), FIC-MRCC
   Dagmar Lenk            : GEPOL surface, SMD
   Dimitrios Liakos       : Extrapolation schemes; Compound Job, initial MDCI parallelization
   Dimitrios Manganas     : Further ROCIS development; embedding schemes
   Dimitrios Pantazis     : SARC Basis sets
   Anastasios Papadopoulos: AUTO-CI, single reference methods and gradients
   Taras Petrenko         : DFT Hessian,TD-DFT gradient, ASA, ECA, R-Raman, ABS, FL, XAS/XES, NRVS
   Peter Pinski           : DLPNO-MP2, DLPNO-MP2 Gradient
   Christoph Reimann      : Effective Core Potentials
   Marius Retegan         : Local ZFS, SOC
   Christoph Riplinger    : Optimizer, TS searches, QM/MM, DLPNO-CCSD(T), (RO)-DLPNO pert. Triples
   Tobias Risthaus        : Range-separated hybrids, TD-DFT gradient, RPA, STAB
   Michael Roemelt        : Original ROCIS implementation
   Masaaki Saitow         : Open-shell DLPNO-CCSD energy and density
   Barbara Sandhoefer     : DKH picture change effects
   Avijit Sen             : IP-ROCIS
   Kantharuban Sivalingam : CASSCF convergence, NEVPT2, FIC-MRCI
   Bernardo de Souza      : ESD, SOC TD-DFT
   Georgi Stoychev        : AutoAux, RI-MP2 NMR, DLPNO-MP2 response
   Willem Van den Heuvel  : Paramagnetic NMR
   Boris Wezisla          : Elementary symmetry handling
   Frank Wennmohs         : Technical directorship


 We gratefully acknowledge several colleagues who have allowed us to
 interface, adapt or use parts of their codes:
   Stefan Grimme, W. Hujo, H. Kruse, P. Pracht,  : VdW corrections, initial TS optimization,
                  C. Bannwarth, S. Ehlert          DFT functionals, gCP, sTDA/sTD-DF
   Ed Valeev, F. Pavosevic, A. Kumar             : LibInt (2-el integral package), F12 methods
   Garnet Chan, S. Sharma, J. Yang, R. Olivares  : DMRG
   Ulf Ekstrom                                   : XCFun DFT Library
   Mihaly Kallay                                 : mrcc  (arbitrary order and MRCC methods)
   Jiri Pittner, Ondrej Demel                    : Mk-CCSD
   Frank Weinhold                                : gennbo (NPA and NBO analysis)
   Christopher J. Cramer and Donald G. Truhlar   : smd solvation model
   Lars Goerigk                                  : TD-DFT with DH, B97 family of functionals
   V. Asgeirsson, H. Jonsson                     : NEB implementation
   FAccTs GmbH                                   : IRC, NEB, NEB-TS, DLPNO-Multilevel, CI-OPT
                                                   MM, QMMM, 2- and 3-layer-ONIOM, Crystal-QMMM,
                                                   LR-CPCM, SF, NACMEs, symmetry and pop. for TD-DFT,
                                                   nearIR, NL-DFT gradient (VV10), updates on ESD,
                                                   ML-optimized integration grids
   S Lehtola, MJT Oliveira, MAL Marques          : LibXC Library
   Liviu Ungur et al                             : ANISO software


 Your calculation uses the libint2 library for the computation of 2-el integrals
 For citations please refer to: http://libint.valeyev.net

 Your ORCA version has been built with support for libXC version: 5.1.0
 For citations please refer to: https://tddft.org/programs/libxc/

 This ORCA versions uses:
   CBLAS   interface :  Fast vector & matrix operations
   LAPACKE interface :  Fast linear algebra routines
   SCALAPACK package :  Parallel linear algebra routines
   Shared memory     :  Shared parallel matrices
   BLAS/LAPACK       :  OpenBLAS 0.3.15  USE64BITINT DYNAMIC_ARCH NO_AFFINITY Zen SINGLE_THREADED
        Core in use  :  Zen
   Copyright (c) 2011-2014, The OpenBLAS Project


Your calculation utilizes the SMD solvation module
Please cite in your paper:
A.V. Marenich, C.J. Cramer, D.G. Truhlar J. Phys. Chem. B, 113, (2009), 6378 

================================================================================

----- Orbital basis set information -----
Your calculation utilizes the basis: def2-TZVP
   F. Weigend and R. Ahlrichs, Phys. Chem. Chem. Phys. 7, 3297 (2005).

----- AuxJ basis set information -----
Your calculation utilizes the auxiliary basis: def2/J
   F. Weigend, Phys. Chem. Chem. Phys. 8, 1057 (2006).

----- AuxC basis set information -----
Your calculation utilizes the auxiliary basis: def2-TZVP/C
  H-La, Hf-Rn : A. Hellweg, C. Hattig, S. Hofener and W. Klopper, Theor. Chem. Acc. 117, 587 (2007).
        Ce-Lu : J. Chmela and M. E. Harding, Mol. Phys. (2018).

================================================================================
                                        WARNINGS
                       Please study these warnings very carefully!
================================================================================

INFO   : Checking CIS options ...
  ===> : (D) CORRECTION FOUND - SETTING MODE=3
  ===> : JK MODE FOUND - ACTIVATING RI-MP2 CODE
  ===> : MP2 AND CIS FOUND - CHECKING
WARNING: CIS(D) and MP2 runs must have the same orbital window
  ===> : adjusting orbital windows

WARNING: No MP2 level density has been requested!
         To caclulate MP2 level properties use
         %mp2 Density relaxed end
         or
         %mp2 Density unrelaxed end
         Otherwise for double-hybrid DFT only the energy is correct!

WARNING: The frozen-core approximation is turned on by default for 
         the MP2 part of double-hybrid DFT.

WARNING:  You are using a Range-Separated Double Hybrid functional with Doubles Correction 
          Changing Mode to RPA_AOINTS 


WARNING: CIS/ROCIS methods need fully converged wavefunctions
  ===> : Setting SCFConvForced true
         You can overwrite this default with %scf ConvForced false 


INFO   : the flag for use of the SHARK integral package has been found!

================================================================================
                                       INPUT FILE
================================================================================
NAME = Ph-Acr_2_M06L_def2TZVP_coords.inp
|  1> %maxcore 3200
|  2> %pal
|  3>  nprocs= 8
|  4> end
|  5> ! RI-wB2PLYP def2-TZVP def2/J def2-TZVP/C RIJCOSX CPCM TightSCF
|  6> %TDDFT DCORR 1
|  7>    NROOTS   30
|  8> 
|  9>    TDA      FALSE
| 10> END
| 11> 
| 12> %CPCM
| 13>    SMD          TRUE
| 14>    SMDsolvent   "ACETONITRILE"
| 15> END
| 16>    
| 17> 
| 18> * xyz 1 1
| 19> C                  -3.14769200   -3.00562300   -0.16049300
| 20> C                  -3.40382700   -1.66285200   -0.08385600
| 21> C                  -2.34161900   -0.74416600    0.00500800
| 22> C                  -1.00147800   -1.22363900   -0.02194200
| 23> C                  -0.78893000   -2.62356500   -0.07962500
| 24> C                  -1.83406400   -3.49759400   -0.14343500
| 25> C                   0.07741800   -0.31461000    0.00914600
| 26> C                  -0.18355100    1.06034500   -0.00273200
| 27> C                  -1.54795000    1.51382800    0.02087000
| 28> C                  -1.84226300    2.88158700   -0.04765200
| 29> H                  -2.86102700    3.22639700   -0.08787400
| 30> C                  -0.82096900    3.79298100   -0.10894600
| 31> C                   0.51812500    3.40910100   -0.09534500
| 32> C                   0.84611900    2.07411700   -0.04664800
| 33> H                  -4.42544500   -1.32196100   -0.12379800
| 34> H                   0.22672800   -2.99208100   -0.08195200
| 35> H                  -1.65307300   -4.56252100   -0.19312900
| 36> H                  -1.06171900    4.84616800   -0.17618200
| 37> H                   1.29115300    4.16070500   -0.13633000
| 38> N                  -2.56494300    0.60043800    0.10866500
| 39> C                  -3.92831600    1.09003600    0.31949500
| 40> H                  -3.90316400    1.94415000    0.98608400
| 41> H                  -4.39038400    1.37603500   -0.62407400
| 42> H                  -4.52008400    0.32179100    0.79708900
| 43> C                   1.44535500   -0.88951100    0.04048300
| 44> C                   2.09452900   -1.22643500   -1.14356200
| 45> C                   2.06418300   -1.14418400    1.26035400
| 46> C                   3.36138500   -1.78761300   -1.10590400
| 47> C                   3.33046700   -1.70794200    1.29249100
| 48> C                   3.98425000   -2.02710300    0.11094100
| 49> H                   3.86139700   -2.04150200   -2.03214800
| 50> H                   3.80588700   -1.90009700    2.24614300
| 51> H                   1.60736800   -1.03816300   -2.09270500
| 52> H                   1.55457200   -0.89202900    2.18241000
| 53> H                   4.97339000   -2.46606200    0.13829300
| 54> O                   2.10431100    1.63501100   -0.04875600
| 55> C                   3.16204100    2.58601200   -0.11067600
| 56> H                   3.10759500    3.17709500   -1.02618200
| 57> H                   3.14703300    3.24955700    0.75544000
| 58> H                   4.07934700    2.00445900   -0.10715100
| 59> H                  -3.97872600   -3.69411500   -0.24236800
| 60> *
| 61> 
| 62> 
| 63>                          ****END OF INPUT****
================================================================================

                       ****************************
                       * Single Point Calculation *
                       ****************************

---------------------------------
CARTESIAN COORDINATES (ANGSTROEM)
---------------------------------
  C     -3.147692   -3.005623   -0.160493
  C     -3.403827   -1.662852   -0.083856
  C     -2.341619   -0.744166    0.005008
  C     -1.001478   -1.223639   -0.021942
  C     -0.788930   -2.623565   -0.079625
  C     -1.834064   -3.497594   -0.143435
  C      0.077418   -0.314610    0.009146
  C     -0.183551    1.060345   -0.002732
  C     -1.547950    1.513828    0.020870
  C     -1.842263    2.881587   -0.047652
  H     -2.861027    3.226397   -0.087874
  C     -0.820969    3.792981   -0.108946
  C      0.518125    3.409101   -0.095345
  C      0.846119    2.074117   -0.046648
  H     -4.425445   -1.321961   -0.123798
  H      0.226728   -2.992081   -0.081952
  H     -1.653073   -4.562521   -0.193129
  H     -1.061719    4.846168   -0.176182
  H      1.291153    4.160705   -0.136330
  N     -2.564943    0.600438    0.108665
  C     -3.928316    1.090036    0.319495
  H     -3.903164    1.944150    0.986084
  H     -4.390384    1.376035   -0.624074
  H     -4.520084    0.321791    0.797089
  C      1.445355   -0.889511    0.040483
  C      2.094529   -1.226435   -1.143562
  C      2.064183   -1.144184    1.260354
  C      3.361385   -1.787613   -1.105904
  C      3.330467   -1.707942    1.292491
  C      3.984250   -2.027103    0.110941
  H      3.861397   -2.041502   -2.032148
  H      3.805887   -1.900097    2.246143
  H      1.607368   -1.038163   -2.092705
  H      1.554572   -0.892029    2.182410
  H      4.973390   -2.466062    0.138293
  O      2.104311    1.635011   -0.048756
  C      3.162041    2.586012   -0.110676
  H      3.107595    3.177095   -1.026182
  H      3.147033    3.249557    0.755440
  H      4.079347    2.004459   -0.107151
  H     -3.978726   -3.694115   -0.242368

----------------------------
CARTESIAN COORDINATES (A.U.)
----------------------------
  NO LB      ZA    FRAG     MASS         X           Y           Z
   0 C     6.0000    0    12.011   -5.948276   -5.679804   -0.303288
   1 C     6.0000    0    12.011   -6.432301   -3.142335   -0.158465
   2 C     6.0000    0    12.011   -4.425019   -1.406270    0.009464
   3 C     6.0000    0    12.011   -1.892519   -2.312343   -0.041464
   4 C     6.0000    0    12.011   -1.490862   -4.957819   -0.150469
   5 C     6.0000    0    12.011   -3.465879   -6.609495   -0.271053
   6 C     6.0000    0    12.011    0.146299   -0.594527    0.017283
   7 C     6.0000    0    12.011   -0.346861    2.003762   -0.005163
   8 C     6.0000    0    12.011   -2.925202    2.860720    0.039439
   9 C     6.0000    0    12.011   -3.481373    5.445410   -0.090049
  10 H     1.0000    0     1.008   -5.406557    6.097007   -0.166058
  11 C     6.0000    0    12.011   -1.551407    7.167695   -0.205878
  12 C     6.0000    0    12.011    0.979114    6.442267   -0.180176
  13 C     6.0000    0    12.011    1.598933    3.919513   -0.088152
  14 H     1.0000    0     1.008   -8.362879   -2.498144   -0.233944
  15 H     1.0000    0     1.008    0.428454   -5.654214   -0.154867
  16 H     1.0000    0     1.008   -3.123855   -8.621915   -0.364961
  17 H     1.0000    0     1.008   -2.006358    9.157930   -0.332936
  18 H     1.0000    0     1.008    2.439926    7.862593   -0.257626
  19 N     7.0000    0    14.007   -4.847040    1.134663    0.205347
  20 C     6.0000    0    12.011   -7.423441    2.059870    0.603758
  21 H     1.0000    0     1.008   -7.375911    3.673911    1.863429
  22 H     1.0000    0     1.008   -8.296623    2.600329   -1.179329
  23 H     1.0000    0     1.008   -8.541721    0.608097    1.506280
  24 C     6.0000    0    12.011    2.731325   -1.680932    0.076502
  25 C     6.0000    0    12.011    3.958086   -2.317626   -2.161019
  26 C     6.0000    0    12.011    3.900741   -2.162194    2.381724
  27 C     6.0000    0    12.011    6.352097   -3.378099   -2.089856
  28 C     6.0000    0    12.011    6.293671   -3.227543    2.442454
  29 C     6.0000    0    12.011    7.529141   -3.830670    0.209648
  30 H     1.0000    0     1.008    7.296983   -3.857880   -3.840203
  31 H     1.0000    0     1.008    7.192084   -3.590663    4.244595
  32 H     1.0000    0     1.008    3.037485   -1.961844   -3.954639
  33 H     1.0000    0     1.008    2.937715   -1.685691    4.124157
  34 H     1.0000    0     1.008    9.398345   -4.660182    0.261336
  35 O     8.0000    0    15.999    3.976571    3.089723   -0.092135
  36 C     6.0000    0    12.011    5.975392    4.886854   -0.209147
  37 H     1.0000    0     1.008    5.872503    6.003839   -1.939203
  38 H     1.0000    0     1.008    5.947031    6.140773    1.427575
  39 H     1.0000    0     1.008    7.708849    3.787879   -0.202486
  40 H     1.0000    0     1.008   -7.518703   -6.980866   -0.458009

--------------------------------
INTERNAL COORDINATES (ANGSTROEM)
--------------------------------
 C      0   0   0     0.000000000000     0.00000000     0.00000000
 C      1   0   0     1.369128308974     0.00000000     0.00000000
 C      2   1   0     1.407183929824   120.17249672     0.00000000
 C      3   2   1     1.423586513040   119.30898765     1.67382950
 C      4   3   2     1.417143883404   118.33830249   357.30088506
 C      5   4   3     1.363929428855   121.33279718     1.69466601
 C      4   3   2     1.411140235909   120.15622723   177.32619597
 C      7   4   3     1.399552484857   119.34768818   356.74331416
 C      8   7   4     1.437980708109   119.11759366     3.06930460
 C      9   8   7     1.400742691765   120.43049843   182.72569794
 H     10   9   8     1.076286129744   120.89972566   176.43964956
 C     10   9   8     1.370196121768   119.67447768   358.61324630
 C     12  10   9     1.393097836635   122.19097807   359.49014976
 C     13  12  10     1.375548524081   119.80043640     1.36526430
 H      2   1   3     1.077731587720   119.04384795   178.10476297
 H      5   4   3     1.080449272363   118.55548816   181.10428832
 H      6   5   4     1.081340256832   120.33035987   179.61558538
 H     12  10   9     1.082443577821   118.95860946   179.11471844
 H     13  12  10     1.078962757386   119.75924731   180.55472846
 N      3   2   1     1.366959509072   121.57704632   181.27324341
 C     20   3   2     1.463878897871   119.47607607     8.64244444
 H     21  20   3     1.083736242368   109.30269783   142.91307114
 H     21  20   3     1.088863959540   110.99372273   263.94802511
 H     21  20   3     1.080965205122   109.62080070    25.29830373
 C      7   4   3     1.484164682014   117.10483100   177.29817145
 C     25   7   4     1.391728143740   120.38015002    86.37999664
 C     25   7   4     1.391363247737   119.95677315   268.96435196
 C     26  25   7     1.386096316056   120.08100334   181.28479280
 C     27  25   7     1.386481531788   120.06309663   178.60926828
 C     29  27  25     1.387572108941   120.27244518   359.67846818
 H     28  26  25     1.082774017051   119.58758904   180.34478342
 H     29  27  25     1.082774148901   119.57650823   179.82136467
 H     26  25   7     1.083348799027   119.57434474     1.88534927
 H     27  25   7     1.083269487469   119.63196516   358.10373821
 H     30  29  27     1.082511466537   120.15129790   179.92398822
 O     14  13  12     1.332616085662   123.01529572   179.09024078
 C     36  14  13     1.423737946850   118.77720099   359.68434873
 H     37  36  14     1.091097940536   111.17857181   299.15852408
 H     37  36  14     1.091180155861   111.18908772    61.60662398
 H     37  36  14     1.086124585427   105.64387241   180.37473525
 H      1   2   3     1.082285664159   118.97877283   180.86018672

---------------------------
INTERNAL COORDINATES (A.U.)
---------------------------
 C      0   0   0     0.000000000000     0.00000000     0.00000000
 C      1   0   0     2.587277546160     0.00000000     0.00000000
 C      2   1   0     2.659192247423   120.17249672     0.00000000
 C      3   2   1     2.690188637590   119.30898765     1.67382950
 C      4   3   2     2.678013831995   118.33830249   357.30088506
 C      5   4   3     2.577453086532   121.33279718     1.69466601
 C      4   3   2     2.666668582425   120.15622723   177.32619597
 C      7   4   3     2.644770906429   119.34768818   356.74331416
 C      8   7   4     2.717389724188   119.11759366     3.06930460
 C      9   8   7     2.647020071528   120.43049843   182.72569794
 H     10   9   8     2.033886026955   120.89972566   176.43964956
 C     10   9   8     2.589295419902   119.67447768   358.61324630
 C     12  10   9     2.632573388998   122.19097807   359.49014976
 C     13  12  10     2.599409994432   119.80043640     1.36526430
 H      2   1   3     2.036617546667   119.04384795   178.10476297
 H      5   4   3     2.041753226360   118.55548816   181.10428832
 H      6   5   4     2.043436942997   120.33035987   179.61558538
 H     12  10   9     2.045521917503   118.95860946   179.11471844
 H     13  12  10     2.038944120159   119.75924731   180.55472846
 N      3   2   1     2.583179108305   121.57704632   181.27324341
 C     20   3   2     2.766330210203   119.47607607     8.64244444
 H     21  20   3     2.047964699480   109.30269783   142.91307114
 H     21  20   3     2.057654680628   110.99372273   263.94802511
 H     21  20   3     2.042728197979   109.62080070    25.29830373
 C      7   4   3     2.804664786646   117.10483100   177.29817145
 C     25   7   4     2.629985044539   120.38015002    86.37999664
 C     25   7   4     2.629295491027   119.95677315   268.96435196
 C     26  25   7     2.619342432583   120.08100334   181.28479280
 C     27  25   7     2.620070384819   120.06309663   178.60926828
 C     29  27  25     2.622131276965   120.27244518   359.67846818
 H     28  26  25     2.046146357152   119.58758904   180.34478342
 H     29  27  25     2.046146606313   119.57650823   179.82136467
 H     26  25   7     2.047232537674   119.57434474     1.88534927
 H     27  25   7     2.047082660550   119.63196516   358.10373821
 H     30  29  27     2.045650208585   120.15129790   179.92398822
 O     14  13  12     2.518279443559   123.01529572   179.09024078
 C     36  14  13     2.690474806018   118.77720099   359.68434873
 H     37  36  14     2.061876292898   111.17857181   299.15852408
 H     37  36  14     2.062031657347   111.18908772    61.60662398
 H     37  36  14     2.052478013777   105.64387241   180.37473525
 H      1   2   3     2.045223503930   118.97877283   180.86018672

---------------------
BASIS SET INFORMATION
---------------------
There are 4 groups of distinct atoms

 Group   1 Type C   : 11s6p2d1f contracted to 5s3p2d1f pattern {62111/411/11/1}
 Group   2 Type H   : 5s1p contracted to 3s1p pattern {311/1}
 Group   3 Type N   : 11s6p2d1f contracted to 5s3p2d1f pattern {62111/411/11/1}
 Group   4 Type O   : 11s6p2d1f contracted to 5s3p2d1f pattern {62111/411/11/1}

Atom   0C    basis set group =>   1
Atom   1C    basis set group =>   1
Atom   2C    basis set group =>   1
Atom   3C    basis set group =>   1
Atom   4C    basis set group =>   1
Atom   5C    basis set group =>   1
Atom   6C    basis set group =>   1
Atom   7C    basis set group =>   1
Atom   8C    basis set group =>   1
Atom   9C    basis set group =>   1
Atom  10H    basis set group =>   2
Atom  11C    basis set group =>   1
Atom  12C    basis set group =>   1
Atom  13C    basis set group =>   1
Atom  14H    basis set group =>   2
Atom  15H    basis set group =>   2
Atom  16H    basis set group =>   2
Atom  17H    basis set group =>   2
Atom  18H    basis set group =>   2
Atom  19N    basis set group =>   3
Atom  20C    basis set group =>   1
Atom  21H    basis set group =>   2
Atom  22H    basis set group =>   2
Atom  23H    basis set group =>   2
Atom  24C    basis set group =>   1
Atom  25C    basis set group =>   1
Atom  26C    basis set group =>   1
Atom  27C    basis set group =>   1
Atom  28C    basis set group =>   1
Atom  29C    basis set group =>   1
Atom  30H    basis set group =>   2
Atom  31H    basis set group =>   2
Atom  32H    basis set group =>   2
Atom  33H    basis set group =>   2
Atom  34H    basis set group =>   2
Atom  35O    basis set group =>   4
Atom  36C    basis set group =>   1
Atom  37H    basis set group =>   2
Atom  38H    basis set group =>   2
Atom  39H    basis set group =>   2
Atom  40H    basis set group =>   2
---------------------------------
AUXILIARY/J BASIS SET INFORMATION
---------------------------------
There are 4 groups of distinct atoms

 Group   1 Type C   : 12s5p4d2f1g contracted to 6s4p3d1f1g pattern {711111/2111/211/2/1}
 Group   2 Type H   : 5s2p1d contracted to 3s1p1d pattern {311/2/1}
 Group   3 Type N   : 12s5p4d2f1g contracted to 6s4p3d1f1g pattern {711111/2111/211/2/1}
 Group   4 Type O   : 12s5p4d2f1g contracted to 6s4p3d1f1g pattern {711111/2111/211/2/1}

Atom   0C    basis set group =>   1
Atom   1C    basis set group =>   1
Atom   2C    basis set group =>   1
Atom   3C    basis set group =>   1
Atom   4C    basis set group =>   1
Atom   5C    basis set group =>   1
Atom   6C    basis set group =>   1
Atom   7C    basis set group =>   1
Atom   8C    basis set group =>   1
Atom   9C    basis set group =>   1
Atom  10H    basis set group =>   2
Atom  11C    basis set group =>   1
Atom  12C    basis set group =>   1
Atom  13C    basis set group =>   1
Atom  14H    basis set group =>   2
Atom  15H    basis set group =>   2
Atom  16H    basis set group =>   2
Atom  17H    basis set group =>   2
Atom  18H    basis set group =>   2
Atom  19N    basis set group =>   3
Atom  20C    basis set group =>   1
Atom  21H    basis set group =>   2
Atom  22H    basis set group =>   2
Atom  23H    basis set group =>   2
Atom  24C    basis set group =>   1
Atom  25C    basis set group =>   1
Atom  26C    basis set group =>   1
Atom  27C    basis set group =>   1
Atom  28C    basis set group =>   1
Atom  29C    basis set group =>   1
Atom  30H    basis set group =>   2
Atom  31H    basis set group =>   2
Atom  32H    basis set group =>   2
Atom  33H    basis set group =>   2
Atom  34H    basis set group =>   2
Atom  35O    basis set group =>   4
Atom  36C    basis set group =>   1
Atom  37H    basis set group =>   2
Atom  38H    basis set group =>   2
Atom  39H    basis set group =>   2
Atom  40H    basis set group =>   2
---------------------------------
AUXILIARY/C BASIS SET INFORMATION
---------------------------------
There are 4 groups of distinct atoms

 Group   1 Type C   : 8s6p5d3f1g contracted to 8s6p4d3f1g pattern {11111111/111111/2111/111/1}
 Group   2 Type H   : 4s3p2d contracted to 4s2p1d pattern {1111/21/2}
 Group   3 Type N   : 8s6p5d3f1g contracted to 8s6p4d3f1g pattern {11111111/111111/2111/111/1}
 Group   4 Type O   : 8s6p5d3f1g contracted to 8s6p4d3f1g pattern {11111111/111111/2111/111/1}

Atom   0C    basis set group =>   1
Atom   1C    basis set group =>   1
Atom   2C    basis set group =>   1
Atom   3C    basis set group =>   1
Atom   4C    basis set group =>   1
Atom   5C    basis set group =>   1
Atom   6C    basis set group =>   1
Atom   7C    basis set group =>   1
Atom   8C    basis set group =>   1
Atom   9C    basis set group =>   1
Atom  10H    basis set group =>   2
Atom  11C    basis set group =>   1
Atom  12C    basis set group =>   1
Atom  13C    basis set group =>   1
Atom  14H    basis set group =>   2
Atom  15H    basis set group =>   2
Atom  16H    basis set group =>   2
Atom  17H    basis set group =>   2
Atom  18H    basis set group =>   2
Atom  19N    basis set group =>   3
Atom  20C    basis set group =>   1
Atom  21H    basis set group =>   2
Atom  22H    basis set group =>   2
Atom  23H    basis set group =>   2
Atom  24C    basis set group =>   1
Atom  25C    basis set group =>   1
Atom  26C    basis set group =>   1
Atom  27C    basis set group =>   1
Atom  28C    basis set group =>   1
Atom  29C    basis set group =>   1
Atom  30H    basis set group =>   2
Atom  31H    basis set group =>   2
Atom  32H    basis set group =>   2
Atom  33H    basis set group =>   2
Atom  34H    basis set group =>   2
Atom  35O    basis set group =>   4
Atom  36C    basis set group =>   1
Atom  37H    basis set group =>   2
Atom  38H    basis set group =>   2
Atom  39H    basis set group =>   2
Atom  40H    basis set group =>   2


           ************************************************************
           *        Program running with 8 parallel MPI-processes     *
           *              working on a common directory               *
           ************************************************************
------------------------------------------------------------------------------
                           ORCA GTO INTEGRAL CALCULATION
                           -- RI-GTO INTEGRALS CHOSEN --
------------------------------------------------------------------------------
------------------------------------------------------------------------------
                   ___                                                        
                  /   \      - P O W E R E D   B Y -                         
                 /     \                                                     
                 |  |  |   _    _      __       _____    __    __             
                 |  |  |  | |  | |    /  \     |  _  \  |  |  /  |          
                  \  \/   | |  | |   /    \    | | | |  |  | /  /          
                 / \  \   | |__| |  /  /\  \   | |_| |  |  |/  /          
                |  |  |   |  __  | /  /__\  \  |    /   |      \           
                |  |  |   | |  | | |   __   |  |    \   |  |\   \          
                \     /   | |  | | |  |  |  |  | |\  \  |  | \   \       
                 \___/    |_|  |_| |__|  |__|  |_| \__\ |__|  \__/        
                                                                              
                      - O R C A' S   B I G   F R I E N D -                    
                                      &                                       
                       - I N T E G R A L  F E E D E R -                       
                                                                              
 v1 FN, 2020, v2 2021                                                         
------------------------------------------------------------------------------


Reading SHARK input file Ph-Acr_2_M06L_def2TZVP_coords.SHARKINP.tmp ... ok
----------------------
SHARK INTEGRAL PACKAGE
----------------------

Number of atoms                             ...     41
Number of basis functions                   ...    821
Number of shells                            ...    325
Maximum angular momentum                    ...      3
Integral batch strategy                     ... SHARK/LIBINT Hybrid
RI-J (if used) integral strategy            ... SPLIT-RIJ (Revised 2003 algorithm where possible)
Printlevel                                  ...      1
Contraction scheme used                     ... SEGMENTED contraction
Coulomb Range Separation                    ... NOT USED
Exchange Range Separation                   ... Long Range
   Mu parameter                             ...  0.300000
   Scaling (regular/separated)              ...  0.530000  0.470000
Finite Nucleus Model                        ... NOT USED
Auxiliary Coulomb fitting basis             ... AVAILABLE
   # of basis functions in Aux-J            ...   1325
   # of shells in Aux-J                     ...    435
   Maximum angular momentum in Aux-J        ...      4
Auxiliary J/K fitting basis                 ... NOT available
Auxiliary Correlation fitting basis         ... AVAILABLE
   # of basis functions in Aux-C            ...   2018
   # of shells in Aux-C                     ...    632
   Maximum angular momentum in Aux-C        ...      4
Auxiliary 'external' fitting basis          ... NOT available
Integral threshold                          ...     2.500000e-11
Primitive cut-off                           ...     2.500000e-12
Primitive pair pre-selection threshold      ...     2.500000e-12

Calculating pre-screening integrals         ... done (  0.1 sec) Dimension = 325
Organizing shell pair data                  ... done (  0.2 sec)
Shell pair information
Total number of shell pairs                 ...     52975
Shell pairs after pre-screening             ...     39344
Total number of primitive shell pairs       ...    162156
Primitive shell pairs kept                  ...     80294
          la=0 lb=0:  10096 shell pairs
          la=1 lb=0:  11257 shell pairs
          la=1 lb=1:   3136 shell pairs
          la=2 lb=0:   5699 shell pairs
          la=2 lb=1:   3167 shell pairs
          la=2 lb=2:    843 shell pairs
          la=3 lb=0:   2648 shell pairs
          la=3 lb=1:   1523 shell pairs
          la=3 lb=2:    774 shell pairs
          la=3 lb=3:    201 shell pairs

Calculating one electron integrals          ... done (  0.0 sec)
Calculating RI/J V-Matrix + Cholesky decomp.... done (  0.1 sec)
Calculating RI/C V-Matrix + Cholesky decomp.... done (  0.1 sec)
Calculating Nuclear repulsion               ... done (  0.0 sec) ENN=   1858.365666304111 Eh

SHARK setup successfully completed in   0.9 seconds

Maximum memory used throughout the entire GTOINT-calculation: 61.4 MB


           ************************************************************
           *        Program running with 8 parallel MPI-processes     *
           *              working on a common directory               *
           ************************************************************
-------------------------------------------------------------------------------
                                 ORCA SCF
-------------------------------------------------------------------------------

------------
SCF SETTINGS
------------
Hamiltonian:
 Density Functional     Method          .... DFT(GTOs)
 Exchange Functional    Exchange        .... WB88
 Correlation Functional Correlation     .... LYP
 LDA part of GGA corr.  LDAOpt          .... VWN-3
 Gradients option       PostSCFGGA      .... off
 Hybrid DFT is turned on
   Fraction HF Exchange ScalHFX         ....  0.530000
   Scaling of DF-GGA-X  ScalDFX         ....  0.000000
   Scaling of DF-GGA-C  ScalDFC         ....  0.730000
   Scaling of DF-LDA-C  ScalLDAC        ....  0.730000
   Perturbative correction              ....  0.270000
   Density functional embedding theory  .... OFF
 Long-range corrected/Screened/Range-Separated Hybrid DFT is turned on
   Amount of maximum screened exact exchange              ....  0.470000
   Range separation parameter mu (erf(mu*r12)/r12)        ....  0.300000
 RI-approximation to the Coulomb term is turned on
   Number of AuxJ basis functions       .... 1325
   RIJ-COSX (HFX calculated with COS-X)).... on


General Settings:
 Integral files         IntName         .... Ph-Acr_2_M06L_def2TZVP_coords
 Hartree-Fock type      HFTyp           .... RHF
 Total Charge           Charge          ....    1
 Multiplicity           Mult            ....    1
 Number of Electrons    NEL             ....  158
 Basis Dimension        Dim             ....  821
 Nuclear Repulsion      ENuc            ....   1858.3656663041 Eh

Convergence Acceleration:
 DIIS                   CNVDIIS         .... on
   Start iteration      DIISMaxIt       ....    12
   Startup error        DIISStart       ....  0.200000
   # of expansion vecs  DIISMaxEq       ....     5
   Bias factor          DIISBfac        ....   1.050
   Max. coefficient     DIISMaxC        ....  10.000
 Trust-Rad. Augm. Hess. CNVTRAH         .... auto
   Auto Start mean grad. ratio tolernc. ....  1.125000
   Auto Start start iteration           ....    20
   Auto Start num. interpolation iter.  ....    10
   Max. Number of Micro iterations      ....    16
   Max. Number of Macro iterations      .... Maxiter - #DIIS iter
   Number of Davidson start vectors     ....     2
   Converg. threshold I  (grad. norm)   ....   1.000e-05
   Converg. threshold II (energy diff.) ....   1.000e-08
   Grad. Scal. Fac. for Micro threshold ....   0.100
   Minimum threshold for Micro iter.    ....   0.010
   NR start threshold (gradient norm)   ....   0.001
   Initial trust radius                 ....   0.400
   Minimum AH scaling param. (alpha)    ....   1.000
   Maximum AH scaling param. (alpha)    .... 1000.000
   Orbital update algorithm             .... Taylor
   White noise on init. David. guess    .... on
   Maximum white noise                  ....   0.010
   Quad. conv. algorithm                .... NR
 SOSCF                  CNVSOSCF        .... on
   Start iteration      SOSCFMaxIt      ....   150
   Startup grad/error   SOSCFStart      ....  0.003300
 Level Shifting         CNVShift        .... on
   Level shift para.    LevelShift      ....    0.2500
   Turn off err/grad.   ShiftErr        ....    0.0010
 Zerner damping         CNVZerner       .... off
 Static damping         CNVDamp         .... on
   Fraction old density DampFac         ....    0.7000
   Max. Damping (<1)    DampMax         ....    0.9800
   Min. Damping (>=0)   DampMin         ....    0.0000
   Turn off err/grad.   DampErr         ....    0.1000
 Fernandez-Rico         CNVRico         .... off

SCF Procedure:
 Maximum # iterations   MaxIter         ....   125
 SCF integral mode      SCFMode         .... Direct
   Integral package                     .... SHARK and LIBINT hybrid scheme
 Reset frequency        DirectResetFreq ....    20
 Integral Threshold     Thresh          ....  2.500e-11 Eh
 Primitive CutOff       TCut            ....  2.500e-12 Eh

Convergence Tolerance:
 Convergence Check Mode ConvCheckMode   .... Total+1el-Energy
 Convergence forced     ConvForced      .... 1
 Energy Change          TolE            ....  1.000e-08 Eh
 1-El. energy change                    ....  1.000e-05 Eh
 Orbital Gradient       TolG            ....  1.000e-05
 Orbital Rotation angle TolX            ....  1.000e-05
 DIIS Error             TolErr          ....  5.000e-07


Diagonalization of the overlap matrix:
Smallest eigenvalue                        ... 4.871e-06
Time for diagonalization                   ...    0.116 sec
Threshold for overlap eigenvalues          ... 1.000e-08
Number of eigenvalues below threshold      ... 0
Time for construction of square roots      ...    0.101 sec
Total time needed                          ...    0.220 sec

Time for model grid setup =    0.243 sec

------------------------------
INITIAL GUESS: MODEL POTENTIAL
------------------------------
Loading Hartree-Fock densities                     ... done
Calculating cut-offs                               ... done
Initializing the effective Hamiltonian             ... done
Setting up the integral package (SHARK)            ... done
Starting the Coulomb interaction                   ... done (   0.4 sec)
Reading the grid                                   ... done
Mapping shells                                     ... done
Starting the XC term evaluation                    ... done (   0.2 sec)
  promolecular density results
     # of electrons  =    158.994574511
     EX              =   -127.567935275
     EC              =     -1.805451788
     EX+EC           =   -129.373387063
Transforming the Hamiltonian                       ... done (   0.1 sec)
Diagonalizing the Hamiltonian                      ... done (   0.1 sec)
Back transforming the eigenvectors                 ... done (   0.0 sec)
Now organizing SCF variables                       ... done
                      ------------------
                      INITIAL GUESS DONE (   1.1 sec)
                      ------------------
-------------------
DFT GRID GENERATION
-------------------

General Integration Accuracy     IntAcc      ... 4.388
Radial Grid Type                 RadialGrid  ... OptM3 with GC (2021)
Angular Grid (max. ang.)         AngularGrid ... 4 (Lebedev-302)
Angular grid pruning method      GridPruning ... 4 (adaptive)
Weight generation scheme         WeightScheme... Becke
Basis function cutoff            BFCut       ... 1.0000e-11
Integration weight cutoff        WCut        ... 1.0000e-14
Angular grids for H and He will be reduced by one unit
Partially contracted basis set               ... off
Rotationally invariant grid construction     ... off

Total number of grid points                  ...   193964
Total number of batches                      ...     3054
Average number of points per batch           ...       63
Average number of grid points per atom       ...     4731
Time for grid setup =    1.044 sec

--------------------
COSX GRID GENERATION
--------------------

GRIDX 1
-------
General Integration Accuracy     IntAcc      ... 3.816
Radial Grid Type                 RadialGrid  ... OptM3 with GC (2021)
Angular Grid (max. ang.)         AngularGrid ... 1 (Lebedev-50)
Angular grid pruning method      GridPruning ... 4 (adaptive)
Weight generation scheme         WeightScheme... Becke
Basis function cutoff            BFCut       ... 1.0000e-11
Integration weight cutoff        WCut        ... 1.0000e-14
Angular grids for H and He will be reduced by one unit
Partially contracted basis set               ... on
Rotationally invariant grid construction     ... off

Total number of grid points                  ...    24696
Total number of batches                      ...      403
Average number of points per batch           ...       61
Average number of grid points per atom       ...      602
UseSFitting                                  ... on

GRIDX 2
-------
General Integration Accuracy     IntAcc      ... 4.020
Radial Grid Type                 RadialGrid  ... OptM3 with GC (2021)
Angular Grid (max. ang.)         AngularGrid ... 2 (Lebedev-110)
Angular grid pruning method      GridPruning ... 4 (adaptive)
Weight generation scheme         WeightScheme... Becke
Basis function cutoff            BFCut       ... 1.0000e-11
Integration weight cutoff        WCut        ... 1.0000e-14
Angular grids for H and He will be reduced by one unit
Partially contracted basis set               ... on
Rotationally invariant grid construction     ... off

Total number of grid points                  ...    53255
Total number of batches                      ...      852
Average number of points per batch           ...       62
Average number of grid points per atom       ...     1299
UseSFitting                                  ... on

GRIDX 3
-------
General Integration Accuracy     IntAcc      ... 4.338
Radial Grid Type                 RadialGrid  ... OptM3 with GC (2021)
Angular Grid (max. ang.)         AngularGrid ... 3 (Lebedev-194)
Angular grid pruning method      GridPruning ... 4 (adaptive)
Weight generation scheme         WeightScheme... Becke
Basis function cutoff            BFCut       ... 1.0000e-11
Integration weight cutoff        WCut        ... 1.0000e-14
Angular grids for H and He will be reduced by one unit
Partially contracted basis set               ... on
Rotationally invariant grid construction     ... off

Total number of grid points                  ...   116329
Total number of batches                      ...     1837
Average number of points per batch           ...       63
Average number of grid points per atom       ...     2837
UseSFitting                                  ... on

Time for X-Grid setup             =    1.296 sec


--------------------
CPCM SOLVATION MODEL
--------------------
CPCM parameters:
  Epsilon                                         ...      35.6880
  Refrac                                          ...       1.3442
  Rsolv                                           ...       1.3000
  Surface type                                    ... GAUSSIAN VDW
  Epsilon function type                           ...         CPCM
Solvent:                                     ... ACETONITRILE
SMD-CDS solvent descriptors:
  Soln                                       ...    1.3442
  Soln25                                     ...    1.3416
  Sola                                       ...    0.0700
  Solb                                       ...    0.3200
  Solg                                       ...   41.2500
  Solc                                       ...    0.0000
  Solh                                       ...    0.0000
Radii:
 Radius for C  used is    3.4960 Bohr (=   1.8500 Ang.)
 Radius for H  used is    2.2677 Bohr (=   1.2000 Ang.)
 Radius for N  used is    3.5716 Bohr (=   1.8900 Ang.)
 Radius for O  used is    4.0969 Bohr (=   2.1680 Ang.)
Calculating surface                               ...        done! (  0.0s)
GEPOL surface points                              ...         2243
GEPOL Volume                                      ...    2114.2766
GEPOL Surface-area                                ...    1125.1343
Calculating surface distance matrix               ...        done! (  0.0s)
Performing Cholesky decomposition & store         ...        done! (  0.1s)
Overall time for CPCM initialization              ...                 0.2s
--------------
SCF ITERATIONS
--------------
ITER       Energy         Delta-E        Max-DP      RMS-DP      [F,P]     Damp
               ***  Starting incremental Fock matrix formation  ***
  0   -937.7327966366   0.000000000000 0.05155118  0.00063040  0.1615880 0.7000
  1   -937.9234358005  -0.190639163918 0.04222868  0.00052554  0.1026853 0.7000
                               ***Turning on DIIS***
  2   -938.0367327051  -0.113296904592 0.09471188  0.00123543  0.0615325 0.0000
  3   -938.2494430522  -0.212710347038 0.02774888  0.00028125  0.0291225 0.0000
  4   -938.2649047564  -0.015461704256 0.00872415  0.00010149  0.0054251 0.0000
                      *** Initiating the SOSCF procedure ***
                           *** Shutting down DIIS ***
                      *** Re-Reading the Fockian *** 
                      *** Removing any level shift *** 
ITER      Energy       Delta-E        Grad      Rot      Max-DP    RMS-DP
  5   -938.26559230  -0.0006875457  0.001756  0.001756  0.003926  0.000046
               *** Restarting incremental Fock matrix formation ***
  6   -938.26574496  -0.0001526623  0.001107  0.002758  0.008077  0.000107
  7   -938.26582906  -0.0000840924  0.000617  0.003697  0.004204  0.000063
  8   -938.26586013  -0.0000310706  0.000287  0.000551  0.003770  0.000049
  9   -938.26586598  -0.0000058522  0.000065  0.000184  0.000339  0.000006
 10   -938.26586658  -0.0000005995  0.000057  0.000278  0.000187  0.000003
 11   -938.26586677  -0.0000001942  0.000025  0.000185  0.000159  0.000002
 12   -938.26586681  -0.0000000409  0.000011  0.000067  0.000113  0.000001
 13   -938.26586682  -0.0000000022  0.000004  0.000019  0.000210  0.000002
                  ***Gradient check signals convergence***
              ***Rediagonalizing the Fockian in SOSCF/NRSCF***

               *****************************************************
               *                     SUCCESS                       *
               *           SCF CONVERGED AFTER  14 CYCLES          *
               *****************************************************

Old exchange energy                            =    -80.570424304 Eh
New exchange energy                            =    -80.570460175 Eh
Exchange energy change after final integration =     -0.000035871 Eh
Total energy after final integration           =   -938.265902667 Eh
Final COS-X integration done in                =    42.202 sec

SMD CDS free energy correction energy :                -4.54001     Kcal/mol
Total Energy after SMD CDS correction =              -938.273137627 Eh

----------------
TOTAL SCF ENERGY
----------------

Total Energy       :         -938.27313763 Eh          -25531.71008 eV

Components:
Nuclear Repulsion  :         1858.36566630 Eh           50568.70064 eV
Electronic Energy  :        -2796.63880393 Eh          -76100.41073 eV
One Electron Energy:        -4943.94962763 Eh         -134531.70883 eV
Two Electron Energy:         2147.31082370 Eh           58431.29810 eV
Max COSX asymmetry :            0.00000488 Eh               0.00013 eV
CPCM Dielectric    :           -0.07885681 Eh              -2.14580 eV
SMD CDS (Gcds)     :           -0.00723496 Eh              -0.19687 eV

Virial components:
Potential Energy   :        -1873.33156062 Eh          -50975.94333 eV
Kinetic Energy     :          935.05842300 Eh           25444.23325 eV
Virial Ratio       :            2.00343798


DFT components:
N(Alpha)           :       78.999981876445 electrons
N(Beta)            :       78.999981876445 electrons
N(Total)           :      157.999963752891 electrons
E(X)               :      -48.709026874362 Eh       
E(C)               :       -3.926841057018 Eh       
E(XC)              :      -52.635867931380 Eh       
DFET-embed. en.    :        0.000000000000 Eh       
CPCM Solvation Model Properties:
Surface-charge          :           -1.05958837
Charge-correction       :            0.00645151 Eh               0.17555 eV
Free-energy (cav+disp)  :           -0.00723496 Eh              -0.19687 eV

---------------
SCF CONVERGENCE
---------------

  Last Energy change         ...    2.0251e-08  Tolerance :   1.0000e-08
  Last MAX-Density change    ...    1.8874e-15  Tolerance :   1.0000e-07
  Last RMS-Density change    ...    1.4269e-17  Tolerance :   5.0000e-09
  Last Orbital Gradient      ...    1.0548e-06  Tolerance :   1.0000e-05
  Last Orbital Rotation      ...    5.1296e-06  Tolerance :   1.0000e-05

             **** THE GBW FILE WAS UPDATED (Ph-Acr_2_M06L_def2TZVP_coords.gbw) ****
             **** DENSITY Ph-Acr_2_M06L_def2TZVP_coords.scfp WAS UPDATED ****
             **** ENERGY FILE WAS UPDATED (Ph-Acr_2_M06L_def2TZVP_coords.en.tmp) ****
             **** THE GBW FILE WAS UPDATED (Ph-Acr_2_M06L_def2TZVP_coords.gbw) ****
             **** DENSITY Ph-Acr_2_M06L_def2TZVP_coords.scfp WAS UPDATED ****
----------------
ORBITAL ENERGIES
----------------

  NO   OCC          E(Eh)            E(eV) 
   0   2.0000     -19.844302      -539.9909 
   1   2.0000     -15.007776      -408.3824 
   2   2.0000     -10.789760      -293.6043 
   3   2.0000     -10.784069      -293.4494 
   4   2.0000     -10.779271      -293.3189 
   5   2.0000     -10.769904      -293.0640 
   6   2.0000     -10.737291      -292.1766 
   7   2.0000     -10.732527      -292.0469 
   8   2.0000     -10.729301      -291.9591 
   9   2.0000     -10.722696      -291.7794 
  10   2.0000     -10.720909      -291.7308 
  11   2.0000     -10.716374      -291.6074 
  12   2.0000     -10.712175      -291.4931 
  13   2.0000     -10.712164      -291.4928 
  14   2.0000     -10.704892      -291.2949 
  15   2.0000     -10.699311      -291.1430 
  16   2.0000     -10.695248      -291.0325 
  17   2.0000     -10.694050      -290.9999 
  18   2.0000     -10.693975      -290.9978 
  19   2.0000     -10.692989      -290.9710 
  20   2.0000     -10.691806      -290.9388 
  21   2.0000     -10.691560      -290.9321 
  22   2.0000     -10.690000      -290.8897 
  23   2.0000      -1.319931       -35.9172 
  24   2.0000      -1.243212       -33.8295 
  25   2.0000      -1.107003       -30.1231 
  26   2.0000      -1.094652       -29.7870 
  27   2.0000      -1.073244       -29.2045 
  28   2.0000      -1.037746       -28.2385 
  29   2.0000      -0.985531       -26.8177 
  30   2.0000      -0.972615       -26.4662 
  31   2.0000      -0.963724       -26.2243 
  32   2.0000      -0.950699       -25.8698 
  33   2.0000      -0.947016       -25.7696 
  34   2.0000      -0.909753       -24.7556 
  35   2.0000      -0.898325       -24.4447 
  36   2.0000      -0.858537       -23.3620 
  37   2.0000      -0.843868       -22.9628 
  38   2.0000      -0.801678       -21.8148 
  39   2.0000      -0.781848       -21.2752 
  40   2.0000      -0.779416       -21.2090 
  41   2.0000      -0.752203       -20.4685 
  42   2.0000      -0.736000       -20.0276 
  43   2.0000      -0.735371       -20.0105 
  44   2.0000      -0.701498       -19.0887 
  45   2.0000      -0.671511       -18.2727 
  46   2.0000      -0.660930       -17.9848 
  47   2.0000      -0.652138       -17.7456 
  48   2.0000      -0.648168       -17.6376 
  49   2.0000      -0.643752       -17.5174 
  50   2.0000      -0.630233       -17.1495 
  51   2.0000      -0.624498       -16.9935 
  52   2.0000      -0.619644       -16.8614 
  53   2.0000      -0.607862       -16.5408 
  54   2.0000      -0.602455       -16.3936 
  55   2.0000      -0.594425       -16.1751 
  56   2.0000      -0.587387       -15.9836 
  57   2.0000      -0.572900       -15.5894 
  58   2.0000      -0.562972       -15.3192 
  59   2.0000      -0.555903       -15.1269 
  60   2.0000      -0.548476       -14.9248 
  61   2.0000      -0.544412       -14.8142 
  62   2.0000      -0.536549       -14.6002 
  63   2.0000      -0.526236       -14.3196 
  64   2.0000      -0.511943       -13.9307 
  65   2.0000      -0.507741       -13.8163 
  66   2.0000      -0.507477       -13.8091 
  67   2.0000      -0.495957       -13.4957 
  68   2.0000      -0.487043       -13.2531 
  69   2.0000      -0.477244       -12.9865 
  70   2.0000      -0.472703       -12.8629 
  71   2.0000      -0.470321       -12.7981 
  72   2.0000      -0.450748       -12.2655 
  73   2.0000      -0.431868       -11.7517 
  74   2.0000      -0.368483       -10.0269 
  75   2.0000      -0.360759        -9.8167 
  76   2.0000      -0.352740        -9.5986 
  77   2.0000      -0.349349        -9.5063 
  78   2.0000      -0.314522        -8.5586 
  79   0.0000      -0.031886        -0.8677 
  80   0.0000       0.042606         1.1594 
  81   0.0000       0.075380         2.0512 
  82   0.0000       0.077076         2.0973 
  83   0.0000       0.088673         2.4129 
  84   0.0000       0.107941         2.9372 
  85   0.0000       0.115051         3.1307 
  86   0.0000       0.129464         3.5229 
  87   0.0000       0.133777         3.6403 
  88   0.0000       0.140168         3.8142 
  89   0.0000       0.142037         3.8650 
  90   0.0000       0.147473         4.0130 
  91   0.0000       0.157491         4.2855 
  92   0.0000       0.159522         4.3408 
  93   0.0000       0.162468         4.4210 
  94   0.0000       0.170015         4.6264 
  95   0.0000       0.178166         4.8481 
  96   0.0000       0.181965         4.9515 
  97   0.0000       0.190271         5.1775 
  98   0.0000       0.193090         5.2543 
  99   0.0000       0.194640         5.2964 
 100   0.0000       0.201292         5.4774 
 101   0.0000       0.207614         5.6495 
 102   0.0000       0.211904         5.7662 
 103   0.0000       0.213127         5.7995 
 104   0.0000       0.218933         5.9575 
 105   0.0000       0.221750         6.0341 
 106   0.0000       0.231113         6.2889 
 107   0.0000       0.237475         6.4620 
 108   0.0000       0.249233         6.7820 
 109   0.0000       0.252809         6.8793 
 110   0.0000       0.259766         7.0686 
 111   0.0000       0.263616         7.1734 
 112   0.0000       0.269983         7.3466 
 113   0.0000       0.275096         7.4857 
 114   0.0000       0.282455         7.6860 
 115   0.0000       0.289212         7.8699 
 116   0.0000       0.294232         8.0064 
 117   0.0000       0.296527         8.0689 
 118   0.0000       0.300214         8.1692 
 119   0.0000       0.303971         8.2715 
 120   0.0000       0.306619         8.3435 
 121   0.0000       0.315224         8.5777 
 122   0.0000       0.316476         8.6118 
 123   0.0000       0.318107         8.6561 
 124   0.0000       0.319581         8.6962 
 125   0.0000       0.324789         8.8379 
 126   0.0000       0.330331         8.9888 
 127   0.0000       0.332454         9.0465 
 128   0.0000       0.338128         9.2009 
 129   0.0000       0.340484         9.2650 
 130   0.0000       0.350790         9.5455 
 131   0.0000       0.359162         9.7733 
 132   0.0000       0.361676         9.8417 
 133   0.0000       0.365353         9.9418 
 134   0.0000       0.366181         9.9643 
 135   0.0000       0.370981        10.0949 
 136   0.0000       0.376774        10.2525 
 137   0.0000       0.381790        10.3890 
 138   0.0000       0.393585        10.7100 
 139   0.0000       0.394951        10.7472 
 140   0.0000       0.400694        10.9034 
 141   0.0000       0.404798        11.0151 
 142   0.0000       0.409070        11.1314 
 143   0.0000       0.413694        11.2572 
 144   0.0000       0.416320        11.3286 
 145   0.0000       0.424348        11.5471 
 146   0.0000       0.428810        11.6685 
 147   0.0000       0.434895        11.8341 
 148   0.0000       0.442343        12.0368 
 149   0.0000       0.447040        12.1646 
 150   0.0000       0.452221        12.3056 
 151   0.0000       0.458433        12.4746 
 152   0.0000       0.464087        12.6285 
 153   0.0000       0.466966        12.7068 
 154   0.0000       0.468910        12.7597 
 155   0.0000       0.474847        12.9212 
 156   0.0000       0.477651        12.9975 
 157   0.0000       0.485334        13.2066 
 158   0.0000       0.489097        13.3090 
 159   0.0000       0.494303        13.4507 
 160   0.0000       0.497571        13.5396 
 161   0.0000       0.501640        13.6503 
 162   0.0000       0.503614        13.7040 
 163   0.0000       0.505410        13.7529 
 164   0.0000       0.508537        13.8380 
 165   0.0000       0.512492        13.9456 
 166   0.0000       0.515794        14.0355 
 167   0.0000       0.518349        14.1050 
 168   0.0000       0.523333        14.2406 
 169   0.0000       0.524273        14.2662 
 170   0.0000       0.529897        14.4192 
 171   0.0000       0.532372        14.4866 
 172   0.0000       0.535188        14.5632 
 173   0.0000       0.543046        14.7770 
 174   0.0000       0.547443        14.8967 
 175   0.0000       0.550405        14.9773 
 176   0.0000       0.556238        15.1360 
 177   0.0000       0.558398        15.1948 
 178   0.0000       0.562915        15.3177 
 179   0.0000       0.564674        15.3656 
 180   0.0000       0.570426        15.5221 
 181   0.0000       0.579678        15.7738 
 182   0.0000       0.582406        15.8481 
 183   0.0000       0.593400        16.1472 
 184   0.0000       0.596747        16.2383 
 185   0.0000       0.598868        16.2960 
 186   0.0000       0.601597        16.3703 
 187   0.0000       0.606757        16.5107 
 188   0.0000       0.607979        16.5439 
 189   0.0000       0.611974        16.6527 
 190   0.0000       0.614781        16.7290 
 191   0.0000       0.619053        16.8453 
 192   0.0000       0.622017        16.9259 
 193   0.0000       0.624567        16.9953 
 194   0.0000       0.637047        17.3349 
 195   0.0000       0.638525        17.3751 
 196   0.0000       0.644423        17.5356 
 197   0.0000       0.653954        17.7950 
 198   0.0000       0.664031        18.0692 
 199   0.0000       0.667861        18.1734 
 200   0.0000       0.680603        18.5201 
 201   0.0000       0.687030        18.6950 
 202   0.0000       0.688291        18.7294 
 203   0.0000       0.696674        18.9575 
 204   0.0000       0.703529        19.1440 
 205   0.0000       0.706786        19.2326 
 206   0.0000       0.710846        19.3431 
 207   0.0000       0.715660        19.4741 
 208   0.0000       0.721704        19.6386 
 209   0.0000       0.740933        20.1618 
 210   0.0000       0.747736        20.3469 
 211   0.0000       0.749970        20.4077 
 212   0.0000       0.759142        20.6573 
 213   0.0000       0.764163        20.7939 
 214   0.0000       0.767207        20.8768 
 215   0.0000       0.772937        21.0327 
 216   0.0000       0.774825        21.0841 
 217   0.0000       0.779624        21.2146 
 218   0.0000       0.791388        21.5348 
 219   0.0000       0.792381        21.5618 
 220   0.0000       0.798498        21.7282 
 221   0.0000       0.803244        21.8574 
 222   0.0000       0.811453        22.0808 
 223   0.0000       0.815541        22.1920 
 224   0.0000       0.828373        22.5412 
 225   0.0000       0.832251        22.6467 
 226   0.0000       0.833038        22.6681 
 227   0.0000       0.840903        22.8821 
 228   0.0000       0.843680        22.9577 
 229   0.0000       0.846584        23.0367 
 230   0.0000       0.850342        23.1390 
 231   0.0000       0.856237        23.2994 
 232   0.0000       0.859190        23.3798 
 233   0.0000       0.859449        23.3868 
 234   0.0000       0.865859        23.5612 
 235   0.0000       0.872997        23.7555 
 236   0.0000       0.881355        23.9829 
 237   0.0000       0.887661        24.1545 
 238   0.0000       0.893885        24.3238 
 239   0.0000       0.901959        24.5435 
 240   0.0000       0.906212        24.6593 
 241   0.0000       0.915518        24.9125 
 242   0.0000       0.917930        24.9781 
 243   0.0000       0.926638        25.2151 
 244   0.0000       0.932582        25.3768 
 245   0.0000       0.939538        25.5661 
 246   0.0000       0.943494        25.6738 
 247   0.0000       0.951853        25.9012 
 248   0.0000       0.957466        26.0540 
 249   0.0000       0.961400        26.1610 
 250   0.0000       0.971638        26.4396 
 251   0.0000       0.977893        26.6098 
 252   0.0000       0.987777        26.8788 
 253   0.0000       0.988748        26.9052 
 254   0.0000       0.996659        27.1205 
 255   0.0000       1.001730        27.2585 
 256   0.0000       1.008537        27.4437 
 257   0.0000       1.021435        27.7947 
 258   0.0000       1.025951        27.9176 
 259   0.0000       1.027373        27.9562 
 260   0.0000       1.034487        28.1498 
 261   0.0000       1.046772        28.4841 
 262   0.0000       1.053854        28.6768 
 263   0.0000       1.061072        28.8732 
 264   0.0000       1.063847        28.9488 
 265   0.0000       1.067666        29.0527 
 266   0.0000       1.075515        29.2663 
 267   0.0000       1.088181        29.6109 
 268   0.0000       1.091215        29.6935 
 269   0.0000       1.105638        30.0859 
 270   0.0000       1.112703        30.2782 
 271   0.0000       1.115740        30.3608 
 272   0.0000       1.136074        30.9141 
 273   0.0000       1.139354        31.0034 
 274   0.0000       1.149085        31.2682 
 275   0.0000       1.159277        31.5455 
 276   0.0000       1.165094        31.7038 
 277   0.0000       1.173206        31.9246 
 278   0.0000       1.178167        32.0595 
 279   0.0000       1.180794        32.1310 
 280   0.0000       1.197584        32.5879 
 281   0.0000       1.202806        32.7300 
 282   0.0000       1.209035        32.8995 
 283   0.0000       1.221882        33.2491 
 284   0.0000       1.231983        33.5240 
 285   0.0000       1.234852        33.6020 
 286   0.0000       1.247517        33.9467 
 287   0.0000       1.255481        34.1634 
 288   0.0000       1.269720        34.5508 
 289   0.0000       1.270968        34.5848 
 290   0.0000       1.276704        34.7409 
 291   0.0000       1.287996        35.0482 
 292   0.0000       1.292361        35.1669 
 293   0.0000       1.299656        35.3655 
 294   0.0000       1.300730        35.3946 
 295   0.0000       1.306087        35.5404 
 296   0.0000       1.319642        35.9093 
 297   0.0000       1.329728        36.1837 
 298   0.0000       1.345346        36.6087 
 299   0.0000       1.347331        36.6627 
 300   0.0000       1.356522        36.9128 
 301   0.0000       1.362113        37.0650 
 302   0.0000       1.368558        37.2404 
 303   0.0000       1.371445        37.3189 
 304   0.0000       1.392283        37.8860 
 305   0.0000       1.399332        38.0777 
 306   0.0000       1.400757        38.1165 
 307   0.0000       1.406191        38.2644 
 308   0.0000       1.408302        38.3218 
 309   0.0000       1.417789        38.5800 
 310   0.0000       1.420733        38.6601 
 311   0.0000       1.425560        38.7915 
 312   0.0000       1.434368        39.0311 
 313   0.0000       1.441839        39.2344 
 314   0.0000       1.447549        39.3898 
 315   0.0000       1.454024        39.5660 
 316   0.0000       1.475374        40.1470 
 317   0.0000       1.488149        40.4946 
 318   0.0000       1.497755        40.7560 
 319   0.0000       1.505073        40.9551 
 320   0.0000       1.512005        41.1438 
 321   0.0000       1.523104        41.4458 
 322   0.0000       1.528192        41.5842 
 323   0.0000       1.549501        42.1641 
 324   0.0000       1.550582        42.1935 
 325   0.0000       1.557195        42.3734 
 326   0.0000       1.566617        42.6298 
 327   0.0000       1.572905        42.8009 
 328   0.0000       1.583261        43.0827 
 329   0.0000       1.590695        43.2850 
 330   0.0000       1.596101        43.4321 
 331   0.0000       1.608896        43.7803 
 332   0.0000       1.612207        43.8704 
 333   0.0000       1.624448        44.2035 
 334   0.0000       1.625493        44.2319 
 335   0.0000       1.633078        44.4383 
 336   0.0000       1.637787        44.5665 
 337   0.0000       1.649447        44.8837 
 338   0.0000       1.655284        45.0426 
 339   0.0000       1.663322        45.2613 
 340   0.0000       1.669228        45.4220 
 341   0.0000       1.673126        45.5281 
 342   0.0000       1.676495        45.6197 
 343   0.0000       1.685978        45.8778 
 344   0.0000       1.689291        45.9680 
 345   0.0000       1.693309        46.0773 
 346   0.0000       1.699696        46.2511 
 347   0.0000       1.704909        46.3929 
 348   0.0000       1.709495        46.5177 
 349   0.0000       1.717534        46.7365 
 350   0.0000       1.723627        46.9023 
 351   0.0000       1.729062        47.0502 
 352   0.0000       1.736410        47.2501 
 353   0.0000       1.740084        47.3501 
 354   0.0000       1.752944        47.7000 
 355   0.0000       1.757541        47.8251 
 356   0.0000       1.759922        47.8899 
 357   0.0000       1.771616        48.2081 
 358   0.0000       1.776527        48.3418 
 359   0.0000       1.782662        48.5087 
 360   0.0000       1.788348        48.6634 
 361   0.0000       1.793226        48.7962 
 362   0.0000       1.797573        48.9144 
 363   0.0000       1.800902        49.0050 
 364   0.0000       1.810368        49.2626 
 365   0.0000       1.822947        49.6049 
 366   0.0000       1.825409        49.6719 
 367   0.0000       1.834393        49.9164 
 368   0.0000       1.836493        49.9735 
 369   0.0000       1.849167        50.3184 
 370   0.0000       1.855740        50.4973 
 371   0.0000       1.861156        50.6446 
 372   0.0000       1.865307        50.7576 
 373   0.0000       1.880967        51.1837 
 374   0.0000       1.883618        51.2558 
 375   0.0000       1.889263        51.4094 
 376   0.0000       1.900748        51.7220 
 377   0.0000       1.902960        51.7822 
 378   0.0000       1.907400        51.9030 
 379   0.0000       1.913287        52.0632 
 380   0.0000       1.916726        52.1568 
 381   0.0000       1.923159        52.3318 
 382   0.0000       1.936651        52.6990 
 383   0.0000       1.938436        52.7475 
 384   0.0000       1.941393        52.8280 
 385   0.0000       1.958552        53.2949 
 386   0.0000       1.959920        53.3321 
 387   0.0000       1.975213        53.7483 
 388   0.0000       1.990698        54.1696 
 389   0.0000       1.997058        54.3427 
 390   0.0000       2.006453        54.5984 
 391   0.0000       2.011282        54.7298 
 392   0.0000       2.021994        55.0213 
 393   0.0000       2.028187        55.1898 
 394   0.0000       2.042390        55.5762 
 395   0.0000       2.049138        55.7599 
 396   0.0000       2.062030        56.1107 
 397   0.0000       2.075932        56.4890 
 398   0.0000       2.079809        56.5945 
 399   0.0000       2.088265        56.8246 
 400   0.0000       2.100737        57.1640 
 401   0.0000       2.127630        57.8958 
 402   0.0000       2.134600        58.0854 
 403   0.0000       2.152515        58.5729 
 404   0.0000       2.154836        58.6361 
 405   0.0000       2.165266        58.9199 
 406   0.0000       2.170772        59.0697 
 407   0.0000       2.178289        59.2743 
 408   0.0000       2.181742        59.3682 
 409   0.0000       2.194635        59.7191 
 410   0.0000       2.201701        59.9113 
 411   0.0000       2.206535        60.0429 
 412   0.0000       2.213841        60.2417 
 413   0.0000       2.224390        60.5287 
 414   0.0000       2.234454        60.8026 
 415   0.0000       2.243706        61.0543 
 416   0.0000       2.247727        61.1638 
 417   0.0000       2.257052        61.4175 
 418   0.0000       2.269376        61.7528 
 419   0.0000       2.275951        61.9318 
 420   0.0000       2.287247        62.2391 
 421   0.0000       2.300576        62.6018 
 422   0.0000       2.307645        62.7942 
 423   0.0000       2.311168        62.8901 
 424   0.0000       2.320820        63.1527 
 425   0.0000       2.335091        63.5410 
 426   0.0000       2.337734        63.6130 
 427   0.0000       2.350210        63.9525 
 428   0.0000       2.359827        64.2142 
 429   0.0000       2.377360        64.6913 
 430   0.0000       2.385113        64.9022 
 431   0.0000       2.390091        65.0377 
 432   0.0000       2.395686        65.1899 
 433   0.0000       2.411459        65.6191 
 434   0.0000       2.418867        65.8207 
 435   0.0000       2.424386        65.9709 
 436   0.0000       2.432317        66.1867 
 437   0.0000       2.438756        66.3619 
 438   0.0000       2.461133        66.9708 
 439   0.0000       2.462964        67.0207 
 440   0.0000       2.465537        67.0907 
 441   0.0000       2.470805        67.2340 
 442   0.0000       2.471172        67.2440 
 443   0.0000       2.491909        67.8083 
 444   0.0000       2.495717        67.9119 
 445   0.0000       2.502429        68.0945 
 446   0.0000       2.509962        68.2995 
 447   0.0000       2.529305        68.8259 
 448   0.0000       2.537264        69.0425 
 449   0.0000       2.554312        69.5064 
 450   0.0000       2.562770        69.7365 
 451   0.0000       2.576205        70.1021 
 452   0.0000       2.582164        70.2643 
 453   0.0000       2.590659        70.4954 
 454   0.0000       2.605577        70.9014 
 455   0.0000       2.617311        71.2206 
 456   0.0000       2.621847        71.3441 
 457   0.0000       2.628801        71.5333 
 458   0.0000       2.633058        71.6491 
 459   0.0000       2.645084        71.9764 
 460   0.0000       2.655588        72.2622 
 461   0.0000       2.664342        72.5004 
 462   0.0000       2.682369        72.9910 
 463   0.0000       2.688519        73.1583 
 464   0.0000       2.703540        73.5671 
 465   0.0000       2.711671        73.7883 
 466   0.0000       2.715909        73.9036 
 467   0.0000       2.719411        73.9989 
 468   0.0000       2.720961        74.0411 
 469   0.0000       2.735988        74.4500 
 470   0.0000       2.745000        74.6952 
 471   0.0000       2.756342        75.0039 
 472   0.0000       2.759232        75.0825 
 473   0.0000       2.764429        75.2239 
 474   0.0000       2.772567        75.4454 
 475   0.0000       2.783093        75.7318 
 476   0.0000       2.785179        75.7886 
 477   0.0000       2.788375        75.8755 
 478   0.0000       2.804092        76.3032 
 479   0.0000       2.807744        76.4026 
 480   0.0000       2.811267        76.4985 
 481   0.0000       2.822851        76.8137 
 482   0.0000       2.826415        76.9106 
 483   0.0000       2.827601        76.9429 
 484   0.0000       2.838686        77.2446 
 485   0.0000       2.846204        77.4492 
 486   0.0000       2.849324        77.5340 
 487   0.0000       2.858176        77.7749 
 488   0.0000       2.862641        77.8964 
 489   0.0000       2.869735        78.0895 
 490   0.0000       2.874995        78.2326 
 491   0.0000       2.877771        78.3081 
 492   0.0000       2.883081        78.4526 
 493   0.0000       2.887681        78.5778 
 494   0.0000       2.895407        78.7880 
 495   0.0000       2.900112        78.9161 
 496   0.0000       2.904404        79.0328 
 497   0.0000       2.908394        79.1414 
 498   0.0000       2.917349        79.3851 
 499   0.0000       2.929442        79.7142 
 500   0.0000       2.930441        79.7414 
 501   0.0000       2.934718        79.8577 
 502   0.0000       2.940265        80.0087 
 503   0.0000       2.942403        80.0669 
 504   0.0000       2.959494        80.5319 
 505   0.0000       2.961739        80.5930 
 506   0.0000       2.969208        80.7963 
 507   0.0000       2.973445        80.9115 
 508   0.0000       2.977873        81.0320 
 509   0.0000       2.981017        81.1176 
 510   0.0000       2.997097        81.5552 
 511   0.0000       3.001063        81.6631 
 512   0.0000       3.009634        81.8963 
 513   0.0000       3.012076        81.9627 
 514   0.0000       3.014586        82.0310 
 515   0.0000       3.021126        82.2090 
 516   0.0000       3.028497        82.4096 
 517   0.0000       3.030089        82.4529 
 518   0.0000       3.037347        82.6504 
 519   0.0000       3.044037        82.8325 
 520   0.0000       3.052358        83.0589 
 521   0.0000       3.059947        83.2654 
 522   0.0000       3.062816        83.3434 
 523   0.0000       3.076212        83.7080 
 524   0.0000       3.078249        83.7634 
 525   0.0000       3.080687        83.8297 
 526   0.0000       3.087402        84.0125 
 527   0.0000       3.092896        84.1620 
 528   0.0000       3.101356        84.3922 
 529   0.0000       3.104208        84.4698 
 530   0.0000       3.111221        84.6606 
 531   0.0000       3.118443        84.8572 
 532   0.0000       3.121088        84.9291 
 533   0.0000       3.134059        85.2821 
 534   0.0000       3.137286        85.3699 
 535   0.0000       3.148706        85.6806 
 536   0.0000       3.153879        85.8214 
 537   0.0000       3.169278        86.2404 
 538   0.0000       3.181304        86.5677 
 539   0.0000       3.189118        86.7803 
 540   0.0000       3.194408        86.9243 
 541   0.0000       3.203181        87.1630 
 542   0.0000       3.209701        87.3404 
 543   0.0000       3.214138        87.4611 
 544   0.0000       3.220659        87.6386 
 545   0.0000       3.224660        87.7475 
 546   0.0000       3.227831        87.8337 
 547   0.0000       3.233678        87.9928 
 548   0.0000       3.246100        88.3309 
 549   0.0000       3.254757        88.5664 
 550   0.0000       3.260935        88.7346 
 551   0.0000       3.263457        88.8032 
 552   0.0000       3.275544        89.1321 
 553   0.0000       3.285163        89.3938 
 554   0.0000       3.294431        89.6460 
 555   0.0000       3.296640        89.7061 
 556   0.0000       3.312812        90.1462 
 557   0.0000       3.322381        90.4066 
 558   0.0000       3.323083        90.4257 
 559   0.0000       3.332764        90.6891 
 560   0.0000       3.336968        90.8035 
 561   0.0000       3.339224        90.8649 
 562   0.0000       3.347520        91.0906 
 563   0.0000       3.354151        91.2711 
 564   0.0000       3.357070        91.3505 
 565   0.0000       3.362992        91.5117 
 566   0.0000       3.365895        91.5906 
 567   0.0000       3.381461        92.0142 
 568   0.0000       3.384326        92.0922 
 569   0.0000       3.387642        92.1824 
 570   0.0000       3.392372        92.3111 
 571   0.0000       3.404877        92.6514 
 572   0.0000       3.409794        92.7852 
 573   0.0000       3.414055        92.9012 
 574   0.0000       3.420922        93.0880 
 575   0.0000       3.423923        93.1697 
 576   0.0000       3.435890        93.4953 
 577   0.0000       3.442266        93.6688 
 578   0.0000       3.448777        93.8460 
 579   0.0000       3.453944        93.9866 
 580   0.0000       3.455349        94.0248 
 581   0.0000       3.458889        94.1211 
 582   0.0000       3.469816        94.4185 
 583   0.0000       3.479523        94.6826 
 584   0.0000       3.484312        94.8129 
 585   0.0000       3.486254        94.8658 
 586   0.0000       3.495544        95.1186 
 587   0.0000       3.502199        95.2997 
 588   0.0000       3.504257        95.3557 
 589   0.0000       3.511548        95.5541 
 590   0.0000       3.515689        95.6668 
 591   0.0000       3.526845        95.9703 
 592   0.0000       3.528923        96.0269 
 593   0.0000       3.538391        96.2845 
 594   0.0000       3.543618        96.4268 
 595   0.0000       3.545979        96.4910 
 596   0.0000       3.554984        96.7360 
 597   0.0000       3.555395        96.7472 
 598   0.0000       3.559244        96.8519 
 599   0.0000       3.565429        97.0202 
 600   0.0000       3.572220        97.2051 
 601   0.0000       3.576269        97.3152 
 602   0.0000       3.580925        97.4419 
 603   0.0000       3.589180        97.6665 
 604   0.0000       3.598101        97.9093 
 605   0.0000       3.600099        97.9637 
 606   0.0000       3.604274        98.0773 
 607   0.0000       3.619368        98.4880 
 608   0.0000       3.621284        98.5402 
 609   0.0000       3.633041        98.8601 
 610   0.0000       3.633445        98.8711 
 611   0.0000       3.642370        99.1139 
 612   0.0000       3.646681        99.2312 
 613   0.0000       3.651406        99.3598 
 614   0.0000       3.655276        99.4651 
 615   0.0000       3.662724        99.6678 
 616   0.0000       3.672372        99.9303 
 617   0.0000       3.676267       100.0363 
 618   0.0000       3.687950       100.3542 
 619   0.0000       3.689457       100.3952 
 620   0.0000       3.693040       100.4927 
 621   0.0000       3.696424       100.5848 
 622   0.0000       3.708682       100.9184 
[...]

STATE 15:  E=   0.241416 au      6.569 eV    52984.8 cm**-1 <S**2> =   0.000000
    64a ->  79a  :     0.020113 
    67a ->  79a  :     0.046707 
    70a ->  79a  :     0.061238 
    71a ->  79a  :     0.111650 
    75a ->  81a  :     0.016847 
    75a ->  82a  :     0.141732 
    76a ->  81a  :     0.023809 
    76a ->  82a  :     0.127846 
    77a ->  80a  :     0.153084 
    77a ->  81a  :     0.076330 
    77a ->  82a  :     0.034505 
    77a ->  83a  :     0.068406 
    78a ->  82a  :     0.013796 

STATE 16:  E=   0.250708 au      6.822 eV    55024.0 cm**-1 <S**2> =   0.000000
    73a ->  79a  :     0.069018 
    75a ->  80a  :     0.140844 
    75a ->  81a  :     0.053552 
    75a ->  83a  :     0.062550 
    75a ->  84a  :     0.011116 
    76a ->  81a  :     0.096625 
    76a ->  82a  :     0.022699 
    76a ->  83a  :     0.076143 
    77a ->  81a  :     0.038008 
    77a ->  82a  :     0.263418 
    78a ->  84a  :     0.081365 

STATE 17:  E=   0.241162 au      6.562 eV    52928.9 cm**-1 <S**2> =   0.000000
    62a ->  79a  :     0.010439 
    62a ->  81a  :     0.010497 
    64a ->  79a  :     0.057172 
    66a ->  79a  :     0.160504 
    67a ->  79a  :     0.053828 
    70a ->  79a  :     0.282236 
    71a ->  79a  :     0.217311 
    77a ->  79a  :     0.010280 
    77a ->  80a  :     0.027840 
    77a ->  81a  :     0.013058 

STATE 18:  E=   0.248628 au      6.766 eV    54567.6 cm**-1 <S**2> =   0.000000
    72a ->  79a  :     0.258931 
    73a ->  80a  :     0.040698 
    73a ->  81a  :     0.010355 
    73a ->  83a  :     0.011639 
    74a ->  80a  :     0.153497 
    75a ->  81a  :     0.089301 
    75a ->  84a  :     0.040134 
    76a ->  81a  :     0.087744 
    76a ->  83a  :     0.032381 
    76a ->  84a  :     0.054642 
    77a ->  80a  :     0.011768 
    78a ->  84a  :     0.033138 
    78a ->  88a  :     0.026211 
    78a ->  89a  :     0.037922 

STATE 19:  E=   0.248878 au      6.772 eV    54622.4 cm**-1 <S**2> =   0.000000
    63a ->  79a  :     0.014971 
    67a ->  79a  :     0.011080 
    70a ->  79a  :     0.011330 
    72a ->  79a  :     0.338883 
    72a ->  80a  :     0.016860 
    72a ->  81a  :     0.012260 
    73a ->  79a  :     0.034758 
    73a ->  80a  :     0.025235 
    73a ->  81a  :     0.028246 
    73a ->  83a  :     0.020572 
    74a ->  84a  :     0.012219 
    75a ->  81a  :     0.070861 
    75a ->  84a  :     0.051239 
    76a ->  80a  :     0.010698 
    76a ->  81a  :     0.068511 
    76a ->  83a  :     0.014459 
    76a ->  84a  :     0.102801 
    78a ->  81a  :     0.016198 
    78a ->  84a  :     0.024824 

STATE 20:  E=   0.255227 au      6.945 eV    56015.8 cm**-1 <S**2> =   0.000000
    77a ->  80a  :     0.092548 
    77a ->  81a  :     0.014248 
    78a ->  81a  :     0.029647 
    78a ->  82a  :     0.310523 
    78a ->  85a  :     0.308582 
    78a ->  87a  :     0.026589 
    78a ->  88a  :     0.011571 
    78a ->  90a  :     0.036272 
    78a ->  95a  :     0.021717 

STATE 21:  E=   0.249890 au      6.800 eV    54844.5 cm**-1 <S**2> =   0.000000
    66a ->  79a  :     0.033089 
    67a ->  79a  :     0.010980 
    71a ->  79a  :     0.010879 
    71a ->  80a  :     0.015218 
    76a ->  82a  :     0.021999 
    77a ->  80a  :     0.468495 
    77a ->  81a  :     0.143016 
    77a ->  82a  :     0.012242 
    77a ->  83a  :     0.048661 
    78a ->  82a  :     0.043925 
    78a ->  85a  :     0.050614 

STATE 22:  E=   0.258429 au      7.032 eV    56718.6 cm**-1 <S**2> =   0.000000
    73a ->  82a  :     0.011273 
    76a ->  82a  :     0.012557 
    78a ->  81a  :     0.023566 
    78a ->  82a  :     0.445763 
    78a ->  85a  :     0.336425 
    78a ->  87a  :     0.017593 
    78a ->  89a  :     0.015367 
    78a ->  90a  :     0.014259 

STATE 23:  E=   0.263362 au      7.166 eV    57801.3 cm**-1 <S**2> =   0.000000
    59a ->  79a  :     0.012345 
    61a ->  79a  :     0.044318 
    62a ->  79a  :     0.013628 
    63a ->  79a  :     0.019974 
    64a ->  79a  :     0.040178 
    64a ->  80a  :     0.012661 
    65a ->  79a  :     0.139695 
    66a ->  79a  :     0.069144 
    67a ->  79a  :     0.285257 
    67a ->  80a  :     0.011119 
    67a ->  81a  :     0.023339 
    68a ->  79a  :     0.037097 
    71a ->  80a  :     0.014051 
    71a ->  81a  :     0.020454 
    77a ->  80a  :     0.032634 
    77a ->  83a  :     0.026830 

STATE 24:  E=   0.263920 au      7.182 eV    57923.8 cm**-1 <S**2> =   0.000000
    66a ->  79a  :     0.017163 
    67a ->  79a  :     0.016186 
    68a ->  79a  :     0.058440 
    73a ->  80a  :     0.049705 
    73a ->  84a  :     0.029781 
    74a ->  80a  :     0.056110 
    74a ->  81a  :     0.037665 
    74a ->  83a  :     0.030883 
    75a ->  81a  :     0.014188 
    75a ->  83a  :     0.037994 
    75a ->  84a  :     0.048249 
    76a ->  80a  :     0.012787 
    76a ->  81a  :     0.012498 
    76a ->  83a  :     0.071992 
    76a ->  84a  :     0.063050 
    78a ->  80a  :     0.026311 
    78a ->  81a  :     0.067453 
    78a ->  83a  :     0.182715 

STATE 25:  E=   0.263782 au      7.178 eV    57893.6 cm**-1 <S**2> =   0.000000
    59a ->  79a  :     0.019820 
    62a ->  79a  :     0.077238 
    65a ->  79a  :     0.024860 
    66a ->  79a  :     0.409026 
    66a ->  81a  :     0.018233 
    67a ->  79a  :     0.014687 
    70a ->  79a  :     0.085289 
    70a ->  81a  :     0.015220 
    70a ->  83a  :     0.020214 
    70a ->  84a  :     0.013719 
    71a ->  79a  :     0.023636 
    71a ->  84a  :     0.013832 
    77a ->  80a  :     0.010040 
    77a ->  83a  :     0.018471 
    77a ->  84a  :     0.023330 
    78a ->  81a  :     0.017923 
    78a ->  83a  :     0.024731 

STATE 26:  E=   0.266130 au      7.242 eV    58408.8 cm**-1 <S**2> =   0.000000
    66a ->  79a  :     0.014697 
    73a ->  80a  :     0.054480 
    73a ->  83a  :     0.023110 
    73a ->  84a  :     0.019409 
    74a ->  84a  :     0.030922 
    75a ->  83a  :     0.035342 
    75a ->  84a  :     0.042367 
    76a ->  81a  :     0.046153 
    76a ->  83a  :     0.013745 
    76a ->  84a  :     0.076974 
    78a ->  81a  :     0.245157 
    78a ->  82a  :     0.021765 
    78a ->  83a  :     0.217598 
    78a ->  84a  :     0.012803 

STATE 27:  E=   0.284881 au      7.752 eV    62524.2 cm**-1 <S**2> =   0.000000
    74a ->  87a  :     0.046687 
    74a ->  88a  :     0.013359 
    74a ->  90a  :     0.012502 
    74a ->  91a  :     0.010015 
    78a ->  85a  :     0.055314 
    78a ->  86a  :     0.111958 
    78a ->  87a  :     0.421413 
    78a ->  88a  :     0.017945 
    78a ->  90a  :     0.089695 
    78a ->  91a  :     0.023968 
    78a ->  92a  :     0.024325 

STATE 28:  E=   0.270026 au      7.348 eV    59263.9 cm**-1 <S**2> =   0.000000
    63a ->  79a  :     0.048701 
    67a ->  79a  :     0.011760 
    68a ->  79a  :     0.291003 
    69a ->  79a  :     0.011440 
    72a ->  80a  :     0.041670 
    73a ->  80a  :     0.013415 
    74a ->  84a  :     0.010549 
    75a ->  80a  :     0.130145 
    75a ->  83a  :     0.017795 
    76a ->  80a  :     0.130515 
    76a ->  81a  :     0.079263 
    76a ->  82a  :     0.010776 
    78a ->  84a  :     0.011561 
    78a ->  87a  :     0.013250 

STATE 29:  E=   0.270955 au      7.373 eV    59467.8 cm**-1 <S**2> =   0.000000
    63a ->  79a  :     0.020142 
    68a ->  79a  :     0.124894 
    73a ->  80a  :     0.047701 
    74a ->  84a  :     0.012919 
    75a ->  80a  :     0.339909 
    75a ->  81a  :     0.050754 
    75a ->  84a  :     0.011635 
    76a ->  80a  :     0.171251 
    76a ->  81a  :     0.013135 
    76a ->  83a  :     0.060514 

STATE 30:  E=   0.289810 au      7.886 eV    63605.9 cm**-1 <S**2> =   0.000000
    69a ->  82a  :     0.022990 
    72a ->  85a  :     0.011245 
    73a ->  82a  :     0.019500 
    74a ->  82a  :     0.017041 
    74a ->  85a  :     0.119627 
    74a ->  90a  :     0.011959 
    75a ->  82a  :     0.025285 
    75a ->  85a  :     0.030903 
    76a ->  82a  :     0.013403 
    78a ->  82a  :     0.012829 
    78a ->  86a  :     0.286610 
    78a ->  87a  :     0.143924 
    78a ->  94a  :     0.083189 
    78a ->  95a  :     0.020741 


-------------------------
TD-DFT-EXCITATION SPECTRA
-------------------------

Center of mass = ( -0.0055, -0.0214, -0.0011)
Calculating the Dipole integrals                  ... done
Transforming integrals                            ... done
Calculating the Linear Momentum integrals         ... done
Transforming integrals                            ... done
Calculating angular momentum integrals            ... done
Transforming integrals                            ... done

-----------------------------------------------------------------------------
         ABSORPTION SPECTRUM VIA TRANSITION ELECTRIC DIPOLE MOMENTS
-----------------------------------------------------------------------------
State   Energy    Wavelength  fosc         T2        TX        TY        TZ  
        (cm-1)      (nm)                 (au**2)    (au)      (au)      (au) 
-----------------------------------------------------------------------------
   1   24308.6    411.4   0.226416402   3.06636  -1.70210  -0.41049   0.02667
   2   31408.1    318.4   0.313335541   3.28431  -0.29369  -1.78818  -0.02137
   3   33388.6    299.5   0.096333881   0.94985   0.03090  -0.97411   0.00346
   4   33414.3    299.3   0.000956246   0.00942   0.06538  -0.05178   0.04966
   5   38803.2    257.7   0.104713886   0.88841  -0.18077  -0.92472  -0.02492
   6   40880.2    244.6   1.120338328   9.02219   0.72366   2.91522   0.00472
   7   42851.2    233.4   0.002003557   0.01539   0.06186   0.10669   0.01355
   8   48457.4    206.4   0.115497850   0.78467   0.87413  -0.14280   0.01368
   9   48533.8    206.0   0.089470380   0.60689   0.67307  -0.39129   0.02748
  10   46430.3    215.4   0.196578543   1.39383  -1.03620  -0.56547  -0.01916
  11   49008.9    204.0   0.022471293   0.15095  -0.12639  -0.36731   0.00772
  12   49091.3    203.7   0.011100820   0.07444  -0.08970   0.24226   0.08779
  13   51045.8    195.9   0.728278090   4.69692  -2.03796   0.53203  -0.51049
  14   51435.4    194.4   0.483283316   3.09325   1.49947  -0.45455  -0.79890
  15   52984.8    188.7   0.364167905   2.26270   0.33951  -0.05178   1.46450
  16   55024.0    181.7   0.304163152   1.81983  -0.96054   0.94708  -0.01538
  17   52928.9    188.9   0.001698800   0.01057   0.05611   0.06244   0.05932
  18   54567.6    183.3   0.195344812   1.17853  -0.83703   0.68973   0.04676
  19   54622.4    183.1   0.087258250   0.52591   0.26946   0.66660  -0.09458
  20   56015.8    178.5   0.003312469   0.01947  -0.11309   0.03286   0.07483
  21   54844.5    182.3   0.055302358   0.33196  -0.10160   0.17142   0.54061
  22   56718.6    176.3   0.000952163   0.00553  -0.03103  -0.01536   0.06578
  23   57801.3    173.0   0.036982150   0.21063   0.18408  -0.03644  -0.41884
  24   57923.8    172.6   0.064417634   0.36612  -0.47119   0.37960  -0.00056
  25   57893.6    172.7   0.008191049   0.04658  -0.11494  -0.16735   0.07322
  26   58408.8    171.2   0.163176588   0.91972  -0.92514  -0.24819  -0.04728
  27   62524.2    159.9   0.006857194   0.03611  -0.01728  -0.05307   0.18163
  28   59263.9    168.7   0.035888938   0.19936  -0.17250  -0.41176  -0.00747
  29   59467.8    168.2   0.040927192   0.22657   0.36013  -0.30854   0.04104
  30   63605.9    157.2   0.066024768   0.34173   0.03624  -0.00665   0.58342

-----------------------------------------------------------------------------
         ABSORPTION SPECTRUM VIA TRANSITION VELOCITY DIPOLE MOMENTS
-----------------------------------------------------------------------------
State   Energy    Wavelength   fosc        P2         PX        PY        PZ  
        (cm-1)      (nm)                 (au**2)     (au)      (au)      (au) 
-----------------------------------------------------------------------------
   1   24308.6    411.4   0.291370663   0.04841   0.21413   0.05043  -0.00320
   2   31408.1    318.4   0.348554489   0.07482   0.04307   0.27010   0.00321
   3   33388.6    299.5   0.115552524   0.02637  -0.00490   0.16231  -0.00053
   4   33414.3    299.3   0.001157927   0.00026  -0.01097   0.00853  -0.00845
   5   38803.2    257.7   0.131352328   0.03483   0.03598   0.18307   0.00499
   6   40880.2    244.6   1.298740525   0.36286  -0.14490  -0.58469  -0.00093
   7   42851.2    233.4   0.002200950   0.00064  -0.01271  -0.02186  -0.00234
   8   48457.4    206.4   0.113481795   0.03758  -0.19121   0.03179  -0.00308
   9   48533.8    206.0   0.093122017   0.03089  -0.15178   0.08840  -0.00618
  10   46430.3    215.4   0.228684441   0.07257   0.23721   0.12758   0.00445
  11   49008.9    204.0   0.024577523   0.00823   0.03081   0.08532  -0.00184
  12   49091.3    203.7   0.012974740   0.00435   0.02277  -0.05828  -0.02094
  13   51045.8    195.9   0.810877123   0.28289   0.50054  -0.12945   0.12486
  14   51435.4    194.4   0.541749689   0.19044  -0.37228   0.11202   0.19825
  15   52984.8    188.7   0.404382936   0.14644  -0.08620   0.01293  -0.37261
  16   55024.0    181.7   0.331248461   0.12457   0.25133  -0.24775   0.00432
  17   52928.9    188.9   0.002010742   0.00073  -0.01490  -0.01623  -0.01555
  18   54567.6    183.3   0.228571170   0.08524   0.22473  -0.18593  -0.01307
  19   54622.4    183.1   0.102599909   0.03830  -0.07399  -0.17933   0.02589
  20   56015.8    178.5   0.003788283   0.00145   0.03115  -0.00915  -0.01991
  21   54844.5    182.3   0.067181812   0.02518   0.02762  -0.04685  -0.14908
  22   56718.6    176.3   0.000810578   0.00031   0.00823   0.00466  -0.01499
  23   57801.3    173.0   0.043154877   0.01705  -0.05238   0.01003   0.11918
  24   57923.8    172.6   0.074600464   0.02953   0.13458  -0.10687   0.00013
  25   57893.6    172.7   0.009619877   0.00381   0.03310   0.04774  -0.02077
  26   58408.8    171.2   0.190640393   0.07610   0.26637   0.07052   0.01339
  27   62524.2    159.9   0.006071328   0.00259   0.00468   0.01602  -0.04812
  28   59263.9    168.7   0.041603363   0.01685   0.05068   0.11950   0.00158
  29   59467.8    168.2   0.048955825   0.01990  -0.10610   0.09222  -0.01163
  30   63605.9    157.2   0.059219446   0.02574  -0.01147   0.00200  -0.16002

-------------------------------------------------------------------
                             CD SPECTRUM
-------------------------------------------------------------------
State  Energy     Wavelength     R         MX        MY        MZ   
       (cm-1)       (nm)     (1e40*cgs)   (au)      (au)      (au)  
-------------------------------------------------------------------
   1   24308.6    411.4    -15.60557   0.01572   0.03101   0.23916
   2   31408.1    318.4     11.36255   0.00942  -0.01526   0.01986
   3   33388.6    299.5      5.39699  -0.00365  -0.00839   0.98113
   4   33414.3    299.3     -2.81643  -0.06516  -0.00117  -0.03573
   5   38803.2    257.7     -7.94593   0.01738   0.00710   0.28674
   6   40880.2    244.6      3.70388  -0.02999   0.01128  -0.70463
   7   42851.2    233.4      2.35960   0.00857   0.04436  -0.01904
   8   48457.4    206.4      0.27718   0.00885   0.04423  -0.06049
   9   48533.8    206.0     -3.61852   0.00632   0.02948  -0.01438
  10   46430.3    215.4     16.22550  -0.00822  -0.04226  -0.10487
  11   49008.9    204.0     -6.54084  -0.00510   0.02833  -0.53255
  12   49091.3    203.7     30.00303   0.01450  -0.02154   0.79917
  13   51045.8    195.9    -167.48827   0.20680   0.30314   0.18626
  14   51435.4    194.4    183.95372   0.36038   0.57828  -0.14103
  15   52984.8    188.7    -64.49098  -0.54949  -1.16199  -0.00711
  16   55024.0    181.7     -3.15580   0.01816   0.00376  -0.46734
  17   52928.9    188.9     -2.56759  -0.01164  -0.03793  -0.04087
  18   54567.6    183.3      7.79244  -0.00641   0.06900  -0.77899
  19   54622.4    183.1     60.97124   0.01292   0.08104  -0.75941
  20   56015.8    178.5    -11.56534   0.12280  -0.33706   0.00578
  21   54844.5    182.3    -48.31307  -0.21575  -0.30691  -0.13279
  22   56718.6    176.3     -4.53391   0.18374   0.34314   0.02062
  23   57801.3    173.0     50.61906   0.28889   0.29861  -0.15537
  24   57923.8    172.6      2.55384   0.03161   0.05401   0.34342
  25   57893.6    172.7      6.22039  -0.19161   0.08154   0.06578
  26   58408.8    171.2    -48.15993   0.07618   0.05529   0.37974
  27   62524.2    159.9     -9.43136   0.11768   0.29108  -0.01390
  28   59263.9    168.7      7.93063  -0.00648  -0.03435  -0.20837
  29   59467.8    168.2     -0.71609  -0.01444  -0.00673   0.03916
  30   63605.9    157.2     17.10620   0.41765   0.15112   0.03797

Total run time:     1775.323 sec

           *** ORCA-CIS/TD-DFT FINISHED WITHOUT ERROR ***

Maximum memory used throughout the entire CIS-calculation: 3833.7 MB

-----------------------
CIS/TD-DFT TOTAL ENERGY
-----------------------

    E(SCF)  =   -938.273137627 Eh
    DE(CIS) =      0.110758079 Eh (Root  1)
    ----------------------------- ---------
    E(tot)  =   -938.162379547 Eh


-------------------------   --------------------
FINAL SINGLE POINT ENERGY      -938.162379547383
-------------------------   --------------------


                            ***************************************
                            *     ORCA property calculations      *
                            ***************************************


  WARNING: The energy has been calculated at the MP2 level but the densities
           used in the property calculations are still SCF densities
           MP2 response densities have not been calculated 
           use %mp2 Density relaxed end
           or  %mp2 Density unrelaxed end

                                    ---------------------
                                    Active property flags
                                    ---------------------
   (+) Dipole Moment


------------------------------------------------------------------------------
                       ORCA ELECTRIC PROPERTIES CALCULATION
------------------------------------------------------------------------------

Dipole Moment Calculation                       ... on
Quadrupole Moment Calculation                   ... off
Polarizability Calculation                      ... off
GBWName                                         ... Ph-Acr_2_M06L_def2TZVP_coords.gbw
Electron density                                ... Ph-Acr_2_M06L_def2TZVP_coords.scfp
The origin for moment calculation is the CENTER OF MASS  = (-0.005495, -0.021427 -0.001134)

-------------
DIPOLE MOMENT
-------------
                                X             Y             Z
Electronic contribution:     -3.08869      -2.08119      -0.17887
Nuclear contribution   :      0.87379       3.40696       0.18037
                        -----------------------------------------
Total Dipole Moment    :     -2.21490       1.32577       0.00150
                        -----------------------------------------
Magnitude (a.u.)       :      2.58137
Magnitude (Debye)      :      6.56132



--------------------
Rotational spectrum 
--------------------
 
Rotational constants in cm-1:     0.011636     0.009229     0.005463 
Rotational constants in MHz :   348.841277   276.680661   163.762894 

 Dipole components along the rotational axes: 
x,y,z [a.u.] :     2.219146     1.318646     0.005383 
x,y,z [Debye]:     5.640620     3.351731     0.013682 

 

Timings for individual modules:

Sum of individual times         ...     2188.503 sec (=  36.475 min)
GTO integral calculation        ...        1.228 sec (=   0.020 min)   0.1 %
SCF iterations                  ...      289.556 sec (=   4.826 min)  13.2 %
MP2 module                      ...      121.729 sec (=   2.029 min)   5.6 %
CIS module                      ...     1775.990 sec (=  29.600 min)  81.2 %
                             ****ORCA TERMINATED NORMALLY****
TOTAL RUN TIME: 0 days 0 hours 36 minutes 30 seconds 168 msec
