 Entering Gaussian System, Link 0=g09
 Input=/home/png4rjv/fotokatalizis/benchmark/OPCs/Rh_6G_wB97XD_def2TZVP.gjf
 Output=/home/png4rjv/fotokatalizis/benchmark/OPCs/Rh_6G_wB97XD_def2TZVP.log
 Initial command:
 /opt/nce/packages/global/g09/l1.exe "/home/png4rjv/fotokatalizis/benchmark/OPCs/Rh_6G_wB97XD_def2TZVP/Gau-39889.inp" -scrdir="/home/png4rjv/fotokatalizis/benchmark/OPCs/Rh_6G_wB97XD_def2TZVP/"
 Default is to use a total of  12 processors:
                               12 via shared-memory
                                1 via Linda
 Entering Link 1 = /opt/nce/packages/global/g09/l1.exe PID=     39890.
  
 Copyright (c) 1988,1990,1992,1993,1995,1998,2003,2009,2015,
            Gaussian, Inc.  All Rights Reserved.
  
 This is part of the Gaussian(R) 09 program.  It is based on
 the Gaussian(R) 03 system (copyright 2003, Gaussian, Inc.),
 the Gaussian(R) 98 system (copyright 1998, Gaussian, Inc.),
 the Gaussian(R) 94 system (copyright 1995, Gaussian, Inc.),
 the Gaussian 92(TM) system (copyright 1992, Gaussian, Inc.),
 the Gaussian 90(TM) system (copyright 1990, Gaussian, Inc.),
 the Gaussian 88(TM) system (copyright 1988, Gaussian, Inc.),
 the Gaussian 86(TM) system (copyright 1986, Carnegie Mellon
 University), and the Gaussian 82(TM) system (copyright 1983,
 Carnegie Mellon University). Gaussian is a federally registered
 trademark of Gaussian, Inc.
  
 This software contains proprietary and confidential information,
 including trade secrets, belonging to Gaussian, Inc.
  
 This software is provided under written license and may be
 used, copied, transmitted, or stored only in accord with that
 written license.
  
 The following legend is applicable only to US Government
 contracts under FAR:
  
                    RESTRICTED RIGHTS LEGEND
  
 Use, reproduction and disclosure by the US Government is
 subject to restrictions as set forth in subparagraphs (a)
 and (c) of the Commercial Computer Software - Restricted
 Rights clause in FAR 52.227-19.
  
 Gaussian, Inc.
 340 Quinnipiac St., Bldg. 40, Wallingford CT 06492
  
  
 ---------------------------------------------------------------
 Warning -- This program may not be used in any manner that
 competes with the business of Gaussian, Inc. or will provide
 assistance to any competitor of Gaussian, Inc.  The licensee
 of this program is prohibited from giving any competitor of
 Gaussian, Inc. access to this program.  By using this program,
 the user acknowledges that Gaussian, Inc. is engaged in the
 business of creating and licensing software in the field of
 computational chemistry and represents and warrants to the
 licensee that it is not a competitor of Gaussian, Inc. and that
 it will not use this program in any manner prohibited above.
 ---------------------------------------------------------------
  

 Cite this work as:
 Gaussian 09, Revision E.01,
 M. J. Frisch, G. W. Trucks, H. B. Schlegel, G. E. Scuseria, 
 M. A. Robb, J. R. Cheeseman, G. Scalmani, V. Barone, B. Mennucci, 
 G. A. Petersson, H. Nakatsuji, M. Caricato, X. Li, H. P. Hratchian, 
 A. F. Izmaylov, J. Bloino, G. Zheng, J. L. Sonnenberg, M. Hada, 
 M. Ehara, K. Toyota, R. Fukuda, J. Hasegawa, M. Ishida, T. Nakajima, 
 Y. Honda, O. Kitao, H. Nakai, T. Vreven, J. A. Montgomery, Jr., 
 J. E. Peralta, F. Ogliaro, M. Bearpark, J. J. Heyd, E. Brothers, 
 K. N. Kudin, V. N. Staroverov, T. Keith, R. Kobayashi, J. Normand, 
 K. Raghavachari, A. Rendell, J. C. Burant, S. S. Iyengar, J. Tomasi, 
 M. Cossi, N. Rega, J. M. Millam, M. Klene, J. E. Knox, J. B. Cross, 
 V. Bakken, C. Adamo, J. Jaramillo, R. Gomperts, R. E. Stratmann, 
 O. Yazyev, A. J. Austin, R. Cammi, C. Pomelli, J. W. Ochterski, 
 R. L. Martin, K. Morokuma, V. G. Zakrzewski, G. A. Voth, 
 P. Salvador, J. J. Dannenberg, S. Dapprich, A. D. Daniels, 
 O. Farkas, J. B. Foresman, J. V. Ortiz, J. Cioslowski, 
 and D. J. Fox, Gaussian, Inc., Wallingford CT, 2013.
 
 ******************************************
 Gaussian 09:  ES64L-G09RevE.01 30-Nov-2015
                12-Feb-2022 
 ******************************************
 %chk=cp.chk
 Default route:  MaxDisk=500GB
 ----------------------------------------------------------------------
 #p wB97XD/def2TZVP opt freq=noraman nosymm int=ultrafine scrf=(SMD,sol
 vent=Methanol)
 ----------------------------------------------------------------------
 1/14=-1,18=20,19=15,26=4,38=1/1,3;
 2/9=110,12=2,15=1,17=6,18=5,40=1/2;
 3/5=44,7=101,11=2,16=1,25=1,30=1,70=32201,71=1,72=3,74=-58,75=-5/1,2,3;
 4//1;
 5/5=2,38=5,53=3/2;
 6/7=2,8=2,9=2,10=2,28=1/1;
 7/30=1/1,2,3,16;
 1/14=-1,18=20,19=15,26=4/3(2);
 2/9=110,15=1/2;
 99//99;
 2/9=110,15=1/2;
 3/5=44,7=101,11=2,16=1,25=1,30=1,70=32205,71=1,72=3,74=-58,75=-5/1,2,3;
 4/5=5,16=3,69=1/1;
 5/5=2,38=5,53=3/2;
 7/30=1/1,2,3,16;
 1/14=-1,18=20,19=15,26=4/3(-5);
 2/9=110,15=1/2;
 6/7=2,8=2,9=2,10=2,19=2,28=1/1;
 99/9=1/99;
 Leave Link    1 at Sat Feb 12 11:35:43 2022, MaxMem=           0 cpu:         0.9
 (Enter /opt/nce/packages/global/g09/l101.exe)
 -----
 Title
 -----
 Symbolic Z-matrix:
 Charge =  1 Multiplicity = 1
 C                     4.08261   0.89298  -0.13222 
 C                     2.95433   1.72319  -0.15298 
 C                     1.6977    1.21507   0.10229 
 C                     1.51104  -0.16207   0.40045 
 C                     2.66216  -0.98844   0.39875 
 C                     3.91077  -0.50473   0.14896 
 C                     0.21299  -0.63127   0.64765 
 C                    -0.85474   0.28124   0.63293 
 C                    -0.59094   1.63939   0.31255 
 C                    -1.61028   2.56761   0.25397 
 H                    -1.35758   3.58276   0.00154 
 C                    -2.93561   2.1965    0.5131 
 C                    -3.21928   0.83069   0.85222 
 C                    -2.19913  -0.07123   0.90595 
 H                     3.04207   2.77276  -0.37392 
 H                     2.52699  -2.03901   0.60435 
 H                    -2.40941  -1.09746   1.16656 
 O                     0.65902   2.07202   0.05552 
 C                    -0.02629  -2.05143   0.95966 
 C                     0.36212  -2.5682    2.19067 
 C                    -0.675    -2.88667   0.04025 
 C                     0.10807  -3.89189   2.50661 
 H                     0.85511  -1.92342   2.90205 
 C                    -0.92891  -4.21566   0.36904 
 C                    -0.53881  -4.7157    1.59779 
 H                     0.41554  -4.28089   3.46503 
 H                    -1.42426  -4.84759  -0.35097 
 H                    -0.7358   -5.74708   1.84536 
 N                     5.30781   1.37504  -0.36939 
 C                     5.62936   2.75283  -0.66884 
 H                     5.29142   3.39398   0.1531 
 H                     5.10701   3.06248  -1.58145 
 C                     7.13101   2.90555  -0.85721 
 H                     7.47997   2.29038  -1.68324 
 H                     7.37099   3.94107  -1.08015 
 H                     7.66312   2.62      0.04707 
 C                    -1.04733  -2.345    -1.28932 
 O                    -0.52623  -1.37045  -1.79427 
 O                    -2.0121   -3.05316  -1.86734 
 C                    -3.79521   4.48988   0.13679 
 H                    -3.3536    4.5969   -0.86059 
 H                    -3.12438   4.96652   0.86078 
 C                    -5.15693   5.16674   0.17308 
 H                    -5.6002    5.08656   1.16281 
 H                    -5.05099   6.2206   -0.06727 
 H                    -5.82932   4.71795  -0.55417 
 N                    -3.93391   3.08626   0.45631 
 H                     6.0846    0.73165  -0.35396 
 H                    -4.86946   2.76746   0.6573 
 C                    -4.62813   0.41164   1.14451 
 H                    -5.02352   0.95439   2.00254 
 H                    -5.27434   0.595     0.28672 
 H                    -4.66287  -0.64964   1.37246 
 C                     5.10179  -1.41401   0.16398 
 H                     5.81782  -1.10334   0.92414 
 H                     4.79288  -2.43083   0.38732 
 H                     5.59943  -1.41816  -0.80525 
 C                    -2.49171  -2.61495  -3.14529 
 H                    -1.64444  -2.25053  -3.73502 
 H                    -2.91194  -3.51037  -3.60601 
 C                    -3.54452  -1.52664  -2.9922 
 H                    -3.94319  -1.27353  -3.96977 
 H                    -4.3532   -1.877    -2.35609 
 H                    -3.09948  -0.63783  -2.55065 
 
 NAtoms=     64 NQM=       64 NQMF=       0 NMMI=      0 NMMIF=      0
                NMic=       0 NMicF=      0.
                    Isotopes and Nuclear Properties:
 (Nuclear quadrupole moments (NQMom) in fm**2, nuclear magnetic moments (NMagM)
  in nuclear magnetons)

  Atom         1           2           3           4           5           6           7           8           9          10
 IAtWgt=          12          12          12          12          12          12          12          12          12          12
 AtmWgt=  12.0000000  12.0000000  12.0000000  12.0000000  12.0000000  12.0000000  12.0000000  12.0000000  12.0000000  12.0000000
 NucSpn=           0           0           0           0           0           0           0           0           0           0
 AtZEff=   0.0000000   0.0000000   0.0000000   0.0000000   0.0000000   0.0000000   0.0000000   0.0000000   0.0000000   0.0000000
 NQMom=    0.0000000   0.0000000   0.0000000   0.0000000   0.0000000   0.0000000   0.0000000   0.0000000   0.0000000   0.0000000
 NMagM=    0.0000000   0.0000000   0.0000000   0.0000000   0.0000000   0.0000000   0.0000000   0.0000000   0.0000000   0.0000000
 AtZNuc=   6.0000000   6.0000000   6.0000000   6.0000000   6.0000000   6.0000000   6.0000000   6.0000000   6.0000000   6.0000000

  Atom        11          12          13          14          15          16          17          18          19          20
 IAtWgt=           1          12          12          12           1           1           1          16          12          12
 AtmWgt=   1.0078250  12.0000000  12.0000000  12.0000000   1.0078250   1.0078250   1.0078250  15.9949146  12.0000000  12.0000000
 NucSpn=           1           0           0           0           1           1           1           0           0           0
 AtZEff=   0.0000000   0.0000000   0.0000000   0.0000000   0.0000000   0.0000000   0.0000000   0.0000000   0.0000000   0.0000000
 NQMom=    0.0000000   0.0000000   0.0000000   0.0000000   0.0000000   0.0000000   0.0000000   0.0000000   0.0000000   0.0000000
 NMagM=    2.7928460   0.0000000   0.0000000   0.0000000   2.7928460   2.7928460   2.7928460   0.0000000   0.0000000   0.0000000
 AtZNuc=   1.0000000   6.0000000   6.0000000   6.0000000   1.0000000   1.0000000   1.0000000   8.0000000   6.0000000   6.0000000

  Atom        21          22          23          24          25          26          27          28          29          30
 IAtWgt=          12          12           1          12          12           1           1           1          14          12
 AtmWgt=  12.0000000  12.0000000   1.0078250  12.0000000  12.0000000   1.0078250   1.0078250   1.0078250  14.0030740  12.0000000
 NucSpn=           0           0           1           0           0           1           1           1           2           0
 AtZEff=   0.0000000   0.0000000   0.0000000   0.0000000   0.0000000   0.0000000   0.0000000   0.0000000   0.0000000   0.0000000
 NQMom=    0.0000000   0.0000000   0.0000000   0.0000000   0.0000000   0.0000000   0.0000000   0.0000000   2.0440000   0.0000000
 NMagM=    0.0000000   0.0000000   2.7928460   0.0000000   0.0000000   2.7928460   2.7928460   2.7928460   0.4037610   0.0000000
 AtZNuc=   6.0000000   6.0000000   1.0000000   6.0000000   6.0000000   1.0000000   1.0000000   1.0000000   7.0000000   6.0000000

  Atom        31          32          33          34          35          36          37          38          39          40
 IAtWgt=           1           1          12           1           1           1          12          16          16          12
 AtmWgt=   1.0078250   1.0078250  12.0000000   1.0078250   1.0078250   1.0078250  12.0000000  15.9949146  15.9949146  12.0000000
 NucSpn=           1           1           0           1           1           1           0           0           0           0
 AtZEff=   0.0000000   0.0000000   0.0000000   0.0000000   0.0000000   0.0000000   0.0000000   0.0000000   0.0000000   0.0000000
 NQMom=    0.0000000   0.0000000   0.0000000   0.0000000   0.0000000   0.0000000   0.0000000   0.0000000   0.0000000   0.0000000
 NMagM=    2.7928460   2.7928460   0.0000000   2.7928460   2.7928460   2.7928460   0.0000000   0.0000000   0.0000000   0.0000000
 AtZNuc=   1.0000000   1.0000000   6.0000000   1.0000000   1.0000000   1.0000000   6.0000000   8.0000000   8.0000000   6.0000000

  Atom        41          42          43          44          45          46          47          48          49          50
 IAtWgt=           1           1          12           1           1           1          14           1           1          12
 AtmWgt=   1.0078250   1.0078250  12.0000000   1.0078250   1.0078250   1.0078250  14.0030740   1.0078250   1.0078250  12.0000000
 NucSpn=           1           1           0           1           1           1           2           1           1           0
 AtZEff=   0.0000000   0.0000000   0.0000000   0.0000000   0.0000000   0.0000000   0.0000000   0.0000000   0.0000000   0.0000000
 NQMom=    0.0000000   0.0000000   0.0000000   0.0000000   0.0000000   0.0000000   2.0440000   0.0000000   0.0000000   0.0000000
 NMagM=    2.7928460   2.7928460   0.0000000   2.7928460   2.7928460   2.7928460   0.4037610   2.7928460   2.7928460   0.0000000
 AtZNuc=   1.0000000   1.0000000   6.0000000   1.0000000   1.0000000   1.0000000   7.0000000   1.0000000   1.0000000   6.0000000

  Atom        51          52          53          54          55          56          57          58          59          60
 IAtWgt=           1           1           1          12           1           1           1          12           1           1
 AtmWgt=   1.0078250   1.0078250   1.0078250  12.0000000   1.0078250   1.0078250   1.0078250  12.0000000   1.0078250   1.0078250
 NucSpn=           1           1           1           0           1           1           1           0           1           1
 AtZEff=   0.0000000   0.0000000   0.0000000   0.0000000   0.0000000   0.0000000   0.0000000   0.0000000   0.0000000   0.0000000
 NQMom=    0.0000000   0.0000000   0.0000000   0.0000000   0.0000000   0.0000000   0.0000000   0.0000000   0.0000000   0.0000000
 NMagM=    2.7928460   2.7928460   2.7928460   0.0000000   2.7928460   2.7928460   2.7928460   0.0000000   2.7928460   2.7928460
 AtZNuc=   1.0000000   1.0000000   1.0000000   6.0000000   1.0000000   1.0000000   1.0000000   6.0000000   1.0000000   1.0000000

  Atom        61          62          63          64
 IAtWgt=          12           1           1           1
 AtmWgt=  12.0000000   1.0078250   1.0078250   1.0078250
 NucSpn=           0           1           1           1
 AtZEff=   0.0000000   0.0000000   0.0000000   0.0000000
 NQMom=    0.0000000   0.0000000   0.0000000   0.0000000
 NMagM=    0.0000000   2.7928460   2.7928460   2.7928460
 AtZNuc=   6.0000000   1.0000000   1.0000000   1.0000000
 Leave Link  101 at Sat Feb 12 11:35:43 2022, MaxMem=  5242880000 cpu:         4.4
 (Enter /opt/nce/packages/global/g09/l103.exe)

 GradGradGradGradGradGradGradGradGradGradGradGradGradGradGradGradGradGrad
 Berny optimization.
 Initialization pass.
                           ----------------------------
                           !    Initial Parameters    !
                           ! (Angstroms and Degrees)  !
 --------------------------                            --------------------------
 ! Name  Definition              Value          Derivative Info.                !
 --------------------------------------------------------------------------------
 ! R1    R(1,2)                  1.401          estimate D2E/DX2                !
 ! R2    R(1,6)                  1.436          estimate D2E/DX2                !
 ! R3    R(1,29)                 1.3378         estimate D2E/DX2                !
 ! R4    R(2,3)                  1.3793         estimate D2E/DX2                !
 ! R5    R(2,15)                 1.0762         estimate D2E/DX2                !
 ! R6    R(3,4)                  1.4214         estimate D2E/DX2                !
 ! R7    R(3,18)                 1.3474         estimate D2E/DX2                !
 ! R8    R(4,5)                  1.417          estimate D2E/DX2                !
 ! R9    R(4,7)                  1.4022         estimate D2E/DX2                !
 ! R10   R(5,6)                  1.3621         estimate D2E/DX2                !
 ! R11   R(5,16)                 1.079          estimate D2E/DX2                !
 ! R12   R(6,54)                 1.4985         estimate D2E/DX2                !
 ! R13   R(7,8)                  1.4046         estimate D2E/DX2                !
 ! R14   R(7,19)                 1.4736         estimate D2E/DX2                !
 ! R15   R(8,9)                  1.4201         estimate D2E/DX2                !
 ! R16   R(8,14)                 1.4164         estimate D2E/DX2                !
 ! R17   R(9,10)                 1.3799         estimate D2E/DX2                !
 ! R18   R(9,18)                 1.3475         estimate D2E/DX2                !
 ! R19   R(10,11)                1.0761         estimate D2E/DX2                !
 ! R20   R(10,12)                1.4005         estimate D2E/DX2                !
 ! R21   R(12,13)                1.4356         estimate D2E/DX2                !
 ! R22   R(12,47)                1.3385         estimate D2E/DX2                !
 ! R23   R(13,14)                1.3627         estimate D2E/DX2                !
 ! R24   R(13,50)                1.4986         estimate D2E/DX2                !
 ! R25   R(14,17)                1.0795         estimate D2E/DX2                !
 ! R26   R(19,20)                1.3904         estimate D2E/DX2                !
 ! R27   R(19,21)                1.4013         estimate D2E/DX2                !
 ! R28   R(20,22)                1.3844         estimate D2E/DX2                !
 ! R29   R(20,23)                1.0793         estimate D2E/DX2                !
 ! R30   R(21,24)                1.3924         estimate D2E/DX2                !
 ! R31   R(21,37)                1.4832         estimate D2E/DX2                !
 ! R32   R(22,25)                1.3868         estimate D2E/DX2                !
 ! R33   R(22,26)                1.0791         estimate D2E/DX2                !
 ! R34   R(24,25)                1.3828         estimate D2E/DX2                !
 ! R35   R(24,27)                1.0785         estimate D2E/DX2                !
 ! R36   R(25,28)                1.0788         estimate D2E/DX2                !
 ! R37   R(29,30)                1.4462         estimate D2E/DX2                !
 ! R38   R(29,48)                1.0088         estimate D2E/DX2                !
 ! R39   R(30,31)                1.0958         estimate D2E/DX2                !
 ! R40   R(30,32)                1.0962         estimate D2E/DX2                !
 ! R41   R(30,33)                1.5211         estimate D2E/DX2                !
 ! R42   R(33,34)                1.0874         estimate D2E/DX2                !
 ! R43   R(33,35)                1.0861         estimate D2E/DX2                !
 ! R44   R(33,36)                1.0874         estimate D2E/DX2                !
 ! R45   R(37,38)                1.215          estimate D2E/DX2                !
 ! R46   R(37,39)                1.3291         estimate D2E/DX2                !
 ! R47   R(39,58)                1.4336         estimate D2E/DX2                !
 ! R48   R(40,41)                1.096          estimate D2E/DX2                !
 ! R49   R(40,42)                1.0961         estimate D2E/DX2                !
 ! R50   R(40,43)                1.5211         estimate D2E/DX2                !
 ! R51   R(40,47)                1.4462         estimate D2E/DX2                !
 ! R52   R(43,44)                1.0874         estimate D2E/DX2                !
 ! R53   R(43,45)                1.0861         estimate D2E/DX2                !
 ! R54   R(43,46)                1.0874         estimate D2E/DX2                !
 ! R55   R(47,49)                1.0086         estimate D2E/DX2                !
 ! R56   R(50,51)                1.0896         estimate D2E/DX2                !
 ! R57   R(50,52)                1.0895         estimate D2E/DX2                !
 ! R58   R(50,53)                1.086          estimate D2E/DX2                !
 ! R59   R(54,55)                1.0895         estimate D2E/DX2                !
 ! R60   R(54,56)                1.0859         estimate D2E/DX2                !
 ! R61   R(54,57)                1.0895         estimate D2E/DX2                !
 ! R62   R(58,59)                1.0947         estimate D2E/DX2                !
 ! R63   R(58,60)                1.0912         estimate D2E/DX2                !
 ! R64   R(58,61)                1.5219         estimate D2E/DX2                !
 ! R65   R(61,62)                1.0857         estimate D2E/DX2                !
 ! R66   R(61,63)                1.0869         estimate D2E/DX2                !
 ! R67   R(61,64)                1.0877         estimate D2E/DX2                !
 ! A1    A(2,1,6)              118.9023         estimate D2E/DX2                !
 ! A2    A(2,1,29)             121.4269         estimate D2E/DX2                !
 ! A3    A(6,1,29)             119.6707         estimate D2E/DX2                !
 ! A4    A(1,2,3)              120.8428         estimate D2E/DX2                !
 ! A5    A(1,2,15)             121.0197         estimate D2E/DX2                !
 ! A6    A(3,2,15)             118.1365         estimate D2E/DX2                !
 ! A7    A(2,3,4)              121.024          estimate D2E/DX2                !
 ! A8    A(2,3,18)             117.4906         estimate D2E/DX2                !
 ! A9    A(4,3,18)             121.4853         estimate D2E/DX2                !
 ! A10   A(3,4,5)              117.2644         estimate D2E/DX2                !
 ! A11   A(3,4,7)              118.8656         estimate D2E/DX2                !
 ! A12   A(5,4,7)              123.854          estimate D2E/DX2                !
 ! A13   A(4,5,6)              122.5323         estimate D2E/DX2                !
 ! A14   A(4,5,16)             117.7629         estimate D2E/DX2                !
 ! A15   A(6,5,16)             119.7049         estimate D2E/DX2                !
 ! A16   A(1,6,5)              119.4216         estimate D2E/DX2                !
 ! A17   A(1,6,54)             119.8317         estimate D2E/DX2                !
 ! A18   A(5,6,54)             120.7467         estimate D2E/DX2                !
 ! A19   A(4,7,8)              118.9769         estimate D2E/DX2                !
 ! A20   A(4,7,19)             120.6722         estimate D2E/DX2                !
 ! A21   A(8,7,19)             120.3241         estimate D2E/DX2                !
 ! A22   A(7,8,9)              118.846          estimate D2E/DX2                !
 ! A23   A(7,8,14)             123.9055         estimate D2E/DX2                !
 ! A24   A(9,8,14)             117.2446         estimate D2E/DX2                !
 ! A25   A(8,9,10)             121.0423         estimate D2E/DX2                !
 ! A26   A(8,9,18)             121.4941         estimate D2E/DX2                !
 ! A27   A(10,9,18)            117.4636         estimate D2E/DX2                !
 ! A28   A(9,10,11)            118.1016         estimate D2E/DX2                !
 ! A29   A(9,10,12)            120.8613         estimate D2E/DX2                !
 ! A30   A(11,10,12)           121.037          estimate D2E/DX2                !
 ! A31   A(10,12,13)           118.8693         estimate D2E/DX2                !
 ! A32   A(10,12,47)           121.4543         estimate D2E/DX2                !
 ! A33   A(13,12,47)           119.6758         estimate D2E/DX2                !
 ! A34   A(12,13,14)           119.4107         estimate D2E/DX2                !
 ! A35   A(12,13,50)           119.8588         estimate D2E/DX2                !
 ! A36   A(14,13,50)           120.7304         estimate D2E/DX2                !
 ! A37   A(8,14,13)            122.5643         estimate D2E/DX2                !
 ! A38   A(8,14,17)            117.9047         estimate D2E/DX2                !
 ! A39   A(13,14,17)           119.531          estimate D2E/DX2                !
 ! A40   A(3,18,9)             120.2836         estimate D2E/DX2                !
 ! A41   A(7,19,20)            120.0187         estimate D2E/DX2                !
 ! A42   A(7,19,21)            120.7084         estimate D2E/DX2                !
 ! A43   A(20,19,21)           119.2526         estimate D2E/DX2                !
 ! A44   A(19,20,22)           120.4086         estimate D2E/DX2                !
 ! A45   A(19,20,23)           119.282          estimate D2E/DX2                !
 ! A46   A(22,20,23)           120.3064         estimate D2E/DX2                !
 ! A47   A(19,21,24)           119.8924         estimate D2E/DX2                !
 ! A48   A(19,21,37)           119.1229         estimate D2E/DX2                !
 ! A49   A(24,21,37)           120.9623         estimate D2E/DX2                !
 ! A50   A(20,22,25)           120.268          estimate D2E/DX2                !
 ! A51   A(20,22,26)           119.6765         estimate D2E/DX2                !
 ! A52   A(25,22,26)           120.0554         estimate D2E/DX2                !
 ! A53   A(21,24,25)           120.2346         estimate D2E/DX2                !
 ! A54   A(21,24,27)           119.0367         estimate D2E/DX2                !
 ! A55   A(25,24,27)           120.7263         estimate D2E/DX2                !
 ! A56   A(22,25,24)           119.943          estimate D2E/DX2                !
 ! A57   A(22,25,28)           120.18           estimate D2E/DX2                !
 ! A58   A(24,25,28)           119.8768         estimate D2E/DX2                !
 ! A59   A(1,29,30)            125.7067         estimate D2E/DX2                !
 ! A60   A(1,29,48)            118.2095         estimate D2E/DX2                !
 ! A61   A(30,29,48)           116.0783         estimate D2E/DX2                !
 ! A62   A(29,30,31)           109.4837         estimate D2E/DX2                !
 ! A63   A(29,30,32)           109.6068         estimate D2E/DX2                !
 ! A64   A(29,30,33)           109.9257         estimate D2E/DX2                !
 ! A65   A(31,30,32)           108.1938         estimate D2E/DX2                !
 ! A66   A(31,30,33)           109.7903         estimate D2E/DX2                !
 ! A67   A(32,30,33)           109.814          estimate D2E/DX2                !
 ! A68   A(30,33,34)           110.7361         estimate D2E/DX2                !
 ! A69   A(30,33,35)           109.8331         estimate D2E/DX2                !
 ! A70   A(30,33,36)           110.7165         estimate D2E/DX2                !
 ! A71   A(34,33,35)           108.2116         estimate D2E/DX2                !
 ! A72   A(34,33,36)           109.0329         estimate D2E/DX2                !
 ! A73   A(35,33,36)           108.2373         estimate D2E/DX2                !
 ! A74   A(21,37,38)           123.9047         estimate D2E/DX2                !
 ! A75   A(21,37,39)           112.1795         estimate D2E/DX2                !
 ! A76   A(38,37,39)           123.9149         estimate D2E/DX2                !
 ! A77   A(37,39,58)           117.8831         estimate D2E/DX2                !
 ! A78   A(41,40,42)           108.1817         estimate D2E/DX2                !
 ! A79   A(41,40,43)           109.8137         estimate D2E/DX2                !
 ! A80   A(41,40,47)           109.5401         estimate D2E/DX2                !
 ! A81   A(42,40,43)           109.7935         estimate D2E/DX2                !
 ! A82   A(42,40,47)           109.5623         estimate D2E/DX2                !
 ! A83   A(43,40,47)           109.923          estimate D2E/DX2                !
 ! A84   A(40,43,44)           110.7219         estimate D2E/DX2                !
 ! A85   A(40,43,45)           109.8266         estimate D2E/DX2                !
 ! A86   A(40,43,46)           110.7291         estimate D2E/DX2                !
 ! A87   A(44,43,45)           108.2234         estimate D2E/DX2                !
 ! A88   A(44,43,46)           109.0395         estimate D2E/DX2                !
 ! A89   A(45,43,46)           108.2273         estimate D2E/DX2                !
 ! A90   A(12,47,40)           125.6641         estimate D2E/DX2                !
 ! A91   A(12,47,49)           118.2461         estimate D2E/DX2                !
 ! A92   A(40,47,49)           116.0883         estimate D2E/DX2                !
 ! A93   A(13,50,51)           110.8212         estimate D2E/DX2                !
 ! A94   A(13,50,52)           110.9143         estimate D2E/DX2                !
 ! A95   A(13,50,53)           110.1361         estimate D2E/DX2                !
 ! A96   A(51,50,52)           108.7205         estimate D2E/DX2                !
 ! A97   A(51,50,53)           108.0527         estimate D2E/DX2                !
 ! A98   A(52,50,53)           108.1035         estimate D2E/DX2                !
 ! A99   A(6,54,55)            110.8739         estimate D2E/DX2                !
 ! A100  A(6,54,56)            110.1298         estimate D2E/DX2                !
 ! A101  A(6,54,57)            110.8801         estimate D2E/DX2                !
 ! A102  A(55,54,56)           108.087          estimate D2E/DX2                !
 ! A103  A(55,54,57)           108.758          estimate D2E/DX2                !
 ! A104  A(56,54,57)           108.0184         estimate D2E/DX2                !
 ! A105  A(39,58,59)           108.8472         estimate D2E/DX2                !
 ! A106  A(39,58,60)           104.7373         estimate D2E/DX2                !
 ! A107  A(39,58,61)           111.1213         estimate D2E/DX2                !
 ! A108  A(59,58,60)           110.1074         estimate D2E/DX2                !
 ! A109  A(59,58,61)           110.5811         estimate D2E/DX2                !
 ! A110  A(60,58,61)           111.276          estimate D2E/DX2                !
 ! A111  A(58,61,62)           109.2791         estimate D2E/DX2                !
 ! A112  A(58,61,63)           110.0629         estimate D2E/DX2                !
 ! A113  A(58,61,64)           110.0072         estimate D2E/DX2                !
 ! A114  A(62,61,63)           109.2032         estimate D2E/DX2                !
 ! A115  A(62,61,64)           108.9826         estimate D2E/DX2                !
 ! A116  A(63,61,64)           109.2843         estimate D2E/DX2                !
 ! D1    D(6,1,2,3)              0.5247         estimate D2E/DX2                !
 ! D2    D(6,1,2,15)          -179.108          estimate D2E/DX2                !
 ! D3    D(29,1,2,3)          -179.5535         estimate D2E/DX2                !
 ! D4    D(29,1,2,15)            0.8137         estimate D2E/DX2                !
 ! D5    D(2,1,6,5)             -0.5247         estimate D2E/DX2                !
 ! D6    D(2,1,6,54)           179.4394         estimate D2E/DX2                !
 ! D7    D(29,1,6,5)           179.5521         estimate D2E/DX2                !
 ! D8    D(29,1,6,54)           -0.4838         estimate D2E/DX2                !
 ! D9    D(2,1,29,30)           -0.1108         estimate D2E/DX2                !
 ! D10   D(2,1,29,48)         -179.2235         estimate D2E/DX2                !
 ! D11   D(6,1,29,30)          179.8104         estimate D2E/DX2                !
 ! D12   D(6,1,29,48)            0.6977         estimate D2E/DX2                !
 ! D13   D(1,2,3,4)              0.335          estimate D2E/DX2                !
 ! D14   D(1,2,3,18)          -179.5493         estimate D2E/DX2                !
 ! D15   D(15,2,3,4)           179.9782         estimate D2E/DX2                !
 ! D16   D(15,2,3,18)            0.0938         estimate D2E/DX2                !
 ! D17   D(2,3,4,5)             -1.1571         estimate D2E/DX2                !
 ! D18   D(2,3,4,7)           -179.7567         estimate D2E/DX2                !
 ! D19   D(18,3,4,5)           178.7226         estimate D2E/DX2                !
 ! D20   D(18,3,4,7)             0.123          estimate D2E/DX2                !
 ! D21   D(2,3,18,9)          -179.1469         estimate D2E/DX2                !
 ! D22   D(4,3,18,9)             0.9692         estimate D2E/DX2                !
 ! D23   D(3,4,5,6)              1.1681         estimate D2E/DX2                !
 ! D24   D(3,4,5,16)          -178.7863         estimate D2E/DX2                !
 ! D25   D(7,4,5,6)            179.6913         estimate D2E/DX2                !
 ! D26   D(7,4,5,16)            -0.2631         estimate D2E/DX2                !
 ! D27   D(3,4,7,8)             -1.921          estimate D2E/DX2                !
 ! D28   D(3,4,7,19)           179.9567         estimate D2E/DX2                !
 ! D29   D(5,4,7,8)            179.578          estimate D2E/DX2                !
 ! D30   D(5,4,7,19)             1.4557         estimate D2E/DX2                !
 ! D31   D(4,5,6,1)             -0.3419         estimate D2E/DX2                !
 ! D32   D(4,5,6,54)           179.6943         estimate D2E/DX2                !
 ! D33   D(16,5,6,1)           179.6116         estimate D2E/DX2                !
 ! D34   D(16,5,6,54)           -0.3521         estimate D2E/DX2                !
 ! D35   D(1,6,54,55)           60.688          estimate D2E/DX2                !
 ! D36   D(1,6,54,56)         -179.7306         estimate D2E/DX2                !
 ! D37   D(1,6,54,57)          -60.2306         estimate D2E/DX2                !
 ! D38   D(5,6,54,55)         -119.3485         estimate D2E/DX2                !
 ! D39   D(5,6,54,56)            0.233          estimate D2E/DX2                !
 ! D40   D(5,6,54,57)          119.733          estimate D2E/DX2                !
 ! D41   D(4,7,8,9)              2.617          estimate D2E/DX2                !
 ! D42   D(4,7,8,14)          -178.121          estimate D2E/DX2                !
 ! D43   D(19,7,8,9)          -179.254          estimate D2E/DX2                !
 ! D44   D(19,7,8,14)            0.008          estimate D2E/DX2                !
 ! D45   D(4,7,19,20)           71.7392         estimate D2E/DX2                !
 ! D46   D(4,7,19,21)         -109.9074         estimate D2E/DX2                !
 ! D47   D(8,7,19,20)         -106.3578         estimate D2E/DX2                !
 ! D48   D(8,7,19,21)           71.9956         estimate D2E/DX2                !
 ! D49   D(7,8,9,10)           178.4593         estimate D2E/DX2                !
 ! D50   D(7,8,9,18)            -1.5845         estimate D2E/DX2                !
 ! D51   D(14,8,9,10)           -0.8517         estimate D2E/DX2                !
 ! D52   D(14,8,9,18)          179.1045         estimate D2E/DX2                !
 ! D53   D(7,8,14,13)         -178.3618         estimate D2E/DX2                !
 ! D54   D(7,8,14,17)            1.7108         estimate D2E/DX2                !
 ! D55   D(9,8,14,13)            0.9111         estimate D2E/DX2                !
 ! D56   D(9,8,14,17)         -179.0163         estimate D2E/DX2                !
 ! D57   D(8,9,10,11)         -179.6756         estimate D2E/DX2                !
 ! D58   D(8,9,10,12)            0.1864         estimate D2E/DX2                !
 ! D59   D(18,9,10,11)           0.3665         estimate D2E/DX2                !
 ! D60   D(18,9,10,12)        -179.7715         estimate D2E/DX2                !
 ! D61   D(8,9,18,3)            -0.2294         estimate D2E/DX2                !
 ! D62   D(10,9,18,3)          179.7283         estimate D2E/DX2                !
 ! D63   D(9,10,12,13)           0.4567         estimate D2E/DX2                !
 ! D64   D(9,10,12,47)        -179.8286         estimate D2E/DX2                !
 ! D65   D(11,10,12,13)       -179.6853         estimate D2E/DX2                !
 ! D66   D(11,10,12,47)          0.0293         estimate D2E/DX2                !
 ! D67   D(10,12,13,14)         -0.4065         estimate D2E/DX2                !
 ! D68   D(10,12,13,50)        179.5125         estimate D2E/DX2                !
 ! D69   D(47,12,13,14)        179.8736         estimate D2E/DX2                !
 ! D70   D(47,12,13,50)         -0.2074         estimate D2E/DX2                !
 ! D71   D(10,12,47,40)         -0.0805         estimate D2E/DX2                !
 ! D72   D(10,12,47,49)       -179.6356         estimate D2E/DX2                !
 ! D73   D(13,12,47,40)        179.6319         estimate D2E/DX2                !
 ! D74   D(13,12,47,49)          0.0768         estimate D2E/DX2                !
 ! D75   D(12,13,14,8)          -0.2925         estimate D2E/DX2                !
 ! D76   D(12,13,14,17)        179.6337         estimate D2E/DX2                !
 ! D77   D(50,13,14,8)         179.7892         estimate D2E/DX2                !
 ! D78   D(50,13,14,17)         -0.2845         estimate D2E/DX2                !
 ! D79   D(12,13,50,51)        -60.9869         estimate D2E/DX2                !
 ! D80   D(12,13,50,52)         59.8718         estimate D2E/DX2                !
 ! D81   D(12,13,50,53)        179.5038         estimate D2E/DX2                !
 ! D82   D(14,13,50,51)        118.9311         estimate D2E/DX2                !
 ! D83   D(14,13,50,52)       -120.2103         estimate D2E/DX2                !
 ! D84   D(14,13,50,53)         -0.5783         estimate D2E/DX2                !
 ! D85   D(7,19,20,22)         178.2086         estimate D2E/DX2                !
 ! D86   D(7,19,20,23)          -1.1645         estimate D2E/DX2                !
 ! D87   D(21,19,20,22)         -0.1687         estimate D2E/DX2                !
 ! D88   D(21,19,20,23)       -179.5419         estimate D2E/DX2                !
 ! D89   D(7,19,21,24)        -178.0335         estimate D2E/DX2                !
 ! D90   D(7,19,21,37)           3.6686         estimate D2E/DX2                !
 ! D91   D(20,19,21,24)          0.3323         estimate D2E/DX2                !
 ! D92   D(20,19,21,37)       -177.9655         estimate D2E/DX2                !
 ! D93   D(19,20,22,25)         -0.0912         estimate D2E/DX2                !
 ! D94   D(19,20,22,26)        179.9405         estimate D2E/DX2                !
 ! D95   D(23,20,22,25)        179.2756         estimate D2E/DX2                !
 ! D96   D(23,20,22,26)         -0.6927         estimate D2E/DX2                !
 ! D97   D(19,21,24,25)         -0.2386         estimate D2E/DX2                !
 ! D98   D(19,21,24,27)       -179.6746         estimate D2E/DX2                !
 ! D99   D(37,21,24,25)        178.0273         estimate D2E/DX2                !
 ! D100  D(37,21,24,27)         -1.4087         estimate D2E/DX2                !
 ! D101  D(19,21,37,38)         21.3207         estimate D2E/DX2                !
 ! D102  D(19,21,37,39)       -159.0048         estimate D2E/DX2                !
 ! D103  D(24,21,37,38)       -156.9583         estimate D2E/DX2                !
 ! D104  D(24,21,37,39)         22.7162         estimate D2E/DX2                !
 ! D105  D(20,22,25,24)          0.188          estimate D2E/DX2                !
 ! D106  D(20,22,25,28)        179.9816         estimate D2E/DX2                !
 ! D107  D(26,22,25,24)       -179.8438         estimate D2E/DX2                !
 ! D108  D(26,22,25,28)         -0.0502         estimate D2E/DX2                !
 ! D109  D(21,24,25,22)         -0.0222         estimate D2E/DX2                !
 ! D110  D(21,24,25,28)       -179.8163         estimate D2E/DX2                !
 ! D111  D(27,24,25,22)        179.4042         estimate D2E/DX2                !
 ! D112  D(27,24,25,28)         -0.39           estimate D2E/DX2                !
 ! D113  D(1,29,30,31)          58.5653         estimate D2E/DX2                !
 ! D114  D(1,29,30,32)         -59.9644         estimate D2E/DX2                !
 ! D115  D(1,29,30,33)         179.2468         estimate D2E/DX2                !
 ! D116  D(48,29,30,31)       -122.3053         estimate D2E/DX2                !
 ! D117  D(48,29,30,32)        119.1651         estimate D2E/DX2                !
 ! D118  D(48,29,30,33)         -1.6237         estimate D2E/DX2                !
 ! D119  D(29,30,33,34)         60.6476         estimate D2E/DX2                !
 ! D120  D(29,30,33,35)       -179.8939         estimate D2E/DX2                !
 ! D121  D(29,30,33,36)        -60.4157         estimate D2E/DX2                !
 ! D122  D(31,30,33,34)       -178.8559         estimate D2E/DX2                !
 ! D123  D(31,30,33,35)        -59.3973         estimate D2E/DX2                !
 ! D124  D(31,30,33,36)         60.0808         estimate D2E/DX2                !
 ! D125  D(32,30,33,34)        -60.0164         estimate D2E/DX2                !
 ! D126  D(32,30,33,35)         59.4422         estimate D2E/DX2                !
 ! D127  D(32,30,33,36)        178.9203         estimate D2E/DX2                !
 ! D128  D(21,37,39,58)        178.3963         estimate D2E/DX2                !
 ! D129  D(38,37,39,58)         -1.9292         estimate D2E/DX2                !
 ! D130  D(37,39,58,59)         38.355          estimate D2E/DX2                !
 ! D131  D(37,39,58,60)        156.0913         estimate D2E/DX2                !
 ! D132  D(37,39,58,61)        -83.6545         estimate D2E/DX2                !
 ! D133  D(41,40,43,44)       -178.8691         estimate D2E/DX2                !
 ! D134  D(41,40,43,45)        -59.409          estimate D2E/DX2                !
 ! D135  D(41,40,43,46)         60.0603         estimate D2E/DX2                !
 ! D136  D(42,40,43,44)        -60.0427         estimate D2E/DX2                !
 ! D137  D(42,40,43,45)         59.4174         estimate D2E/DX2                !
 ! D138  D(42,40,43,46)        178.8868         estimate D2E/DX2                !
 ! D139  D(47,40,43,44)         60.5514         estimate D2E/DX2                !
 ! D140  D(47,40,43,45)       -179.9885         estimate D2E/DX2                !
 ! D141  D(47,40,43,46)        -60.5191         estimate D2E/DX2                !
 ! D142  D(41,40,47,12)         59.2042         estimate D2E/DX2                !
 ! D143  D(41,40,47,49)       -121.2322         estimate D2E/DX2                !
 ! D144  D(42,40,47,12)        -59.3178         estimate D2E/DX2                !
 ! D145  D(42,40,47,49)        120.2458         estimate D2E/DX2                !
 ! D146  D(43,40,47,12)        179.9487         estimate D2E/DX2                !
 ! D147  D(43,40,47,49)         -0.4877         estimate D2E/DX2                !
 ! D148  D(39,58,61,62)       -175.522          estimate D2E/DX2                !
 ! D149  D(39,58,61,63)        -55.6067         estimate D2E/DX2                !
 ! D150  D(39,58,61,64)         64.8676         estimate D2E/DX2                !
 ! D151  D(59,58,61,62)         63.4823         estimate D2E/DX2                !
 ! D152  D(59,58,61,63)       -176.6024         estimate D2E/DX2                !
 ! D153  D(59,58,61,64)        -56.1281         estimate D2E/DX2                !
 ! D154  D(60,58,61,62)        -59.2215         estimate D2E/DX2                !
 ! D155  D(60,58,61,63)         60.6938         estimate D2E/DX2                !
 ! D156  D(60,58,61,64)       -178.8319         estimate D2E/DX2                !
 --------------------------------------------------------------------------------
 Trust Radius=3.00D-01 FncErr=1.00D-07 GrdErr=1.00D-06
 Number of steps in this run=    349 maximum allowed number of steps=    384.
 GradGradGradGradGradGradGradGradGradGradGradGradGradGradGradGradGradGrad

 Leave Link  103 at Sat Feb 12 11:35:43 2022, MaxMem=  5242880000 cpu:         0.3
 (Enter /opt/nce/packages/global/g09/l202.exe)
 Symmetry turned off by external request.
 Stoichiometry    C28H31N2O3(1+)
 Framework group  C1[X(C28H31N2O3)]
 Deg. of freedom   186
 Full point group                 C1      NOp   1
                          Input orientation:                          
 ---------------------------------------------------------------------
 Center     Atomic      Atomic             Coordinates (Angstroms)
 Number     Number       Type             X           Y           Z
 ---------------------------------------------------------------------
      1          6           0        4.082609    0.892983   -0.132223
      2          6           0        2.954325    1.723194   -0.152984
      3          6           0        1.697696    1.215074    0.102293
      4          6           0        1.511037   -0.162070    0.400447
      5          6           0        2.662161   -0.988444    0.398746
      6          6           0        3.910772   -0.504732    0.148955
      7          6           0        0.212986   -0.631271    0.647655
      8          6           0       -0.854736    0.281242    0.632930
      9          6           0       -0.590936    1.639387    0.312552
     10          6           0       -1.610284    2.567612    0.253973
     11          1           0       -1.357578    3.582756    0.001545
     12          6           0       -2.935608    2.196497    0.513097
     13          6           0       -3.219279    0.830691    0.852224
     14          6           0       -2.199132   -0.071233    0.905949
     15          1           0        3.042074    2.772764   -0.373923
     16          1           0        2.526993   -2.039007    0.604347
     17          1           0       -2.409405   -1.097459    1.166559
     18          8           0        0.659024    2.072025    0.055525
     19          6           0       -0.026290   -2.051433    0.959658
     20          6           0        0.362122   -2.568205    2.190666
     21          6           0       -0.674998   -2.886668    0.040250
     22          6           0        0.108074   -3.891893    2.506615
     23          1           0        0.855110   -1.923416    2.902048
     24          6           0       -0.928910   -4.215662    0.369042
     25          6           0       -0.538815   -4.715704    1.597791
     26          1           0        0.415541   -4.280894    3.465032
     27          1           0       -1.424261   -4.847593   -0.350970
     28          1           0       -0.735805   -5.747084    1.845365
     29          7           0        5.307807    1.375036   -0.369390
     30          6           0        5.629358    2.752830   -0.668838
     31          1           0        5.291425    3.393976    0.153099
     32          1           0        5.107005    3.062480   -1.581453
     33          6           0        7.131009    2.905552   -0.857206
     34          1           0        7.479970    2.290382   -1.683242
     35          1           0        7.370993    3.941075   -1.080149
     36          1           0        7.663121    2.620001    0.047071
     37          6           0       -1.047333   -2.345003   -1.289318
     38          8           0       -0.526235   -1.370446   -1.794269
     39          8           0       -2.012103   -3.053163   -1.867336
     40          6           0       -3.795208    4.489876    0.136791
     41          1           0       -3.353602    4.596896   -0.860594
     42          1           0       -3.124383    4.966523    0.860779
     43          6           0       -5.156927    5.166742    0.173082
     44          1           0       -5.600202    5.086562    1.162807
     45          1           0       -5.050986    6.220598   -0.067265
     46          1           0       -5.829320    4.717948   -0.554170
     47          7           0       -3.933906    3.086257    0.456306
     48          1           0        6.084598    0.731648   -0.353959
     49          1           0       -4.869461    2.767462    0.657299
     50          6           0       -4.628133    0.411642    1.144513
     51          1           0       -5.023523    0.954394    2.002542
     52          1           0       -5.274337    0.594998    0.286718
     53          1           0       -4.662871   -0.649642    1.372458
     54          6           0        5.101790   -1.414012    0.163983
     55          1           0        5.817818   -1.103337    0.924135
     56          1           0        4.792884   -2.430832    0.387320
     57          1           0        5.599435   -1.418160   -0.805252
     58          6           0       -2.491706   -2.614950   -3.145287
     59          1           0       -1.644436   -2.250528   -3.735024
     60          1           0       -2.911944   -3.510374   -3.606008
     61          6           0       -3.544520   -1.526641   -2.992202
     62          1           0       -3.943188   -1.273529   -3.969772
     63          1           0       -4.353202   -1.877000   -2.356093
     64          1           0       -3.099482   -0.637828   -2.550651
 ---------------------------------------------------------------------
 Rotational constants (GHZ):      0.1423594      0.0951226      0.0677698
 Leave Link  202 at Sat Feb 12 11:35:43 2022, MaxMem=  5242880000 cpu:         0.1
 (Enter /opt/nce/packages/global/g09/l301.exe)
 Standard basis: def2TZVP (5D, 7F)
 Ernie: Thresh=  0.10000D-02 Tol=  0.10000D-05 Strict=F.
  1209 basis functions,  1931 primitive gaussians,  1374 cartesian basis functions
   118 alpha electrons      118 beta electrons
       nuclear repulsion energy      3379.7447966996 Hartrees.
 IExCor= 4639 DFT=T Ex+Corr=wB97XD ExCW=0 ScaHFX=  1.000000
 ScaDFX=  1.000000  1.000000  1.000000  1.000000 ScalE2=  1.000000  1.000000
 IRadAn=      5 IRanWt=     -1 IRanGd=            0 ICorTp=0 IEmpDi=121
  HFx wShort=  0.000000 wLong=  0.200000 cFull=  0.222036 cShort=  0.000000 cLong=  0.777964
  DFx wShort=  0.000000 wLong=  0.200000 cFull=  0.000000 cShort=  0.000000 cLong=  1.000000
 NAtoms=   64 NActive=   64 NUniq=   64 SFac= 1.00D+00 NAtFMM=   60 NAOKFM=T Big=T
 Integral buffers will be    131072 words long.
 Raffenetti 2 integral format.
 Two-electron integral symmetry is turned off.
 R6Disp:  Grimme-D2 Dispersion energy=       -0.0528664953 Hartrees.
 Nuclear repulsion after empirical dispersion term =     3379.6919302043 Hartrees.
 ------------------------------------------------------------------------------
 Polarizable Continuum Model (PCM)
 =================================
 Model                : PCM (using non-symmetric T matrix).
 Atomic radii         : SMD-Coulomb.
 Polarization charges : Total charges.
 Charge compensation  : None.
 Solution method      : On-the-fly selection.
 Cavity type          : VdW (van der Waals Surface) (Alpha=1.000).
 Cavity algorithm     : GePol (No added spheres)
                        Default sphere list used, NSphG=   64.
                        Lebedev-Laikov grids with approx.  5.0 points / Ang**2.
                        Smoothing algorithm: York/Karplus (Gamma=1.0000).
                        Polarization charges: spherical gaussians, with
                                              point-specific exponents (IZeta= 3).
                        Self-potential: point-specific (ISelfS= 7).
                        Self-field    : sphere-specific E.n sum rule (ISelfD= 2).
 1st derivatives      : Analytical E(r).r(x)/FMM algorithm (CHGder, D1EAlg=3).
                        Cavity 1st derivative terms included.
 Solvent              : Methanol, Eps=  32.613000 Eps(inf)=   1.765709
 ------------------------------------------------------------------------------
 GePol: Number of generator spheres                  =      64
 GePol: Total number of spheres                      =      64
 GePol: Number of exposed spheres                    =      64 (100.00%)
 GePol: Number of points                             =    4539
 GePol: Average weight of points                     =       0.11
 GePol: Minimum weight of points                     =   0.21D-11
 GePol: Maximum weight of points                     =    0.21991
 GePol: Number of points with low weight             =     325
 GePol: Fraction of low-weight points (<1% of avg)   =       7.16%
 GePol: Cavity surface area                          =    485.865 Ang**2
 GePol: Cavity volume                                =    456.929 Ang**3
 ------------------------------------------------------------------------------
 Atomic radii for non-electrostatic terms: SMD-CDS.
 ------------------------------------------------------------------------------
 PCM non-electrostatic energy =        -0.0007400175 Hartrees.
 Nuclear repulsion after PCM non-electrostatic terms =     3379.6911901868 Hartrees.
 Leave Link  301 at Sat Feb 12 11:35:43 2022, MaxMem=  5242880000 cpu:         1.8
 (Enter /opt/nce/packages/global/g09/l302.exe)
 NPDir=0 NMtPBC=     1 NCelOv=     1 NCel=       1 NClECP=     1 NCelD=      1
         NCelK=      1 NCelE2=     1 NClLst=     1 CellRange=     0.0.
 One-electron integrals computed using PRISM.
   1 Symmetry operations used in ECPInt.
 ECPInt:  NShTT=  118828 NPrTT=  359100 LenC2=   92081 LenP2D=  188630.
 LDataN:  DoStor=T MaxTD1= 6 Len=  172
 NBasis=  1209 RedAO= T EigKep=  3.80D-06  NBF=  1209
 NBsUse=  1209 1.00D-06 EigRej= -1.00D+00 NBFU=  1209
 Precomputing XC quadrature grid using
 IXCGrd= 4 IRadAn=           5 IRanWt=          -1 IRanGd=           0 AccXCQ= 0.00D+00.
 Generated NRdTot=       0 NPtTot=           0 NUsed=           0 NTot=          32
 NSgBfM=  1312  1312  1312  1312  1312 MxSgAt=    64 MxSgA2=    64.
 Leave Link  302 at Sat Feb 12 11:35:47 2022, MaxMem=  5242880000 cpu:        39.3
 (Enter /opt/nce/packages/global/g09/l303.exe)
 DipDrv:  MaxL=1.
 Leave Link  303 at Sat Feb 12 11:35:47 2022, MaxMem=  5242880000 cpu:         3.6
 (Enter /opt/nce/packages/global/g09/l401.exe)
 ExpMin= 9.52D-02 ExpMax= 2.70D+04 ExpMxC= 9.22D+02 IAcc=3 IRadAn=         5 AccDes= 0.00D+00
 Harris functional with IExCor= 4639 and IRadAn=       5 diagonalized for initial guess.
 HarFok:  IExCor= 4639 AccDes= 0.00D+00 IRadAn=         5 IDoV= 1 UseB2=F ITyADJ=14
 ICtDFT=  3500011 ScaDFX=  1.000000  1.000000  1.000000  1.000000
 FoFCou: FMM=F IPFlag=           0 FMFlag=      100000 FMFlg1=        2001
         NFxFlg=           0 DoJE=T BraDBF=F KetDBF=T FulRan=T
         wScrn=  0.000000 ICntrl=     500 IOpCl=  0 I1Cent=   200000004 NGrid=           0
         NMat0=    1 NMatS0=      1 NMatT0=    0 NMatD0=    1 NMtDS0=    0 NMtDT0=    0
 Symmetry not used in FoFCou.
 Harris En= -1358.33706039171    
 JPrj=0 DoOrth=F DoCkMO=F.
 Leave Link  401 at Sat Feb 12 11:36:01 2022, MaxMem=  5242880000 cpu:       162.0
 (Enter /opt/nce/packages/global/g09/l502.exe)
 Closed shell SCF:
 Using DIIS extrapolation, IDIIS=  1040.
 Two-electron integral symmetry not used.
 IVT=     5707038 IEndB=     5707038 NGot=  5242880000 MDV=  5239078853
 LenX=  5239078853 LenY=  5237189603
 Requested convergence on RMS density matrix=1.00D-08 within 128 cycles.
 Requested convergence on MAX density matrix=1.00D-06.
 Requested convergence on             energy=1.00D-06.
 No special actions if energy rises.
 Fock matrices will be formed incrementally for  20 cycles.

 Cycle   1  Pass 1  IDiag  1:
 FoFJK:  IHMeth= 1 ICntrl=       0 DoSepK=T KAlg= 0 I1Cent=   0 FoldK=F
 IRaf=         1 NMat=   1 IRICut=       1 DoRegI=T DoRafI=F ISym2E= 0.
 FoFCou: FMM=T IPFlag=           0 FMFlag=      100000 FMFlg1=        2001
         NFxFlg=           0 DoJE=T BraDBF=F KetDBF=F FulRan=T
         wScrn=  0.000000 ICntrl=     500 IOpCl=  0 I1Cent=           0 NGrid=           0
         NMat0=    1 NMatS0=      1 NMatT0=    0 NMatD0=    1 NMtDS0=    0 NMtDT0=    0
 Symmetry not used in FoFCou.
 FMM levels:  10  Number of levels for PrismC:   9
 Inv3:  Mode=1 IEnd=    61807563.
 Iteration    1 A*A^-1 deviation from unit magnitude is 5.55D-15 for   4531.
 Iteration    1 A*A^-1 deviation from orthogonality  is 4.56D-15 for   3388   2654.
 Iteration    1 A^-1*A deviation from unit magnitude is 6.22D-15 for   4509.
 Iteration    1 A^-1*A deviation from orthogonality  is 1.94D-11 for   4133   4069.
 E= -1420.28663338099    
 DIIS: error= 3.77D-02 at cycle   1 NSaved=   1.
 NSaved= 1 IEnMin= 1 EnMin= -1420.28663338099     IErMin= 1 ErrMin= 3.77D-02
 ErrMax= 3.77D-02  0.00D+00 EMaxC= 1.00D-01 BMatC= 3.25D+00 BMatP= 3.25D+00
 IDIUse=3 WtCom= 6.23D-01 WtEn= 3.77D-01
 Coeff-Com:  0.100D+01
 Coeff-En:   0.100D+01
 Coeff:      0.100D+01
 Gap=     0.228 Goal=   None    Shift=    0.000
 GapD=    0.228 DampG=1.000 DampE=0.500 DampFc=0.5000 IDamp=-1.
 Damping current iteration by 5.00D-01
 RMSDP=2.65D-03 MaxDP=4.03D-01              OVMax= 1.68D-01

 Cycle   2  Pass 1  IDiag  1:
 RMSU=  1.04D-03    CP:  8.68D-01
 E= -1420.54302572460     Delta-E=       -0.256392343612 Rises=F Damp=T
 DIIS: error= 1.77D-02 at cycle   2 NSaved=   2.
 NSaved= 2 IEnMin= 2 EnMin= -1420.54302572460     IErMin= 2 ErrMin= 1.77D-02
 ErrMax= 1.77D-02  0.00D+00 EMaxC= 1.00D-01 BMatC= 6.61D-01 BMatP= 3.25D+00
 IDIUse=3 WtCom= 8.23D-01 WtEn= 1.77D-01
 Coeff-Com: -0.591D+00 0.159D+01
 Coeff-En:   0.000D+00 0.100D+01
 Coeff:     -0.486D+00 0.149D+01
 Gap=     0.242 Goal=   None    Shift=    0.000
 RMSDP=9.28D-04 MaxDP=1.41D-01 DE=-2.56D-01 OVMax= 1.57D-01

 Cycle   3  Pass 1  IDiag  1:
 RMSU=  5.97D-04    CP:  7.88D-01  1.49D+00
 E= -1420.69172839681     Delta-E=       -0.148702672207 Rises=F Damp=F
 DIIS: error= 8.35D-03 at cycle   3 NSaved=   3.
 NSaved= 3 IEnMin= 3 EnMin= -1420.69172839681     IErMin= 3 ErrMin= 8.35D-03
 ErrMax= 8.35D-03  0.00D+00 EMaxC= 1.00D-01 BMatC= 1.75D-01 BMatP= 6.61D-01
 IDIUse=3 WtCom= 9.16D-01 WtEn= 8.35D-02
 Coeff-Com: -0.359D+00 0.779D+00 0.580D+00
 Coeff-En:   0.000D+00 0.000D+00 0.100D+01
 Coeff:     -0.329D+00 0.714D+00 0.616D+00
 Gap=     0.230 Goal=   None    Shift=    0.000
 RMSDP=5.28D-04 MaxDP=6.76D-02 DE=-1.49D-01 OVMax= 6.36D-02

 Cycle   4  Pass 1  IDiag  1:
 RMSU=  2.11D-04    CP:  7.53D-01  1.82D+00  5.66D-01
 E= -1420.81097531613     Delta-E=       -0.119246919315 Rises=F Damp=F
 DIIS: error= 1.70D-03 at cycle   4 NSaved=   4.
 NSaved= 4 IEnMin= 4 EnMin= -1420.81097531613     IErMin= 4 ErrMin= 1.70D-03
 ErrMax= 1.70D-03  0.00D+00 EMaxC= 1.00D-01 BMatC= 7.74D-03 BMatP= 1.75D-01
 IDIUse=3 WtCom= 9.83D-01 WtEn= 1.70D-02
 Coeff-Com: -0.149D+00 0.320D+00 0.319D+00 0.510D+00
 Coeff-En:   0.000D+00 0.000D+00 0.000D+00 0.100D+01
 Coeff:     -0.147D+00 0.315D+00 0.314D+00 0.518D+00
 Gap=     0.225 Goal=   None    Shift=    0.000
 RMSDP=7.26D-05 MaxDP=7.02D-03 DE=-1.19D-01 OVMax= 9.13D-03

 Cycle   5  Pass 1  IDiag  1:
 RMSU=  5.53D-05    CP:  7.52D-01  1.83D+00  6.25D-01  8.60D-01
 E= -1420.81604946170     Delta-E=       -0.005074145571 Rises=F Damp=F
 DIIS: error= 2.41D-04 at cycle   5 NSaved=   5.
 NSaved= 5 IEnMin= 5 EnMin= -1420.81604946170     IErMin= 5 ErrMin= 2.41D-04
 ErrMax= 2.41D-04  0.00D+00 EMaxC= 1.00D-01 BMatC= 1.21D-04 BMatP= 7.74D-03
 IDIUse=3 WtCom= 9.98D-01 WtEn= 2.41D-03
 Coeff-Com:  0.601D-02-0.137D-01 0.147D-01 0.937D-01 0.899D+00
 Coeff-En:   0.000D+00 0.000D+00 0.000D+00 0.000D+00 0.100D+01
 Coeff:      0.599D-02-0.137D-01 0.147D-01 0.935D-01 0.899D+00
 Gap=     0.227 Goal=   None    Shift=    0.000
 RMSDP=3.34D-05 MaxDP=3.93D-03 DE=-5.07D-03 OVMax= 4.64D-03

 Cycle   6  Pass 1  IDiag  1:
 RMSU=  1.83D-05    CP:  7.51D-01  1.84D+00  6.30D-01  9.63D-01  1.12D+00
 E= -1420.81617226334     Delta-E=       -0.000122801640 Rises=F Damp=F
 DIIS: error= 1.25D-04 at cycle   6 NSaved=   6.
 NSaved= 6 IEnMin= 6 EnMin= -1420.81617226334     IErMin= 6 ErrMin= 1.25D-04
 ErrMax= 1.25D-04  0.00D+00 EMaxC= 1.00D-01 BMatC= 5.12D-05 BMatP= 1.21D-04
 IDIUse=3 WtCom= 9.99D-01 WtEn= 1.25D-03
 Coeff-Com:  0.195D-01-0.423D-01-0.273D-01-0.162D-01 0.466D+00 0.600D+00
 Coeff-En:   0.000D+00 0.000D+00 0.000D+00 0.000D+00 0.000D+00 0.100D+01
 Coeff:      0.195D-01-0.423D-01-0.273D-01-0.162D-01 0.466D+00 0.601D+00
 Gap=     0.227 Goal=   None    Shift=    0.000
 RMSDP=1.15D-05 MaxDP=1.54D-03 DE=-1.23D-04 OVMax= 1.84D-03

 Cycle   7  Pass 1  IDiag  1:
 RMSU=  6.85D-06    CP:  7.50D-01  1.84D+00  6.34D-01  9.76D-01  1.22D+00
                    CP:  1.07D+00
 E= -1420.81621809452     Delta-E=       -0.000045831180 Rises=F Damp=F
 DIIS: error= 5.42D-05 at cycle   7 NSaved=   7.
 NSaved= 7 IEnMin= 7 EnMin= -1420.81621809452     IErMin= 7 ErrMin= 5.42D-05
 ErrMax= 5.42D-05  0.00D+00 EMaxC= 1.00D-01 BMatC= 2.50D-06 BMatP= 5.12D-05
 IDIUse=1 WtCom= 1.00D+00 WtEn= 0.00D+00
 Coeff-Com:  0.463D-02-0.988D-02-0.922D-02-0.166D-01 0.130D-01 0.160D+00
 Coeff-Com:  0.859D+00
 Coeff:      0.463D-02-0.988D-02-0.922D-02-0.166D-01 0.130D-01 0.160D+00
 Coeff:      0.859D+00
 Gap=     0.227 Goal=   None    Shift=    0.000
 RMSDP=4.14D-06 MaxDP=4.23D-04 DE=-4.58D-05 OVMax= 1.44D-03

 Cycle   8  Pass 1  IDiag  1:
 RMSU=  2.79D-06    CP:  7.50D-01  1.84D+00  6.34D-01  9.80D-01  1.24D+00
                    CP:  1.18D+00  1.15D+00
 E= -1420.81622277650     Delta-E=       -0.000004681980 Rises=F Damp=F
 DIIS: error= 2.20D-05 at cycle   8 NSaved=   8.
 NSaved= 8 IEnMin= 8 EnMin= -1420.81622277650     IErMin= 8 ErrMin= 2.20D-05
 ErrMax= 2.20D-05  0.00D+00 EMaxC= 1.00D-01 BMatC= 5.99D-07 BMatP= 2.50D-06
 IDIUse=1 WtCom= 1.00D+00 WtEn= 0.00D+00
 Coeff-Com: -0.138D-02 0.306D-02 0.112D-02-0.404D-02-0.673D-01-0.269D-01
 Coeff-Com:  0.360D+00 0.735D+00
 Coeff:     -0.138D-02 0.306D-02 0.112D-02-0.404D-02-0.673D-01-0.269D-01
 Coeff:      0.360D+00 0.735D+00
 Gap=     0.227 Goal=   None    Shift=    0.000
 RMSDP=1.59D-06 MaxDP=1.28D-04 DE=-4.68D-06 OVMax= 6.99D-04

 Cycle   9  Pass 1  IDiag  1:
 RMSU=  9.80D-07    CP:  7.50D-01  1.84D+00  6.34D-01  9.80D-01  1.25D+00
                    CP:  1.21D+00  1.26D+00  1.24D+00
 E= -1420.81622380626     Delta-E=       -0.000001029764 Rises=F Damp=F
 DIIS: error= 9.33D-06 at cycle   9 NSaved=   9.
 NSaved= 9 IEnMin= 9 EnMin= -1420.81622380626     IErMin= 9 ErrMin= 9.33D-06
 ErrMax= 9.33D-06  0.00D+00 EMaxC= 1.00D-01 BMatC= 7.30D-08 BMatP= 5.99D-07
 IDIUse=1 WtCom= 1.00D+00 WtEn= 0.00D+00
 Coeff-Com: -0.894D-03 0.192D-02 0.153D-02 0.693D-03-0.177D-01-0.307D-01
 Coeff-Com: -0.350D-01 0.190D+00 0.891D+00
 Coeff:     -0.894D-03 0.192D-02 0.153D-02 0.693D-03-0.177D-01-0.307D-01
 Coeff:     -0.350D-01 0.190D+00 0.891D+00
 Gap=     0.227 Goal=   None    Shift=    0.000
 RMSDP=1.04D-06 MaxDP=9.72D-05 DE=-1.03D-06 OVMax= 3.46D-04

 Cycle  10  Pass 1  IDiag  1:
 RMSU=  5.22D-07    CP:  7.50D-01  1.84D+00  6.35D-01  9.79D-01  1.25D+00
                    CP:  1.21D+00  1.31D+00  1.45D+00  1.21D+00
 E= -1420.81622399235     Delta-E=       -0.000000186089 Rises=F Damp=F
 DIIS: error= 5.00D-06 at cycle  10 NSaved=  10.
 NSaved=10 IEnMin=10 EnMin= -1420.81622399235     IErMin=10 ErrMin= 5.00D-06
 ErrMax= 5.00D-06  0.00D+00 EMaxC= 1.00D-01 BMatC= 1.24D-08 BMatP= 7.30D-08
 IDIUse=1 WtCom= 1.00D+00 WtEn= 0.00D+00
 Coeff-Com: -0.556D-04 0.111D-03 0.327D-03 0.689D-03 0.476D-02-0.733D-02
 Coeff-Com: -0.709D-01-0.549D-01 0.315D+00 0.812D+00
 Coeff:     -0.556D-04 0.111D-03 0.327D-03 0.689D-03 0.476D-02-0.733D-02
 Coeff:     -0.709D-01-0.549D-01 0.315D+00 0.812D+00
 Gap=     0.227 Goal=   None    Shift=    0.000
 RMSDP=3.95D-07 MaxDP=3.46D-05 DE=-1.86D-07 OVMax= 1.72D-04

 Cycle  11  Pass 1  IDiag  1:
 RMSU=  1.87D-07    CP:  7.50D-01  1.84D+00  6.35D-01  9.78D-01  1.25D+00
                    CP:  1.21D+00  1.32D+00  1.52D+00  1.35D+00  1.18D+00
 E= -1420.81622402626     Delta-E=       -0.000000033909 Rises=F Damp=F
 DIIS: error= 1.43D-06 at cycle  11 NSaved=  11.
 NSaved=11 IEnMin=11 EnMin= -1420.81622402626     IErMin=11 ErrMin= 1.43D-06
 ErrMax= 1.43D-06  0.00D+00 EMaxC= 1.00D-01 BMatC= 1.73D-09 BMatP= 1.24D-08
 IDIUse=1 WtCom= 1.00D+00 WtEn= 0.00D+00
 Coeff-Com:  0.113D-03-0.244D-03-0.124D-03 0.131D-03 0.393D-02 0.211D-02
 Coeff-Com: -0.145D-01-0.425D-01-0.488D-01 0.239D+00 0.861D+00
 Coeff:      0.113D-03-0.244D-03-0.124D-03 0.131D-03 0.393D-02 0.211D-02
 Coeff:     -0.145D-01-0.425D-01-0.488D-01 0.239D+00 0.861D+00
 Gap=     0.227 Goal=   None    Shift=    0.000
 RMSDP=1.79D-07 MaxDP=1.85D-05 DE=-3.39D-08 OVMax= 5.59D-05

 Cycle  12  Pass 1  IDiag  1:
 RMSU=  6.91D-08    CP:  7.50D-01  1.84D+00  6.35D-01  9.78D-01  1.25D+00
                    CP:  1.21D+00  1.33D+00  1.54D+00  1.38D+00  1.34D+00
                    CP:  1.36D+00
 E= -1420.81622403137     Delta-E=       -0.000000005111 Rises=F Damp=F
 DIIS: error= 9.04D-07 at cycle  12 NSaved=  12.
 NSaved=12 IEnMin=12 EnMin= -1420.81622403137     IErMin=12 ErrMin= 9.04D-07
 ErrMax= 9.04D-07  0.00D+00 EMaxC= 1.00D-01 BMatC= 1.89D-10 BMatP= 1.73D-09
 IDIUse=1 WtCom= 1.00D+00 WtEn= 0.00D+00
 Coeff-Com:  0.313D-04-0.670D-04-0.683D-04-0.291D-04 0.240D-03 0.156D-02
 Coeff-Com:  0.711D-02-0.109D-02-0.605D-01-0.451D-01 0.176D+00 0.922D+00
 Coeff:      0.313D-04-0.670D-04-0.683D-04-0.291D-04 0.240D-03 0.156D-02
 Coeff:      0.711D-02-0.109D-02-0.605D-01-0.451D-01 0.176D+00 0.922D+00
 Gap=     0.227 Goal=   None    Shift=    0.000
 RMSDP=6.42D-08 MaxDP=6.78D-06 DE=-5.11D-09 OVMax= 1.97D-05

 Cycle  13  Pass 1  IDiag  1:
 RMSU=  3.71D-08    CP:  7.50D-01  1.84D+00  6.35D-01  9.78D-01  1.26D+00
                    CP:  1.21D+00  1.33D+00  1.54D+00  1.39D+00  1.40D+00
                    CP:  1.51D+00  1.30D+00
 E= -1420.81622403233     Delta-E=       -0.000000000956 Rises=F Damp=F
 DIIS: error= 3.18D-07 at cycle  13 NSaved=  13.
 NSaved=13 IEnMin=13 EnMin= -1420.81622403233     IErMin=13 ErrMin= 3.18D-07
 ErrMax= 3.18D-07  0.00D+00 EMaxC= 1.00D-01 BMatC= 4.18D-11 BMatP= 1.89D-10
 IDIUse=1 WtCom= 1.00D+00 WtEn= 0.00D+00
 Coeff-Com: -0.843D-05 0.184D-04 0.284D-05-0.296D-04-0.531D-03-0.361D-04
 Coeff-Com:  0.320D-02 0.655D-02-0.598D-02-0.392D-01-0.131D+00 0.191D+00
 Coeff-Com:  0.976D+00
 Coeff:     -0.843D-05 0.184D-04 0.284D-05-0.296D-04-0.531D-03-0.361D-04
 Coeff:      0.320D-02 0.655D-02-0.598D-02-0.392D-01-0.131D+00 0.191D+00
 Coeff:      0.976D+00
 Gap=     0.227 Goal=   None    Shift=    0.000
 RMSDP=3.99D-08 MaxDP=4.58D-06 DE=-9.56D-10 OVMax= 8.88D-06

 Cycle  14  Pass 1  IDiag  1:
 RMSU=  2.74D-08    CP:  7.50D-01  1.84D+00  6.35D-01  9.78D-01  1.26D+00
                    CP:  1.21D+00  1.33D+00  1.54D+00  1.39D+00  1.41D+00
                    CP:  1.56D+00  1.55D+00  1.48D+00
 E= -1420.81622403247     Delta-E=       -0.000000000141 Rises=F Damp=F
 DIIS: error= 1.20D-07 at cycle  14 NSaved=  14.
 NSaved=14 IEnMin=14 EnMin= -1420.81622403247     IErMin=14 ErrMin= 1.20D-07
 ErrMax= 1.20D-07  0.00D+00 EMaxC= 1.00D-01 BMatC= 6.28D-12 BMatP= 4.18D-11
 IDIUse=1 WtCom= 1.00D+00 WtEn= 0.00D+00
 Coeff-Com: -0.441D-05 0.959D-05 0.744D-05-0.113D-04-0.156D-03-0.179D-03
 Coeff-Com: -0.992D-04 0.220D-02 0.597D-02-0.159D-02-0.600D-01-0.622D-01
 Coeff-Com:  0.229D+00 0.887D+00
 Coeff:     -0.441D-05 0.959D-05 0.744D-05-0.113D-04-0.156D-03-0.179D-03
 Coeff:     -0.992D-04 0.220D-02 0.597D-02-0.159D-02-0.600D-01-0.622D-01
 Coeff:      0.229D+00 0.887D+00
 Gap=     0.227 Goal=   None    Shift=    0.000
 RMSDP=3.05D-08 MaxDP=2.01D-06 DE=-1.41D-10 OVMax= 3.30D-06

 Cycle  15  Pass 1  IDiag  1:
 RMSU=  2.17D-08    CP:  7.50D-01  1.84D+00  6.35D-01  9.78D-01  1.26D+00
                    CP:  1.21D+00  1.33D+00  1.54D+00  1.39D+00  1.41D+00
                    CP:  1.57D+00  1.64D+00  1.87D+00  1.49D+00
 E= -1420.81622403245     Delta-E=        0.000000000018 Rises=F Damp=F
 DIIS: error= 3.68D-08 at cycle  15 NSaved=  15.
 NSaved=15 IEnMin=14 EnMin= -1420.81622403247     IErMin=15 ErrMin= 3.68D-08
 ErrMax= 3.68D-08  0.00D+00 EMaxC= 1.00D-01 BMatC= 1.51D-12 BMatP= 6.28D-12
 IDIUse=1 WtCom= 1.00D+00 WtEn= 0.00D+00
 Coeff-Com: -0.247D-06 0.505D-06 0.256D-05 0.117D-05 0.361D-04-0.527D-04
 Coeff-Com: -0.632D-03-0.380D-03 0.256D-02 0.632D-02 0.379D-02-0.490D-01
 Coeff-Com: -0.128D+00 0.291D+00 0.874D+00
 Coeff:     -0.247D-06 0.505D-06 0.256D-05 0.117D-05 0.361D-04-0.527D-04
 Coeff:     -0.632D-03-0.380D-03 0.256D-02 0.632D-02 0.379D-02-0.490D-01
 Coeff:     -0.128D+00 0.291D+00 0.874D+00
 Gap=     0.227 Goal=   None    Shift=    0.000
 RMSDP=3.84D-08 MaxDP=3.99D-06 DE= 1.82D-11 OVMax= 1.70D-06

 Cycle  16  Pass 1  IDiag  1:
 RMSU=  2.31D-08    CP:  7.50D-01  1.84D+00  6.35D-01  9.78D-01  1.26D+00
                    CP:  1.21D+00  1.33D+00  1.54D+00  1.39D+00  1.42D+00
                    CP:  1.55D+00  1.71D+00  2.17D+00  2.18D+00  1.93D+00
 E= -1420.81622403259     Delta-E=       -0.000000000141 Rises=F Damp=F
 DIIS: error= 2.14D-08 at cycle  16 NSaved=  16.
 NSaved=16 IEnMin=16 EnMin= -1420.81622403259     IErMin=16 ErrMin= 2.14D-08
 ErrMax= 2.14D-08  0.00D+00 EMaxC= 1.00D-01 BMatC= 4.87D-13 BMatP= 1.51D-12
 IDIUse=1 WtCom= 1.00D+00 WtEn= 0.00D+00
 Coeff-Com:  0.143D-06-0.337D-06 0.658D-06 0.192D-05 0.302D-04-0.494D-05
 Coeff-Com: -0.266D-03-0.362D-03 0.555D-03 0.305D-02 0.799D-02-0.139D-01
 Coeff-Com: -0.836D-01 0.425D-01 0.374D+00 0.670D+00
 Coeff:      0.143D-06-0.337D-06 0.658D-06 0.192D-05 0.302D-04-0.494D-05
 Coeff:     -0.266D-03-0.362D-03 0.555D-03 0.305D-02 0.799D-02-0.139D-01
 Coeff:     -0.836D-01 0.425D-01 0.374D+00 0.670D+00
 Gap=     0.227 Goal=   None    Shift=    0.000
 RMSDP=3.96D-08 MaxDP=3.36D-06 DE=-1.41D-10 OVMax= 4.61D-07

 Cycle  17  Pass 1  IDiag  1:
 RMSU=  1.51D-08    CP:  7.50D-01  1.84D+00  6.35D-01  9.78D-01  1.26D+00
                    CP:  1.21D+00  1.33D+00  1.54D+00  1.39D+00  1.42D+00
                    CP:  1.54D+00  1.76D+00  2.40D+00  2.68D+00  3.00D+00
                    CP:  1.95D+00
 E= -1420.81622403250     Delta-E=        0.000000000088 Rises=F Damp=F
 DIIS: error= 3.32D-08 at cycle  17 NSaved=  17.
 NSaved=17 IEnMin=16 EnMin= -1420.81622403259     IErMin=16 ErrMin= 2.14D-08
 ErrMax= 3.32D-08  0.00D+00 EMaxC= 1.00D-01 BMatC= 6.19D-13 BMatP= 4.87D-13
 IDIUse=1 WtCom= 1.00D+00 WtEn= 0.00D+00
 Coeff-Com:  0.197D-06-0.458D-06 0.667D-06 0.221D-05 0.346D-04-0.396D-05
 Coeff-Com: -0.293D-03-0.415D-03 0.572D-03 0.339D-02 0.926D-02-0.149D-01
 Coeff-Com: -0.932D-01 0.395D-01 0.410D+00 0.781D+00-0.135D+00
 Coeff:      0.197D-06-0.458D-06 0.667D-06 0.221D-05 0.346D-04-0.396D-05
 Coeff:     -0.293D-03-0.415D-03 0.572D-03 0.339D-02 0.926D-02-0.149D-01
 Coeff:     -0.932D-01 0.395D-01 0.410D+00 0.781D+00-0.135D+00
 Gap=     0.227 Goal=   None    Shift=    0.000
 RMSDP=8.82D-09 MaxDP=6.20D-07 DE= 8.82D-11 OVMax= 2.88D-08

 Error on total polarization charges =  0.07423
 SCF Done:  E(RwB97XD) =  -1420.81622403     A.U. after   17 cycles
            NFock= 17  Conv=0.88D-08     -V/T= 2.0049
 KE= 1.413902720724D+03 PE=-1.004075482091D+04 EE= 3.826344685970D+03
 SMD-CDS (non-electrostatic) energy       (kcal/mol) =      -0.46
 (included in total energy above)
 Leave Link  502 at Sat Feb 12 12:18:01 2022, MaxMem=  5242880000 cpu:     29704.5
 (Enter /opt/nce/packages/global/g09/l601.exe)
 Copying SCF densities to generalized density rwf, IOpCl= 0 IROHF=0.

 **********************************************************************

            Population analysis using the SCF density.

 **********************************************************************

 Alpha  occ. eigenvalues --  -19.34526 -19.30708 -19.25046 -14.46621 -14.46525
 Alpha  occ. eigenvalues --  -10.43314 -10.38490 -10.38409 -10.35874 -10.35794
 Alpha  occ. eigenvalues --  -10.35618 -10.33820 -10.32586 -10.32015 -10.31815
 Alpha  occ. eigenvalues --  -10.31793 -10.31428 -10.31347 -10.30807 -10.30805
 Alpha  occ. eigenvalues --  -10.30518 -10.30396 -10.30393 -10.30381 -10.30246
 Alpha  occ. eigenvalues --  -10.29868 -10.29045 -10.29022 -10.27837 -10.27829
 Alpha  occ. eigenvalues --  -10.27203 -10.27194 -10.27071  -1.24358  -1.22699
 Alpha  occ. eigenvalues --   -1.13608  -1.06814  -1.06727  -1.00479  -0.98065
 Alpha  occ. eigenvalues --   -0.97535  -0.93134  -0.91142  -0.89602  -0.87930
 Alpha  occ. eigenvalues --   -0.87897  -0.87174  -0.85906  -0.85229  -0.83706
 Alpha  occ. eigenvalues --   -0.81320  -0.79562  -0.77939  -0.76152  -0.74992
 Alpha  occ. eigenvalues --   -0.74309  -0.73670  -0.72915  -0.71794  -0.69561
 Alpha  occ. eigenvalues --   -0.69128  -0.68032  -0.67028  -0.65578  -0.63772
 Alpha  occ. eigenvalues --   -0.62271  -0.61782  -0.59653  -0.59481  -0.58895
 Alpha  occ. eigenvalues --   -0.58653  -0.57598  -0.57063  -0.56440  -0.56281
 Alpha  occ. eigenvalues --   -0.56184  -0.56037  -0.55779  -0.55325  -0.53714
 Alpha  occ. eigenvalues --   -0.53292  -0.52742  -0.52432  -0.52342  -0.52154
 Alpha  occ. eigenvalues --   -0.51940  -0.51752  -0.49941  -0.49261  -0.48104
 Alpha  occ. eigenvalues --   -0.47742  -0.47444  -0.47267  -0.47157  -0.47055
 Alpha  occ. eigenvalues --   -0.46888  -0.46484  -0.46109  -0.45530  -0.45302
 Alpha  occ. eigenvalues --   -0.45201  -0.44990  -0.44858  -0.44726  -0.44537
 Alpha  occ. eigenvalues --   -0.43706  -0.42593  -0.42119  -0.41979  -0.40002
 Alpha  occ. eigenvalues --   -0.39466  -0.38186  -0.35610  -0.34965  -0.34945
 Alpha  occ. eigenvalues --   -0.32383  -0.31378  -0.27094
 Alpha virt. eigenvalues --   -0.04369   0.00365   0.03401   0.04355   0.06137
 Alpha virt. eigenvalues --    0.06358   0.10365   0.11007   0.11244   0.11969
 Alpha virt. eigenvalues --    0.12248   0.12990   0.13115   0.13672   0.14143
 Alpha virt. eigenvalues --    0.14405   0.15067   0.15666   0.15803   0.16548
 Alpha virt. eigenvalues --    0.17051   0.17553   0.17846   0.17902   0.17933
 Alpha virt. eigenvalues --    0.18007   0.18689   0.19061   0.19323   0.19432
 Alpha virt. eigenvalues --    0.19468   0.19761   0.19941   0.20038   0.20055
 Alpha virt. eigenvalues --    0.20268   0.20384   0.20882   0.21022   0.21645
 Alpha virt. eigenvalues --    0.21853   0.21867   0.22201   0.22612   0.22690
 Alpha virt. eigenvalues --    0.22803   0.23168   0.23677   0.24011   0.25086
 Alpha virt. eigenvalues --    0.25386   0.25722   0.26261   0.26573   0.26982
 Alpha virt. eigenvalues --    0.27307   0.27554   0.27769   0.27942   0.28460
 Alpha virt. eigenvalues --    0.28719   0.28818   0.28937   0.29472   0.30026
 Alpha virt. eigenvalues --    0.30159   0.30267   0.30896   0.31132   0.31300
 Alpha virt. eigenvalues --    0.31607   0.31791   0.32171   0.32529   0.32836
 Alpha virt. eigenvalues --    0.33260   0.33331   0.33580   0.33989   0.34495
 Alpha virt. eigenvalues --    0.34625   0.35021   0.35164   0.35567   0.35803
 Alpha virt. eigenvalues --    0.35886   0.36143   0.36431   0.36846   0.37247
 Alpha virt. eigenvalues --    0.37460   0.37901   0.38480   0.38598   0.39169
 Alpha virt. eigenvalues --    0.39385   0.40022   0.40286   0.40365   0.40683
 Alpha virt. eigenvalues --    0.41474   0.41671   0.42110   0.42605   0.43026
 Alpha virt. eigenvalues --    0.43438   0.43564   0.44128   0.44168   0.44416
 Alpha virt. eigenvalues --    0.44702   0.45094   0.45509   0.45843   0.46069
 Alpha virt. eigenvalues --    0.46540   0.46906   0.47042   0.47175   0.47362
 Alpha virt. eigenvalues --    0.48032   0.48122   0.48400   0.48602   0.48887
 Alpha virt. eigenvalues --    0.49053   0.49234   0.49385   0.49789   0.50146
 Alpha virt. eigenvalues --    0.50359   0.50550   0.50824   0.51057   0.51110
 Alpha virt. eigenvalues --    0.51349   0.51795   0.52326   0.52411   0.52738
 Alpha virt. eigenvalues --    0.52823   0.52933   0.53248   0.53443   0.53592
 Alpha virt. eigenvalues --    0.53880   0.54102   0.54323   0.54938   0.55081
 Alpha virt. eigenvalues --    0.55318   0.55600   0.55755   0.56163   0.56316
 Alpha virt. eigenvalues --    0.56461   0.56780   0.56984   0.57119   0.57634
 Alpha virt. eigenvalues --    0.57785   0.58303   0.58767   0.58950   0.59174
 Alpha virt. eigenvalues --    0.59346   0.59552   0.59884   0.60214   0.60745
 Alpha virt. eigenvalues --    0.60963   0.61383   0.61602   0.61913   0.62088
 Alpha virt. eigenvalues --    0.62534   0.63002   0.63078   0.64042   0.64145
 Alpha virt. eigenvalues --    0.64600   0.65081   0.65789   0.66074   0.66552
 Alpha virt. eigenvalues --    0.67698   0.67901   0.68672   0.69001   0.69279
 Alpha virt. eigenvalues --    0.69481   0.69900   0.70549   0.70826   0.71175
 Alpha virt. eigenvalues --    0.71511   0.71724   0.72111   0.72945   0.73284
 Alpha virt. eigenvalues --    0.73690   0.73823   0.74539   0.74752   0.75203
 Alpha virt. eigenvalues --    0.75327   0.75925   0.76308   0.76740   0.77023
 Alpha virt. eigenvalues --    0.77200   0.77543   0.77902   0.77938   0.78435
 Alpha virt. eigenvalues --    0.78531   0.79097   0.79455   0.79529   0.80480
 Alpha virt. eigenvalues --    0.80697   0.80835   0.81308   0.81463   0.81761
 Alpha virt. eigenvalues --    0.82038   0.82458   0.83475   0.84176   0.84668
 Alpha virt. eigenvalues --    0.85217   0.85869   0.86009   0.86818   0.87028
 Alpha virt. eigenvalues --    0.87643   0.87805   0.88810   0.89038   0.89440
 Alpha virt. eigenvalues --    0.89544   0.90107   0.90511   0.91095   0.91654
 Alpha virt. eigenvalues --    0.91729   0.92278   0.92565   0.92757   0.93085
 Alpha virt. eigenvalues --    0.93527   0.93920   0.94378   0.94957   0.95184
 Alpha virt. eigenvalues --    0.95400   0.96296   0.96652   0.96904   0.97376
 Alpha virt. eigenvalues --    0.97945   0.98861   0.99052   0.99445   0.99738
 Alpha virt. eigenvalues --    1.00222   1.00621   1.01560   1.01947   1.02395
 Alpha virt. eigenvalues --    1.02659   1.03296   1.03696   1.04121   1.04406
 Alpha virt. eigenvalues --    1.04496   1.05666   1.05916   1.06084   1.06665
 Alpha virt. eigenvalues --    1.07701   1.07822   1.08730   1.09130   1.10134
 Alpha virt. eigenvalues --    1.10508   1.11669   1.12182   1.12533   1.13375
 Alpha virt. eigenvalues --    1.13485   1.13663   1.13870   1.14366   1.14654
 Alpha virt. eigenvalues --    1.15164   1.15721   1.15909   1.16571   1.17013
 Alpha virt. eigenvalues --    1.17555   1.17681   1.18199   1.18668   1.18794
 Alpha virt. eigenvalues --    1.19402   1.20424   1.20818   1.21473   1.21734
 Alpha virt. eigenvalues --    1.22637   1.23365   1.23984   1.24597   1.25467
 Alpha virt. eigenvalues --    1.26659   1.27104   1.27282   1.27897   1.28068
 Alpha virt. eigenvalues --    1.28228   1.29085   1.29614   1.30134   1.30441
 Alpha virt. eigenvalues --    1.30726   1.31095   1.31772   1.32364   1.33487
 Alpha virt. eigenvalues --    1.34017   1.34534   1.34766   1.35658   1.36321
 Alpha virt. eigenvalues --    1.36845   1.36898   1.37475   1.38783   1.39026
 Alpha virt. eigenvalues --    1.39786   1.40288   1.40848   1.41386   1.42569
 Alpha virt. eigenvalues --    1.43285   1.43714   1.43839   1.45039   1.45801
 Alpha virt. eigenvalues --    1.46211   1.46885   1.48144   1.49008   1.49441
 Alpha virt. eigenvalues --    1.49848   1.50729   1.51587   1.52403   1.52837
 Alpha virt. eigenvalues --    1.53379   1.53886   1.54260   1.55483   1.55957
 Alpha virt. eigenvalues --    1.56278   1.56734   1.57076   1.57571   1.58136
 Alpha virt. eigenvalues --    1.58737   1.59127   1.59738   1.59921   1.60030
 Alpha virt. eigenvalues --    1.60701   1.60974   1.61423   1.61630   1.61905
 Alpha virt. eigenvalues --    1.61984   1.62111   1.62424   1.62495   1.62915
 Alpha virt. eigenvalues --    1.63056   1.63174   1.63344   1.63708   1.64148
 Alpha virt. eigenvalues --    1.64387   1.64839   1.65471   1.65805   1.65961
 Alpha virt. eigenvalues --    1.66112   1.66447   1.66629   1.66943   1.67062
 Alpha virt. eigenvalues --    1.67265   1.67614   1.68407   1.68534   1.68938
 Alpha virt. eigenvalues --    1.69633   1.70358   1.70652   1.70821   1.71147
 Alpha virt. eigenvalues --    1.72251   1.72311   1.72756   1.73770   1.74232
 Alpha virt. eigenvalues --    1.74711   1.75004   1.75607   1.76340   1.76830
 Alpha virt. eigenvalues --    1.76980   1.77104   1.77801   1.78143   1.78599
 Alpha virt. eigenvalues --    1.78900   1.79662   1.79942   1.80459   1.81078
[...]
 Alpha virt. eigenvalues --    1.20520   1.20836   1.21157   1.22046   1.22553
 Alpha virt. eigenvalues --    1.23061   1.23730   1.24225   1.24745   1.25706
 Alpha virt. eigenvalues --    1.25818   1.26453   1.27221   1.27259   1.28126
 Alpha virt. eigenvalues --    1.28736   1.29395   1.29594   1.30472   1.30734
 Alpha virt. eigenvalues --    1.31028   1.31690   1.31806   1.32665   1.33830
 Alpha virt. eigenvalues --    1.34347   1.34806   1.35294   1.35677   1.36168
 Alpha virt. eigenvalues --    1.36925   1.37199   1.37903   1.38046   1.39457
 Alpha virt. eigenvalues --    1.39560   1.40320   1.40432   1.41554   1.42584
 Alpha virt. eigenvalues --    1.43004   1.43956   1.44519   1.45327   1.45716
 Alpha virt. eigenvalues --    1.46257   1.46837   1.48029   1.48233   1.49703
 Alpha virt. eigenvalues --    1.49884   1.50061   1.51501   1.52363   1.53379
 Alpha virt. eigenvalues --    1.53797   1.53998   1.54384   1.55804   1.56152
 Alpha virt. eigenvalues --    1.56336   1.56682   1.57176   1.57615   1.57688
 Alpha virt. eigenvalues --    1.58692   1.59233   1.59558   1.59724   1.59819
 Alpha virt. eigenvalues --    1.60284   1.60924   1.61161   1.61497   1.61523
 Alpha virt. eigenvalues --    1.61805   1.62029   1.62324   1.62555   1.62790
 Alpha virt. eigenvalues --    1.62891   1.62927   1.63512   1.63839   1.64537
 Alpha virt. eigenvalues --    1.64905   1.65017   1.65786   1.65813   1.66096
 Alpha virt. eigenvalues --    1.66330   1.66707   1.66826   1.66982   1.67102
 Alpha virt. eigenvalues --    1.68060   1.68607   1.68720   1.69014   1.69353
 Alpha virt. eigenvalues --    1.69824   1.70153   1.70637   1.71193   1.71625
 Alpha virt. eigenvalues --    1.71842   1.72714   1.72957   1.73504   1.73722
 Alpha virt. eigenvalues --    1.74444   1.75001   1.75483   1.76200   1.76695
 Alpha virt. eigenvalues --    1.76845   1.77590   1.78115   1.78483   1.78529
 Alpha virt. eigenvalues --    1.79048   1.80145   1.80692   1.80932   1.81216
 Alpha virt. eigenvalues --    1.81891   1.82689   1.83035   1.83388   1.83910
 Alpha virt. eigenvalues --    1.84761   1.85241   1.85683   1.86003   1.87058
 Alpha virt. eigenvalues --    1.87490   1.88033   1.89056   1.89494   1.89944
 Alpha virt. eigenvalues --    1.90175   1.90661   1.91574   1.92348   1.92652
 Alpha virt. eigenvalues --    1.92901   1.93355   1.93768   1.94320   1.94758
 Alpha virt. eigenvalues --    1.95329   1.95839   1.95992   1.96442   1.96694
 Alpha virt. eigenvalues --    1.97740   1.97889   1.99004   1.99917   2.00021
 Alpha virt. eigenvalues --    2.00489   2.02000   2.02309   2.03296   2.03854
 Alpha virt. eigenvalues --    2.04498   2.05515   2.06203   2.07009   2.07588
 Alpha virt. eigenvalues --    2.08452   2.08584   2.09167   2.10121   2.10804
 Alpha virt. eigenvalues --    2.10993   2.11472   2.11671   2.11943   2.12592
 Alpha virt. eigenvalues --    2.13021   2.13328   2.13684   2.14731   2.14849
 Alpha virt. eigenvalues --    2.15646   2.15774   2.16331   2.17109   2.18331
 Alpha virt. eigenvalues --    2.18590   2.19319   2.20299   2.20632   2.21032
 Alpha virt. eigenvalues --    2.21506   2.22921   2.23952   2.24689   2.25049
 Alpha virt. eigenvalues --    2.25621   2.26250   2.27214   2.27727   2.28361
 Alpha virt. eigenvalues --    2.28737   2.28829   2.29939   2.30193   2.30566
 Alpha virt. eigenvalues --    2.31246   2.31651   2.32128   2.32588   2.33199
 Alpha virt. eigenvalues --    2.34226   2.34556   2.34888   2.34982   2.35574
 Alpha virt. eigenvalues --    2.36202   2.36916   2.37574   2.37817   2.39759
 Alpha virt. eigenvalues --    2.40083   2.40334   2.41311   2.41447   2.41869
 Alpha virt. eigenvalues --    2.41892   2.42603   2.43261   2.43718   2.43991
 Alpha virt. eigenvalues --    2.44414   2.45311   2.45739   2.46019   2.47933
 Alpha virt. eigenvalues --    2.48469   2.48613   2.49599   2.49685   2.50409
 Alpha virt. eigenvalues --    2.51182   2.51730   2.52051   2.52734   2.52846
 Alpha virt. eigenvalues --    2.53305   2.53622   2.54607   2.54879   2.55447
 Alpha virt. eigenvalues --    2.55850   2.55963   2.56456   2.56769   2.57174
 Alpha virt. eigenvalues --    2.57911   2.58126   2.58946   2.59532   2.59892
 Alpha virt. eigenvalues --    2.60701   2.61449   2.62002   2.62197   2.62845
 Alpha virt. eigenvalues --    2.63267   2.63392   2.63878   2.64216   2.64473
 Alpha virt. eigenvalues --    2.64544   2.65371   2.65868   2.66472   2.67045
 Alpha virt. eigenvalues --    2.68002   2.68289   2.68821   2.69426   2.69798
 Alpha virt. eigenvalues --    2.70286   2.70719   2.70831   2.71048   2.71549
 Alpha virt. eigenvalues --    2.71740   2.72561   2.72739   2.73548   2.73795
 Alpha virt. eigenvalues --    2.73925   2.74072   2.74703   2.75566   2.75648
 Alpha virt. eigenvalues --    2.76746   2.77029   2.77202   2.77988   2.78479
 Alpha virt. eigenvalues --    2.78848   2.79211   2.79548   2.80225   2.80692
 Alpha virt. eigenvalues --    2.81327   2.81750   2.82004   2.82852   2.84063
 Alpha virt. eigenvalues --    2.84431   2.84988   2.85593   2.85989   2.86669
 Alpha virt. eigenvalues --    2.87120   2.88118   2.88508   2.88697   2.89220
 Alpha virt. eigenvalues --    2.89618   2.90025   2.90320   2.90532   2.90995
 Alpha virt. eigenvalues --    2.91305   2.91599   2.92225   2.93006   2.93341
 Alpha virt. eigenvalues --    2.94020   2.94389   2.94472   2.95157   2.95591
 Alpha virt. eigenvalues --    2.96177   2.96403   2.96982   2.97332   2.97830
 Alpha virt. eigenvalues --    2.98202   2.98299   2.99082   2.99538   3.00165
 Alpha virt. eigenvalues --    3.01040   3.01447   3.01900   3.02208   3.02406
 Alpha virt. eigenvalues --    3.03090   3.03858   3.04809   3.04884   3.05924
 Alpha virt. eigenvalues --    3.06688   3.06893   3.07549   3.08263   3.09092
 Alpha virt. eigenvalues --    3.09300   3.09700   3.09806   3.10676   3.10956
 Alpha virt. eigenvalues --    3.11594   3.11927   3.12344   3.12815   3.13132
 Alpha virt. eigenvalues --    3.13524   3.13606   3.14387   3.14763   3.15096
 Alpha virt. eigenvalues --    3.15423   3.15713   3.16350   3.16653   3.17143
 Alpha virt. eigenvalues --    3.17625   3.18306   3.18332   3.18928   3.19320
 Alpha virt. eigenvalues --    3.19643   3.19885   3.20544   3.21194   3.21880
 Alpha virt. eigenvalues --    3.22565   3.23032   3.23443   3.24052   3.24540
 Alpha virt. eigenvalues --    3.25073   3.25550   3.25811   3.26145   3.26443
 Alpha virt. eigenvalues --    3.27012   3.27325   3.27507   3.27661   3.27942
 Alpha virt. eigenvalues --    3.28306   3.28515   3.28804   3.29643   3.29968
 Alpha virt. eigenvalues --    3.30306   3.30701   3.31027   3.31655   3.32180
 Alpha virt. eigenvalues --    3.32638   3.32897   3.33470   3.33514   3.33877
 Alpha virt. eigenvalues --    3.34327   3.34722   3.35144   3.35487   3.35841
 Alpha virt. eigenvalues --    3.36206   3.36290   3.37181   3.37252   3.37748
 Alpha virt. eigenvalues --    3.37899   3.37992   3.39078   3.39433   3.39841
 Alpha virt. eigenvalues --    3.40631   3.40993   3.41450   3.41731   3.42095
 Alpha virt. eigenvalues --    3.42511   3.42890   3.43342   3.43691   3.44021
 Alpha virt. eigenvalues --    3.44429   3.44610   3.45118   3.45369   3.45508
 Alpha virt. eigenvalues --    3.45998   3.46423   3.46655   3.47276   3.47809
 Alpha virt. eigenvalues --    3.48258   3.48719   3.49073   3.49788   3.50420
 Alpha virt. eigenvalues --    3.50710   3.51045   3.51427   3.51749   3.52402
 Alpha virt. eigenvalues --    3.52628   3.52811   3.53852   3.54336   3.54764
 Alpha virt. eigenvalues --    3.55064   3.55277   3.55533   3.56100   3.56625
 Alpha virt. eigenvalues --    3.57001   3.57388   3.57580   3.57835   3.58176
 Alpha virt. eigenvalues --    3.58551   3.59648   3.60082   3.60231   3.60679
 Alpha virt. eigenvalues --    3.61200   3.61672   3.62267   3.62559   3.62937
 Alpha virt. eigenvalues --    3.63274   3.64005   3.65014   3.66127   3.66599
 Alpha virt. eigenvalues --    3.67856   3.68062   3.68542   3.68954   3.69946
 Alpha virt. eigenvalues --    3.70469   3.71043   3.71503   3.72282   3.73164
 Alpha virt. eigenvalues --    3.74138   3.74583   3.75336   3.76050   3.76316
 Alpha virt. eigenvalues --    3.77045   3.77242   3.78210   3.78687   3.79530
 Alpha virt. eigenvalues --    3.80118   3.81176   3.81476   3.82409   3.82612
 Alpha virt. eigenvalues --    3.83117   3.83391   3.83907   3.84260   3.85358
 Alpha virt. eigenvalues --    3.85990   3.86336   3.86646   3.87750   3.88141
 Alpha virt. eigenvalues --    3.88905   3.90228   3.91236   3.91381   3.92293
 Alpha virt. eigenvalues --    3.92604   3.93064   3.94102   3.95459   3.96010
 Alpha virt. eigenvalues --    3.96413   3.96681   3.97851   3.98040   3.98449
 Alpha virt. eigenvalues --    3.99484   4.00751   4.01047   4.01470   4.02141
 Alpha virt. eigenvalues --    4.02793   4.03875   4.04934   4.05351   4.05814
 Alpha virt. eigenvalues --    4.07028   4.07658   4.08021   4.09409   4.09807
 Alpha virt. eigenvalues --    4.12497   4.12878   4.13599   4.13899   4.14266
 Alpha virt. eigenvalues --    4.14757   4.15635   4.16283   4.17830   4.19260
 Alpha virt. eigenvalues --    4.19804   4.20466   4.20949   4.21618   4.21920
 Alpha virt. eigenvalues --    4.22312   4.23132   4.24672   4.25132   4.25325
 Alpha virt. eigenvalues --    4.26856   4.27306   4.28209   4.29537   4.30187
 Alpha virt. eigenvalues --    4.30995   4.31442   4.31471   4.32462   4.34000
 Alpha virt. eigenvalues --    4.34306   4.35286   4.35408   4.35983   4.36213
 Alpha virt. eigenvalues --    4.37110   4.37711   4.38312   4.38907   4.39378
 Alpha virt. eigenvalues --    4.41938   4.42611   4.43885   4.44447   4.45301
 Alpha virt. eigenvalues --    4.46218   4.46801   4.47158   4.47783   4.48380
 Alpha virt. eigenvalues --    4.48802   4.49427   4.49938   4.51241   4.51655
 Alpha virt. eigenvalues --    4.52374   4.52855   4.53682   4.54781   4.55661
 Alpha virt. eigenvalues --    4.56102   4.58225   4.58972   4.59450   4.60834
 Alpha virt. eigenvalues --    4.61770   4.62134   4.63625   4.63800   4.64966
 Alpha virt. eigenvalues --    4.66094   4.67943   4.68744   4.69451   4.69916
 Alpha virt. eigenvalues --    4.70412   4.71936   4.73473   4.74504   4.75133
 Alpha virt. eigenvalues --    4.76112   4.76790   4.78763   4.80437   4.81825
 Alpha virt. eigenvalues --    4.83341   4.84315   4.86156   4.86815   4.87621
 Alpha virt. eigenvalues --    4.88280   4.88891   4.90716   4.91261   4.93267
 Alpha virt. eigenvalues --    4.93952   4.96723   4.97098   4.97774   4.98102
 Alpha virt. eigenvalues --    4.98501   4.98808   4.99500   5.00337   5.03687
 Alpha virt. eigenvalues --    5.05157   5.05836   5.08773   5.09167   5.10074
 Alpha virt. eigenvalues --    5.17645   5.18267   5.19078   5.22096   5.25313
 Alpha virt. eigenvalues --    5.25478   5.26235   5.27398   5.28671   5.29794
 Alpha virt. eigenvalues --    5.30966   5.31302   5.31554   5.32183   5.32590
 Alpha virt. eigenvalues --    5.34028   5.37742   5.39257   5.40071   5.42855
 Alpha virt. eigenvalues --    5.44852   5.45036   5.45451   5.46716   5.47276
 Alpha virt. eigenvalues --    5.48026   5.50771   5.51779   5.57305   5.59152
 Alpha virt. eigenvalues --    5.59944   5.61362   5.64167   5.66692   5.71277
 Alpha virt. eigenvalues --    5.72765   5.74456   5.78405   5.78877   5.81112
 Alpha virt. eigenvalues --    5.83973   5.87578   5.88505   5.89966   5.90263
 Alpha virt. eigenvalues --    5.91635   5.94991   5.96149   5.98832   6.06864
 Alpha virt. eigenvalues --    6.12484   6.13304   6.14134   6.19788   6.22647
 Alpha virt. eigenvalues --    6.25555   6.31187   6.35314   6.37576   6.51333
 Alpha virt. eigenvalues --    6.54448   6.65443   6.68119   6.70433   6.76688
 Alpha virt. eigenvalues --    6.80848   6.92022   6.96184   6.97569   6.98833
 Alpha virt. eigenvalues --    7.00430   7.04754   7.13675   7.25486   7.40257
 Alpha virt. eigenvalues --    7.53856   7.56351   7.58805  22.33374  22.45213
 Alpha virt. eigenvalues --   22.45706  22.49651  22.58322  22.59674  22.60370
 Alpha virt. eigenvalues --   22.62944  22.68449  22.71181  22.74478  22.81791
 Alpha virt. eigenvalues --   22.83454  22.94514  23.04439  23.06385  23.06660
 Alpha virt. eigenvalues --   23.07944  23.16398  23.17498  23.24005  23.32342
 Alpha virt. eigenvalues --   23.34142  23.42814  23.56830  23.68950  23.77190
 Alpha virt. eigenvalues --   23.98608  32.76163  32.76614  44.12899  44.38820
 Alpha virt. eigenvalues --   44.68484
          Condensed to atoms (all electrons):
 Mulliken charges:
               1
     1  C    0.301882
     2  C   -0.494734
     3  C    0.299256
     4  C    0.107017
     5  C   -0.325034
     6  C    0.093801
     7  C    0.291761
     8  C    0.150730
     9  C    0.267369
    10  C   -0.476797
    11  H    0.174411
    12  C    0.305988
    13  C    0.062351
    14  C   -0.362787
    15  H    0.174289
    16  H    0.194602
    17  H    0.197182
    18  O   -0.243052
    19  C   -0.039948
    20  C   -0.290483
    21  C    0.015230
    22  C   -0.112452
    23  H    0.170780
    24  C   -0.199517
    25  C   -0.153986
    26  H    0.170642
    27  H    0.172060
    28  H    0.170048
    29  N   -0.267522
    30  C   -0.092245
    31  H    0.137061
    32  H    0.137265
    33  C   -0.417799
    34  H    0.139778
    35  H    0.149113
    36  H    0.139474
    37  C    0.382722
    38  O   -0.462591
    39  O   -0.285336
    40  C   -0.092284
    41  H    0.137010
    42  H    0.136440
    43  C   -0.417764
    44  H    0.139531
    45  H    0.149221
    46  H    0.139483
    47  N   -0.266694
    48  H    0.288242
    49  H    0.287895
    50  C   -0.477796
    51  H    0.169687
    52  H    0.164851
    53  H    0.163427
    54  C   -0.466582
    55  H    0.160689
    56  H    0.160129
    57  H    0.161128
    58  C   -0.031040
    59  H    0.137135
    60  H    0.146780
    61  C   -0.399944
    62  H    0.152933
    63  H    0.131968
    64  H    0.145028
 Sum of Mulliken charges =   1.00000
 Mulliken charges with hydrogens summed into heavy atoms:
               1
     1  C    0.301882
     2  C   -0.320445
     3  C    0.299256
     4  C    0.107017
     5  C   -0.130432
     6  C    0.093801
     7  C    0.291761
     8  C    0.150730
     9  C    0.267369
    10  C   -0.302386
    12  C    0.305988
    13  C    0.062351
    14  C   -0.165605
    18  O   -0.243052
    19  C   -0.039948
    20  C   -0.119703
    21  C    0.015230
    22  C    0.058191
    24  C   -0.027457
    25  C    0.016063
    29  N    0.020720
    30  C    0.182081
    33  C    0.010566
    37  C    0.382722
    38  O   -0.462591
    39  O   -0.285336
    40  C    0.181166
    43  C    0.010470
    47  N    0.021201
    50  C    0.020169
    54  C    0.015363
    58  C    0.252875
    61  C    0.029984
 Electronic spatial extent (au):  <R**2>=          16593.7223
 Charge=              1.0000 electrons
 Dipole moment (field-independent basis, Debye):
    X=             -0.4354    Y=              3.4705    Z=             -2.2918  Tot=              4.1817
 Quadrupole moment (field-independent basis, Debye-Ang):
   XX=            -72.9690   YY=           -131.5779   ZZ=           -183.7927
   XY=              4.6000   XZ=              1.1241   YZ=              5.7248
 Traceless Quadrupole moment (field-independent basis, Debye-Ang):
   XX=             56.4775   YY=             -2.1314   ZZ=            -54.3462
   XY=              4.6000   XZ=              1.1241   YZ=              5.7248
 Octapole moment (field-independent basis, Debye-Ang**2):
  XXX=           -179.5548  YYY=             29.5537  ZZZ=             21.6292  XYY=             61.1503
  XXY=            174.7536  XXZ=             43.8176  XZZ=             30.5399  YZZ=            -33.8943
  YYZ=            -19.9903  XYZ=            -47.7991
 Hexadecapole moment (field-independent basis, Debye-Ang**3):
 XXXX=          -9227.4105 YYYY=          -6341.6954 ZZZZ=          -1676.6853 XXXY=           -111.6698
 XXXZ=           -189.6108 YYYX=            121.2096 YYYZ=            121.3051 ZZZX=            147.2225
 ZZZY=            -12.5000 XXYY=          -2646.6446 XXZZ=          -2287.2430 YYZZ=          -1434.7623
 XXYZ=            -71.0482 YYXZ=              9.8866 ZZXY=            -49.1809
 N-N= 3.392519187884D+03 E-N=-1.006613635486D+04  KE= 1.413895341567D+03
 Leave Link  601 at Mon Feb 14 10:12:58 2022, MaxMem=  5242880000 cpu:         8.7
 (Enter /opt/nce/packages/global/g09/l9999.exe)
 1\1\GINC-CN007\SP\RwB97XD TD-FC\Gen\C28H31N2O3(1+)\PNG4RJV\14-Feb-2022
 \0\\#p wB97XD chkbasis geom=allcheck Guess=Read int=ultrafine scrf=(SM
 D,solvent=Methanol) td=(NStates=30)\\Title\\1,1\C,0,4.1036287198,0.904
 0974459,-0.0912306737\C,0,2.970317537,1.7278111828,-0.086197973\C,0,1.
 7333625383,1.1740418171,0.1404804068\C,0,1.5510982668,-0.2037080639,0.
 3855370488\C,0,2.7170202845,-1.0174113792,0.3502251109\C,0,3.957235157
 9,-0.5144831587,0.1238256442\C,0,0.2586213503,-0.684155985,0.614872071
 2\C,0,-0.8201433583,0.2085208502,0.5936691065\C,0,-0.5741908929,1.5677
 417778,0.3090296837\C,0,-1.5805802718,2.4997370997,0.2202031375\H,0,-1
 .3252540412,3.5249734143,-0.00474296\C,0,-2.9088132244,2.1001927054,0.
 4147770823\C,0,-3.2017257018,0.7245546661,0.7286476774\C,0,-2.17568561
 52,-0.1599658854,0.81507897\H,0,3.0418717751,2.7907554142,-0.264638675
 1\H,0,2.6066624785,-2.0829549877,0.5050610973\H,0,-2.4003868478,-1.190
 2649932,1.0597165043\O,0,0.6804725826,2.0115553647,0.1076403237\C,0,0.
 0338836737,-2.1222266888,0.9095692915\C,0,0.4695449409,-2.6296213901,2
 .1281471124\C,0,-0.6499409729,-2.963616243,0.0274826587\C,0,0.23978937
 ,-3.9545342541,2.462292028\H,0,0.9842860101,-1.9761328701,2.8212905781
 \C,0,-0.8866419874,-4.2887514582,0.3731101949\C,0,-0.434594241,-4.7870
 792037,1.5831193069\H,0,0.5878996098,-4.3340761321,3.4146088689\H,0,-1
 .4154845566,-4.9327024484,-0.3172825154\H,0,-0.6119623112,-5.823707987
 ,1.8393405528\N,0,5.32230388,1.41143217,-0.3029035455\C,0,5.6042247035
 ,2.8142943604,-0.5439477967\H,0,5.2470705025,3.4077097957,0.3030746644
 \H,0,5.0553935075,3.1483611518,-1.4296451567\C,0,7.0901121848,3.026369
 8816,-0.7405208336\H,0,7.456573824,2.4576018902,-1.5978219083\H,0,7.29
 08313494,4.0824750209,-0.921831096\H,0,7.6501600693,2.7198628458,0.145
 5653721\C,0,-1.1119944634,-2.4455156266,-1.2921750526\O,0,-0.458504844
 4,-1.7012565239,-1.9882762187\O,0,-2.3173933382,-2.8915825475,-1.60384
 4876\C,0,-3.7589744982,4.3841509268,0.0038191694\H,0,-3.2423948351,4.4
 877604859,-0.9549993454\H,0,-3.1319044946,4.8603163776,0.7638202223\C,
 0,-5.1114295996,5.061856463,-0.0565341134\H,0,-5.6311324788,4.98483227
 15,0.900957609\H,0,-4.9840543332,6.119002208,-0.2905334915\H,0,-5.7393
 053372,4.6142185668,-0.8299190521\N,0,-3.9144686034,2.9760986869,0.317
 2986648\H,0,6.1098572835,0.7846790754,-0.300212673\H,0,-4.8531389227,2
 .6459566404,0.4689783219\C,0,-4.6208781606,0.2955861635,0.9394903103\H
 ,0,-5.0793891364,0.8263158721,1.7791307148\H,0,-5.2310272522,0.4953106
 887,0.05361327\H,0,-4.6694830257,-0.7722062294,1.1477444599\C,0,5.1634
 638129,-1.4020456267,0.0884686989\H,0,5.885635763,-1.1254746479,0.8624
 862692\H,0,4.8765867191,-2.4396844861,0.2520174896\H,0,5.6764041283,-1
 .3404401378,-0.8759777127\C,0,-2.9213701168,-2.4161373285,-2.827852145
 4\H,0,-2.1643279176,-2.3900301367,-3.6108269467\H,0,-3.6591847293,-3.1
 778255159,-3.0713726387\C,0,-3.5686115542,-1.0682277421,-2.6184000599\
 H,0,-4.0901049543,-0.7783340995,-3.5325960658\H,0,-4.296995725,-1.1140
 071633,-1.8069854023\H,0,-2.8281492098,-0.3011232905,-2.3883286253\\Ve
 rsion=ES64L-G09RevE.01\State=1-A\HF=-1420.8201775\RMSD=4.399e-09\PG=C0
 1 [X(C28H31N2O3)]\\@


 HAPPINESS IS NOT HAVING WHAT YOU WANT --
 HAPPINESS IS WANTING WHAT YOU HAVE!

              -- FROM MRS. SEVERN'S DESK
 Job cpu time:       3 days 13 hours  5 minutes 37.3 seconds.
 File lengths (MBytes):  RWF=   7347 Int=      0 D2E=      0 Chk=   1310 Scr=      1
 Normal termination of Gaussian 09 at Mon Feb 14 10:13:00 2022.
