
                                 *****************
                                 * O   R   C   A *
                                 *****************

                                            #,                                       
                                            ###                                      
                                            ####                                     
                                            #####                                    
                                            ######                                   
                                           ########,                                 
                                     ,,################,,,,,                         
                               ,,#################################,,                 
                          ,,##########################################,,             
                       ,#########################################, ''#####,          
                    ,#############################################,,   '####,        
                  ,##################################################,,,,####,       
                ,###########''''           ''''###############################       
              ,#####''   ,,,,##########,,,,          '''####'''          '####       
            ,##' ,,,,###########################,,,                        '##       
           ' ,,###''''                  '''############,,,                           
         ,,##''                                '''############,,,,        ,,,,,,###''
      ,#''                                            '''#######################'''  
     '                                                          ''''####''''         
             ,#######,   #######,   ,#######,      ##                                
            ,#'     '#,  ##    ##  ,#'     '#,    #''#        ######   ,####,        
            ##       ##  ##   ,#'  ##            #'  '#       #        #'  '#        
            ##       ##  #######   ##           ,######,      #####,   #    #        
            '#,     ,#'  ##    ##  '#,     ,#' ,#      #,         ##   #,  ,#        
             '#######'   ##     ##  '#######'  #'      '#     #####' # '####'        



                  #######################################################
                  #                        -***-                        #
                  #          Department of theory and spectroscopy      #
                  #    Directorship and core code : Frank Neese         #
                  #        Max Planck Institute fuer Kohlenforschung    #
                  #                Kaiser Wilhelm Platz 1               #
                  #                 D-45470 Muelheim/Ruhr               #
                  #                      Germany                        #
                  #                                                     #
                  #                  All rights reserved                #
                  #                        -***-                        #
                  #######################################################


                         Program Version 5.0.2 -  RELEASE  -


 With contributions from (in alphabetic order):
   Daniel Aravena         : Magnetic Suceptibility
   Michael Atanasov       : Ab Initio Ligand Field Theory (pilot matlab implementation)
   Alexander A. Auer      : GIAO ZORA, VPT2 properties, NMR spectrum
   Ute Becker             : Parallelization
   Giovanni Bistoni       : ED, misc. LED, open-shell LED, HFLD
   Martin Brehm           : Molecular dynamics
   Dmytro Bykov           : SCF Hessian
   Vijay G. Chilkuri      : MRCI spin determinant printing, contributions to CSF-ICE
   Dipayan Datta          : RHF DLPNO-CCSD density
   Achintya Kumar Dutta   : EOM-CC, STEOM-CC
   Dmitry Ganyushin       : Spin-Orbit,Spin-Spin,Magnetic field MRCI
   Miquel Garcia          : C-PCM and meta-GGA Hessian, CC/C-PCM, Gaussian charge scheme
   Yang Guo               : DLPNO-NEVPT2, F12-NEVPT2, CIM, IAO-localization
   Andreas Hansen         : Spin unrestricted coupled pair/coupled cluster methods
   Benjamin Helmich-Paris : MC-RPA, TRAH-SCF, COSX integrals
   Lee Huntington         : MR-EOM, pCC
   Robert Izsak           : Overlap fitted RIJCOSX, COSX-SCS-MP3, EOM
   Marcus Kettner         : VPT2
   Christian Kollmar      : KDIIS, OOCD, Brueckner-CCSD(T), CCSD density, CASPT2, CASPT2-K
   Simone Kossmann        : Meta GGA functionals, TD-DFT gradient, OOMP2, MP2 Hessian
   Martin Krupicka        : Initial AUTO-CI
   Lucas Lang             : DCDCAS
   Marvin Lechner         : AUTO-CI (C++ implementation), FIC-MRCC
   Dagmar Lenk            : GEPOL surface, SMD
   Dimitrios Liakos       : Extrapolation schemes; Compound Job, initial MDCI parallelization
   Dimitrios Manganas     : Further ROCIS development; embedding schemes
   Dimitrios Pantazis     : SARC Basis sets
   Anastasios Papadopoulos: AUTO-CI, single reference methods and gradients
   Taras Petrenko         : DFT Hessian,TD-DFT gradient, ASA, ECA, R-Raman, ABS, FL, XAS/XES, NRVS
   Peter Pinski           : DLPNO-MP2, DLPNO-MP2 Gradient
   Christoph Reimann      : Effective Core Potentials
   Marius Retegan         : Local ZFS, SOC
   Christoph Riplinger    : Optimizer, TS searches, QM/MM, DLPNO-CCSD(T), (RO)-DLPNO pert. Triples
   Tobias Risthaus        : Range-separated hybrids, TD-DFT gradient, RPA, STAB
   Michael Roemelt        : Original ROCIS implementation
   Masaaki Saitow         : Open-shell DLPNO-CCSD energy and density
   Barbara Sandhoefer     : DKH picture change effects
   Avijit Sen             : IP-ROCIS
   Kantharuban Sivalingam : CASSCF convergence, NEVPT2, FIC-MRCI
   Bernardo de Souza      : ESD, SOC TD-DFT
   Georgi Stoychev        : AutoAux, RI-MP2 NMR, DLPNO-MP2 response
   Willem Van den Heuvel  : Paramagnetic NMR
   Boris Wezisla          : Elementary symmetry handling
   Frank Wennmohs         : Technical directorship


 We gratefully acknowledge several colleagues who have allowed us to
 interface, adapt or use parts of their codes:
   Stefan Grimme, W. Hujo, H. Kruse, P. Pracht,  : VdW corrections, initial TS optimization,
                  C. Bannwarth, S. Ehlert          DFT functionals, gCP, sTDA/sTD-DF
   Ed Valeev, F. Pavosevic, A. Kumar             : LibInt (2-el integral package), F12 methods
   Garnet Chan, S. Sharma, J. Yang, R. Olivares  : DMRG
   Ulf Ekstrom                                   : XCFun DFT Library
   Mihaly Kallay                                 : mrcc  (arbitrary order and MRCC methods)
   Jiri Pittner, Ondrej Demel                    : Mk-CCSD
   Frank Weinhold                                : gennbo (NPA and NBO analysis)
   Christopher J. Cramer and Donald G. Truhlar   : smd solvation model
   Lars Goerigk                                  : TD-DFT with DH, B97 family of functionals
   V. Asgeirsson, H. Jonsson                     : NEB implementation
   FAccTs GmbH                                   : IRC, NEB, NEB-TS, DLPNO-Multilevel, CI-OPT
                                                   MM, QMMM, 2- and 3-layer-ONIOM, Crystal-QMMM,
                                                   LR-CPCM, SF, NACMEs, symmetry and pop. for TD-DFT,
                                                   nearIR, NL-DFT gradient (VV10), updates on ESD,
                                                   ML-optimized integration grids
   S Lehtola, MJT Oliveira, MAL Marques          : LibXC Library
   Liviu Ungur et al                             : ANISO software


 Your calculation uses the libint2 library for the computation of 2-el integrals
 For citations please refer to: http://libint.valeyev.net

 Your ORCA version has been built with support for libXC version: 5.1.0
 For citations please refer to: https://tddft.org/programs/libxc/

 This ORCA versions uses:
   CBLAS   interface :  Fast vector & matrix operations
   LAPACKE interface :  Fast linear algebra routines
   SCALAPACK package :  Parallel linear algebra routines
   Shared memory     :  Shared parallel matrices
   BLAS/LAPACK       :  OpenBLAS 0.3.15  USE64BITINT DYNAMIC_ARCH NO_AFFINITY Zen SINGLE_THREADED
        Core in use  :  Zen
   Copyright (c) 2011-2014, The OpenBLAS Project


Your calculation utilizes the atom-pairwise dispersion correction
with the Becke-Johnson damping scheme (D3BJ)
Cite in your paper:
S.Grimme, S.Ehrlich, L.Goerigk, J Comput Chem, (2011), 32, 1456–1465 
S.Grimme, J.Antony, S.Ehrlich and H.Krieg, J.Chem.Phys., 132, (2010), 154104 
   

Your calculation utilizes the SMD solvation module
Please cite in your paper:
A.V. Marenich, C.J. Cramer, D.G. Truhlar J. Phys. Chem. B, 113, (2009), 6378 

================================================================================

----- Orbital basis set information -----
Your calculation utilizes the basis: def2-TZVP
   F. Weigend and R. Ahlrichs, Phys. Chem. Chem. Phys. 7, 3297 (2005).

----- AuxJ basis set information -----
Your calculation utilizes the auxiliary basis: def2/J
   F. Weigend, Phys. Chem. Chem. Phys. 8, 1057 (2006).

----- AuxC basis set information -----
Your calculation utilizes the auxiliary basis: def2-TZVP/C
  H-La, Hf-Rn : A. Hellweg, C. Hattig, S. Hofener and W. Klopper, Theor. Chem. Acc. 117, 587 (2007).
        Ce-Lu : J. Chmela and M. E. Harding, Mol. Phys. (2018).

================================================================================
                                        WARNINGS
                       Please study these warnings very carefully!
================================================================================

INFO   : Checking CIS options ...
  ===> : (D) CORRECTION FOUND - SETTING MODE=3
  ===> : JK MODE FOUND - ACTIVATING RI-MP2 CODE
  ===> : MP2 AND CIS FOUND - CHECKING
WARNING: CIS(D) and MP2 runs must have the same orbital window
  ===> : adjusting orbital windows

WARNING: No MP2 level density has been requested!
         To caclulate MP2 level properties use
         %mp2 Density relaxed end
         or
         %mp2 Density unrelaxed end
         Otherwise for double-hybrid DFT only the energy is correct!

WARNING: The frozen-core approximation is turned on by default for 
         the MP2 part of double-hybrid DFT.

WARNING: CIS/ROCIS methods need fully converged wavefunctions
  ===> : Setting SCFConvForced true
         You can overwrite this default with %scf ConvForced false 


INFO   : the flag for use of the SHARK integral package has been found!

================================================================================
                                       INPUT FILE
================================================================================
NAME = Rh_6G_M06L_def2TZVP_coords.inp
|  1> %maxcore 12800
|  2> %pal
|  3>  nprocs= 8
|  4> end
|  5> ! RI-B2PLYP D3BJ def2-TZVP def2/J def2-TZVP/C RIJCOSX CPCM TightSCF
|  6> %TDDFT DCORR 4
|  7>    NROOTS   30
|  8>   TDA      FALSE
|  9> END 
| 10>  
| 11>  %CPCM 
| 12>    SMD          TRUE 
| 13>    SMDsolvent   "METHANOL"
| 14>  END 
| 15>  
| 16> 
| 17> * xyz 1 1
| 18> C                  -4.15545200    0.76617200    0.15833200
| 19> C                  -3.05232300    1.62872500    0.09909000
| 20> C                  -1.80121600    1.11410800   -0.13487900
| 21> C                  -1.57070600   -0.26697800   -0.33756400
| 22> C                  -2.70456200   -1.11395800   -0.24745800
| 23> C                  -3.96334800   -0.64751300   -0.00989500
| 24> C                  -0.26349200   -0.71410100   -0.57807600
| 25> C                   0.78362900    0.22173700   -0.60672900
| 26> C                   0.49399900    1.58485200   -0.36828300
| 27> C                   1.46557300    2.55545400   -0.34073800
| 28> H                   1.17968600    3.57970600   -0.15042900
| 29> C                   2.80373600    2.20128300   -0.55639000
| 30> C                   3.14202800    0.83143300   -0.82235100
| 31> C                   2.14435800   -0.09825900   -0.84534600
| 32> H                  -3.16380300    2.69359500    0.24255000
| 33> H                  -2.56128600   -2.18071700   -0.36545500
| 34> H                   2.40668600   -1.12721000   -1.06025000
| 35> O                  -0.77720000    1.99840300   -0.15425700
| 36> C                  -0.00066900   -2.14425400   -0.84763200
| 37> C                  -0.51664100   -2.70771500   -2.01235700
| 38> C                   0.80003300   -2.93880600   -0.01173400
| 39> C                  -0.24908200   -4.02532300   -2.34620200
| 40> H                  -1.12168400   -2.09437600   -2.66848400
| 41> C                   1.07199800   -4.25881700   -0.36270400
| 42> C                   0.54598100   -4.80422500   -1.52012600
| 43> H                  -0.66145700   -4.44045100   -3.25688000
| 44> H                   1.68464500   -4.86108700    0.29463900
| 45> H                   0.75440400   -5.83507300   -1.77494400
| 46> N                  -5.39037700    1.23975100    0.38153200
| 47> C                  -5.71619800    2.63782600    0.58646900
| 48> H                  -5.38675700    3.21538500   -0.28287900
| 49> H                  -5.14943600    3.01807300    1.44230000
| 50> C                  -7.19453900    2.81313800    0.81049700
| 51> H                  -7.52948200    2.26339300    1.69032300
| 52> H                  -7.42968900    3.86410700    0.96403100
| 53> H                  -7.76947000    2.46313700   -0.04706800
| 54> C                   1.31820100   -2.38918100    1.26301200
| 55> O                   0.74557400   -1.54959600    1.92860300
| 56> O                   2.48843200   -2.93376400    1.59756000
| 57> C                   3.57179100    4.53507500   -0.26531900
| 58> H                   3.06167700    4.65346400    0.69569100
| 59> H                   2.89881300    4.94745500   -1.02402500
| 60> C                   4.88390100    5.27354700   -0.26308200
| 61> H                   5.39066400    5.18370700   -1.22416500
| 62> H                   4.71998800    6.33146300   -0.06977400
| 63> H                   5.55196700    4.89149500    0.50903300
| 64> N                   3.77772700    3.12336400   -0.52362500
| 65> H                  -6.15277700    0.58245300    0.42228900
| 66> H                   4.72442400    2.82183000   -0.69016700
| 67> C                   4.56425700    0.45830800   -1.05755200
| 68> H                   4.98114600    0.97736900   -1.92428900
| 69> H                   5.19429600    0.71942500   -0.20329500
| 70> H                   4.66463300   -0.61069900   -1.22976400
| 71> C                  -5.13122600   -1.56671500    0.08512600
| 72> H                  -5.88314100   -1.34542100   -0.67674300
| 73> H                  -4.82369000   -2.60130800   -0.04420200
| 74> H                  -5.63224400   -1.48531800    1.05318100
| 75> C                   3.10564600   -2.45360300    2.81939100
| 76> H                   2.33274200   -2.33596200    3.57859000
| 77> H                   3.76589700   -3.26528900    3.11799400
| 78> C                   3.85959600   -1.17946200    2.57115300
| 79> H                   4.37449200   -0.87574100    3.48192200
| 80> H                   4.60854300   -1.31649500    1.79181300
| 81> H                   3.19268600   -0.36954900    2.27594200
| 82> *
| 83> 
| 84> 
| 85>                          ****END OF INPUT****
================================================================================

                       ****************************
                       * Single Point Calculation *
                       ****************************

---------------------------------
CARTESIAN COORDINATES (ANGSTROEM)
---------------------------------
  C     -4.155452    0.766172    0.158332
  C     -3.052323    1.628725    0.099090
  C     -1.801216    1.114108   -0.134879
  C     -1.570706   -0.266978   -0.337564
  C     -2.704562   -1.113958   -0.247458
  C     -3.963348   -0.647513   -0.009895
  C     -0.263492   -0.714101   -0.578076
  C      0.783629    0.221737   -0.606729
  C      0.493999    1.584852   -0.368283
  C      1.465573    2.555454   -0.340738
  H      1.179686    3.579706   -0.150429
  C      2.803736    2.201283   -0.556390
  C      3.142028    0.831433   -0.822351
  C      2.144358   -0.098259   -0.845346
  H     -3.163803    2.693595    0.242550
  H     -2.561286   -2.180717   -0.365455
  H      2.406686   -1.127210   -1.060250
  O     -0.777200    1.998403   -0.154257
  C     -0.000669   -2.144254   -0.847632
  C     -0.516641   -2.707715   -2.012357
  C      0.800033   -2.938806   -0.011734
  C     -0.249082   -4.025323   -2.346202
  H     -1.121684   -2.094376   -2.668484
  C      1.071998   -4.258817   -0.362704
  C      0.545981   -4.804225   -1.520126
  H     -0.661457   -4.440451   -3.256880
  H      1.684645   -4.861087    0.294639
  H      0.754404   -5.835073   -1.774944
  N     -5.390377    1.239751    0.381532
  C     -5.716198    2.637826    0.586469
  H     -5.386757    3.215385   -0.282879
  H     -5.149436    3.018073    1.442300
  C     -7.194539    2.813138    0.810497
  H     -7.529482    2.263393    1.690323
  H     -7.429689    3.864107    0.964031
  H     -7.769470    2.463137   -0.047068
  C      1.318201   -2.389181    1.263012
  O      0.745574   -1.549596    1.928603
  O      2.488432   -2.933764    1.597560
  C      3.571791    4.535075   -0.265319
  H      3.061677    4.653464    0.695691
  H      2.898813    4.947455   -1.024025
  C      4.883901    5.273547   -0.263082
  H      5.390664    5.183707   -1.224165
  H      4.719988    6.331463   -0.069774
  H      5.551967    4.891495    0.509033
  N      3.777727    3.123364   -0.523625
  H     -6.152777    0.582453    0.422289
  H      4.724424    2.821830   -0.690167
  C      4.564257    0.458308   -1.057552
  H      4.981146    0.977369   -1.924289
  H      5.194296    0.719425   -0.203295
  H      4.664633   -0.610699   -1.229764
  C     -5.131226   -1.566715    0.085126
  H     -5.883141   -1.345421   -0.676743
  H     -4.823690   -2.601308   -0.044202
  H     -5.632244   -1.485318    1.053181
  C      3.105646   -2.453603    2.819391
  H      2.332742   -2.335962    3.578590
  H      3.765897   -3.265289    3.117994
  C      3.859596   -1.179462    2.571153
  H      4.374492   -0.875741    3.481922
  H      4.608543   -1.316495    1.791813
  H      3.192686   -0.369549    2.275942

----------------------------
CARTESIAN COORDINATES (A.U.)
----------------------------
  NO LB      ZA    FRAG     MASS         X           Y           Z
   0 C     6.0000    0    12.011   -7.852666    1.447855    0.299204
   1 C     6.0000    0    12.011   -5.768055    3.077844    0.187253
   2 C     6.0000    0    12.011   -3.403805    2.105359   -0.254884
   3 C     6.0000    0    12.011   -2.968204   -0.504515   -0.637904
   4 C     6.0000    0    12.011   -5.110881   -2.105076   -0.467628
   5 C     6.0000    0    12.011   -7.489642   -1.223622   -0.018699
   6 C     6.0000    0    12.011   -0.497928   -1.349455   -1.092405
   7 C     6.0000    0    12.011    1.480844    0.419022   -1.146552
   8 C     6.0000    0    12.011    0.933523    2.994936   -0.695954
   9 C     6.0000    0    12.011    2.769532    4.829108   -0.643902
  10 H     1.0000    0     1.008    2.229283    6.764664   -0.284270
  11 C     6.0000    0    12.011    5.298293    4.159822   -1.051425
  12 C     6.0000    0    12.011    5.937572    1.571181   -1.554018
  13 C     6.0000    0    12.011    4.052249   -0.185683   -1.597472
  14 H     1.0000    0     1.008   -5.978721    5.090157    0.458353
  15 H     1.0000    0     1.008   -4.840129   -4.120958   -0.690610
  16 H     1.0000    0     1.008    4.547977   -2.130118   -2.003582
  17 O     8.0000    0    15.999   -1.468695    3.776434   -0.291503
  18 C     6.0000    0    12.011   -0.001264   -4.052053   -1.601792
  19 C     6.0000    0    12.011   -0.976310   -5.116840   -3.802804
  20 C     6.0000    0    12.011    1.511843   -5.553539   -0.022174
  21 C     6.0000    0    12.011   -0.470697   -7.606758   -4.433679
  22 H     1.0000    0     1.008   -2.119676   -3.957797   -5.042704
  23 C     6.0000    0    12.011    2.025783   -8.047998   -0.685411
  24 C     6.0000    0    12.011    1.031755   -9.078670   -2.872622
  25 H     1.0000    0     1.008   -1.249973   -8.391236   -6.154611
  26 H     1.0000    0     1.008    3.183518   -9.186123    0.556787
  27 H     1.0000    0     1.008    1.425617  -11.026690   -3.354158
  28 N     7.0000    0    14.007  -10.186336    2.342790    0.720991
  29 C     6.0000    0    12.011  -10.802049    4.984769    1.108266
  30 H     1.0000    0     1.008  -10.179495    6.076197   -0.534564
  31 H     1.0000    0     1.008   -9.731024    5.703331    2.725552
  32 C     6.0000    0    12.011  -13.595708    5.316060    1.531617
  33 H     1.0000    0     1.008  -14.228659    4.277193    3.194248
  34 H     1.0000    0     1.008  -14.040077    7.302104    1.821755
  35 H     1.0000    0     1.008  -14.682171    4.654654   -0.088946
  36 C     6.0000    0    12.011    2.491039   -4.514898    2.386747
  37 O     8.0000    0    15.999    1.408931   -2.928312    3.644531
  38 O     8.0000    0    15.999    4.702455   -5.544011    3.018951
  39 C     6.0000    0    12.011    6.749707    8.570050   -0.501380
  40 H     1.0000    0     1.008    5.785731    8.793773    1.314665
  41 H     1.0000    0     1.008    5.477963    9.349335   -1.935127
  42 C     6.0000    0    12.011    9.229235    9.965560   -0.497153
  43 H     1.0000    0     1.008   10.186879    9.795787   -2.313337
  44 H     1.0000    0     1.008    8.919485   11.964731   -0.131854
  45 H     1.0000    0     1.008   10.491697    9.243586    0.961933
  46 N     7.0000    0    14.007    7.138869    5.902303   -0.989508
  47 H     1.0000    0     1.008  -11.627063    1.100677    0.798011
  48 H     1.0000    0     1.008    8.927868    5.332486   -1.304227
  49 C     6.0000    0    12.011    8.625196    0.866077   -1.998484
  50 H     1.0000    0     1.008    9.413002    1.846960   -3.636379
  51 H     1.0000    0     1.008    9.815797    1.359516   -0.384172
  52 H     1.0000    0     1.008    8.814879   -1.154054   -2.323917
  53 C     6.0000    0    12.011   -9.696612   -2.960662    0.160865
  54 H     1.0000    0     1.008  -11.117525   -2.542477   -1.278859
  55 H     1.0000    0     1.008   -9.115453   -4.915760   -0.083530
  56 H     1.0000    0     1.008  -10.643399   -2.806844    1.990224
  57 C     6.0000    0    12.011    5.868820   -4.636638    5.327877
  58 H     1.0000    0     1.008    4.408244   -4.414328    6.762555
  59 H     1.0000    0     1.008    7.116514   -6.170502    5.892155
  60 C     6.0000    0    12.011    7.293579   -2.228860    4.858775
  61 H     1.0000    0     1.008    8.266592   -1.654911    6.579879
  62 H     1.0000    0     1.008    8.708884   -2.487815    3.386036
  63 H     1.0000    0     1.008    6.033302   -0.698346    4.300907

--------------------------------
INTERNAL COORDINATES (ANGSTROEM)
--------------------------------
 C      0   0   0     0.000000000000     0.00000000     0.00000000
 C      1   0   0     1.401570862644     0.00000000     0.00000000
 C      2   1   0     1.372895070681   119.58839224     0.00000000
 C      3   2   1     1.414784297595   122.60221897     0.75129164
 C      4   3   2     1.418140909914   116.33702320   358.18174642
 C      5   4   3     1.363286217487   123.02298143     1.44581736
 C      4   3   2     1.402345692427   119.18900703   179.66459846
 C      7   4   3     1.404662288699   119.07582662     0.21768059
 C      8   7   4     1.413797911669   119.09099765     1.13690073
 C      9   8   7     1.373602201114   122.66735308   178.07957977
 H     10   9   8     1.080296742453   119.09781859   180.17263605
 C     10   9   8     1.400936507096   119.59720144     0.05451085
 C     12  10   9     1.435850184833   119.65323660     0.87654327
 C     13  12  10     1.363892009577   118.75696891   359.37199137
 H      2   1   3     1.080257690970   121.31989735   180.53593509
 H      5   4   3     1.082786252344   118.40404228   181.92782025
 H     14  13  12     1.083392758514   118.26940382   179.17239410
 O      3   2   1     1.353130415801   116.55894041   181.22428126
 C      7   4   3     1.478875914292   120.34846390   182.48257961
 C     19   7   4     1.392946419978   118.53925584    65.50679534
 C     19   7   4     1.403980783313   122.69161575   242.34884036
 C     20  19   7     1.385327089236   120.97725894   176.95348644
 H     20  19   7     1.082942473495   118.97716566   357.94253788
 C     21  19   7     1.392685873500   119.84964809   183.72378111
 C     24  21  19     1.383397794142   120.68184657   359.11566068
 H     22  20  19     1.082459614347   119.59871920   180.00959458
 H     24  21  19     1.081741798748   119.02328131   180.43059359
 H     25  24  21     1.082136756218   119.95660499   180.79430637
 N      1   2   3     1.341318405475   120.95628137   180.19127954
 C     29   1   2     1.450093860285   124.80523977   359.65551234
 H     30  29   1     1.094473259640   109.20113954    58.01727233
 H     30  29   1     1.094647726994   109.21217309   302.07754443
 C     30  29   1     1.505461708051   110.72885713   180.07040629
 H     33  30  29     1.090183548101   111.28913665    60.31257068
 H     33  30  29     1.087843762044   110.22900355   179.95432669
 H     33  30  29     1.090166998210   111.31111061   299.63547660
 C     21  19   7     1.481743257574   120.11393704     5.73311694
 O     37  21  19     1.214831689015   124.25430788    30.48571263
 O     37  21  19     1.333391765969   111.79361861   210.11780157
 C     12  10   9     2.474109114273    92.28927469   180.78228633
 H     40  12  10     1.094427918329    93.47707553    52.28253534
 H     40  12  10     1.094802012841    94.75824547   305.55526044
 C     40  12  10     1.505648880401   137.16871586   178.01572149
 H     43  40  12     1.090211216535   111.30624208    61.35667554
 H     43  40  12     1.087851882146   110.23839763   181.01321223
 H     43  40  12     1.090154798313   111.29743476   300.69924346
 N     12  10   9     1.341627885767   121.05998610   180.62609246
 H     29   1   2     1.007450025487   118.23647812   180.41199276
 H     47  12  10     1.007419575316   118.19459535   180.36577271
 C     13  12  10     1.489052418307   119.56095217   179.71621474
 H     50  13  12     1.092910694984   111.75184747   299.60906470
 H     50  13  12     1.093108526752   111.54373453    58.89088164
 H     50  13  12     1.087431965858   111.07015228   179.15262173
 C      6   5   4     1.489261672819   121.60269953   180.30168989
 H     54   6   5     1.093065219839   111.71672710   240.54601433
 H     54   6   5     1.087054183805   110.97656473     0.78302764
 H     54   6   5     1.093057633868   111.71520425   121.13707030
 C     39  37  21     1.450647683029   116.71482366   178.93086392
 H     58  39  37     1.089772049420   108.70777395    41.26716716
 H     58  39  37     1.088085151634   104.02851824   156.89527894
 C     58  39  37     1.501165545510   110.81501264   277.37003222
 H     61  58  39     1.089433113146   109.61851084   184.12075858
 H     61  58  39     1.089527644210   110.90240526   303.22118309
 H     61  58  39     1.089897954026   111.60430208    64.55739244

---------------------------
INTERNAL COORDINATES (A.U.)
---------------------------
 C      0   0   0     0.000000000000     0.00000000     0.00000000
 C      1   0   0     2.648585087682     0.00000000     0.00000000
 C      2   1   0     2.594395694197   119.58839224     0.00000000
 C      3   2   1     2.673554861026   122.60221897     0.75129164
 C      4   3   2     2.679897939048   116.33702320   358.18174642
 C      5   4   3     2.576237593200   123.02298143     1.44581736
 C      4   3   2     2.650049303771   119.18900703   179.66459846
 C      7   4   3     2.654427036289   119.07582662     0.21768059
 C      8   7   4     2.671690861765   119.09099765     1.13690073
 C      9   8   7     2.595731977057   122.66735308   178.07957977
 H     10   9   8     2.041464986603   119.09781859   180.17263605
 C     10   9   8     2.647386329423   119.59720144     0.05451085
 C     12  10   9     2.713363618675   119.65323660     0.87654327
 C     13  12  10     2.577382374345   118.75696891   359.37199137
 H      2   1   3     2.041391189996   121.31989735   180.53593509
 H      5   4   3     2.046169478506   118.40404228   181.92782025
 H     14  13  12     2.047315609065   118.26940382   179.17239410
 O      3   2   1     2.557045909342   116.55894041   181.22428126
 C      7   4   3     2.794670464065   120.34846390   182.48257961
 C     19   7   4     2.632287252985   118.53925584    65.50679534
 C     19   7   4     2.653139177750   122.69161575   242.34884036
 C     20  19   7     2.617888804558   120.97725894   176.95348644
 H     20  19   7     2.046464693696   118.97716566   357.94253788
 C     21  19   7     2.631794891496   119.84964809   183.72378111
 C     24  21  19     2.614242965199   120.68184657   359.11566068
 H     22  20  19     2.045552222146   119.59871920   180.00959458
 H     24  21  19     2.044195747249   119.02328131   180.43059359
 H     25  24  21     2.044942108701   119.95660499   180.79430637
 N      1   2   3     2.534724444736   120.95628137   180.19127954
 C     29   1   2     2.740280264419   124.80523977   359.65551234
 H     30  29   1     2.068254721619   109.20113954    58.01727233
 H     30  29   1     2.068584417139   109.21217309   302.07754443
 C     30  29   1     2.844910333322   110.72885713   180.07040629
 H     33  30  29     2.060148341617   111.28913665    60.31257068
 H     33  30  29     2.055726786757   110.22900355   179.95432669
 H     33  30  29     2.060117066857   111.31111061   299.63547660
 C     21  19   7     2.800088957599   120.11393704     5.73311694
 O     37  21  19     2.295699191047   124.25430788    30.48571263
 O     37  21  19     2.519745266907   111.79361861   210.11780157
 C     12  10   9     4.675388651415    92.28927469   180.78228633
 H     40  12  10     2.068169038959    93.47707553    52.28253534
 H     40  12  10     2.068875975135    94.75824547   305.55526044
 C     40  12  10     2.845264037803   137.16871586   178.01572149
 H     43  40  12     2.060200627380   111.30624208    61.35667554
 H     43  40  12     2.055742131527   110.23839763   181.01321223
 H     43  40  12     2.060094012392   111.29743476   300.69924346
 N     12  10   9     2.535309277731   121.05998610   180.62609246
 H     29   1   2     1.903804641782   118.23647812   180.41199276
 H     47  12  10     1.903747099298   118.19459535   180.36577271
 C     13  12  10     2.813901269654   119.56095217   179.71621474
 H     50  13  12     2.065301902354   111.75184747   299.60906470
 H     50  13  12     2.065675750216   111.54373453    58.89088164
 H     50  13  12     2.054948604743   111.07015228   179.15262173
 C      6   5   4     2.814296703374   121.60269953   180.30168989
 H     54   6   5     2.065593912010   111.71672710   240.54601433
 H     54   6   5     2.054234700126   110.97656473     0.78302764
 H     54   6   5     2.065579576603   111.71520425   121.13707030
 C     39  37  21     2.741326837733   116.71482366   178.93086392
 H     58  39  37     2.059370721807   108.70777395    41.26716716
 H     58  39  37     2.056182946974   104.02851824   156.89527894
 C     58  39  37     2.836791762692   110.81501264   277.37003222
 H     61  58  39     2.058730225070   109.61851084   184.12075858
 H     61  58  39     2.058908862893   110.90240526   303.22118309
 H     61  58  39     2.059608647030   111.60430208    64.55739244

---------------------
BASIS SET INFORMATION
---------------------
There are 4 groups of distinct atoms

 Group   1 Type C   : 11s6p2d1f contracted to 5s3p2d1f pattern {62111/411/11/1}
 Group   2 Type H   : 5s1p contracted to 3s1p pattern {311/1}
 Group   3 Type O   : 11s6p2d1f contracted to 5s3p2d1f pattern {62111/411/11/1}
 Group   4 Type N   : 11s6p2d1f contracted to 5s3p2d1f pattern {62111/411/11/1}

Atom   0C    basis set group =>   1
Atom   1C    basis set group =>   1
Atom   2C    basis set group =>   1
Atom   3C    basis set group =>   1
Atom   4C    basis set group =>   1
Atom   5C    basis set group =>   1
Atom   6C    basis set group =>   1
Atom   7C    basis set group =>   1
Atom   8C    basis set group =>   1
Atom   9C    basis set group =>   1
Atom  10H    basis set group =>   2
Atom  11C    basis set group =>   1
Atom  12C    basis set group =>   1
Atom  13C    basis set group =>   1
Atom  14H    basis set group =>   2
Atom  15H    basis set group =>   2
Atom  16H    basis set group =>   2
Atom  17O    basis set group =>   3
Atom  18C    basis set group =>   1
Atom  19C    basis set group =>   1
Atom  20C    basis set group =>   1
Atom  21C    basis set group =>   1
Atom  22H    basis set group =>   2
Atom  23C    basis set group =>   1
Atom  24C    basis set group =>   1
Atom  25H    basis set group =>   2
Atom  26H    basis set group =>   2
Atom  27H    basis set group =>   2
Atom  28N    basis set group =>   4
Atom  29C    basis set group =>   1
Atom  30H    basis set group =>   2
Atom  31H    basis set group =>   2
Atom  32C    basis set group =>   1
Atom  33H    basis set group =>   2
Atom  34H    basis set group =>   2
Atom  35H    basis set group =>   2
Atom  36C    basis set group =>   1
Atom  37O    basis set group =>   3
Atom  38O    basis set group =>   3
Atom  39C    basis set group =>   1
Atom  40H    basis set group =>   2
Atom  41H    basis set group =>   2
Atom  42C    basis set group =>   1
Atom  43H    basis set group =>   2
Atom  44H    basis set group =>   2
Atom  45H    basis set group =>   2
Atom  46N    basis set group =>   4
Atom  47H    basis set group =>   2
Atom  48H    basis set group =>   2
Atom  49C    basis set group =>   1
Atom  50H    basis set group =>   2
Atom  51H    basis set group =>   2
Atom  52H    basis set group =>   2
Atom  53C    basis set group =>   1
Atom  54H    basis set group =>   2
Atom  55H    basis set group =>   2
Atom  56H    basis set group =>   2
Atom  57C    basis set group =>   1
Atom  58H    basis set group =>   2
Atom  59H    basis set group =>   2
Atom  60C    basis set group =>   1
Atom  61H    basis set group =>   2
Atom  62H    basis set group =>   2
Atom  63H    basis set group =>   2
---------------------------------
AUXILIARY/J BASIS SET INFORMATION
---------------------------------
There are 4 groups of distinct atoms

 Group   1 Type C   : 12s5p4d2f1g contracted to 6s4p3d1f1g pattern {711111/2111/211/2/1}
 Group   2 Type H   : 5s2p1d contracted to 3s1p1d pattern {311/2/1}
 Group   3 Type O   : 12s5p4d2f1g contracted to 6s4p3d1f1g pattern {711111/2111/211/2/1}
 Group   4 Type N   : 12s5p4d2f1g contracted to 6s4p3d1f1g pattern {711111/2111/211/2/1}

Atom   0C    basis set group =>   1
Atom   1C    basis set group =>   1
Atom   2C    basis set group =>   1
Atom   3C    basis set group =>   1
Atom   4C    basis set group =>   1
Atom   5C    basis set group =>   1
Atom   6C    basis set group =>   1
Atom   7C    basis set group =>   1
Atom   8C    basis set group =>   1
Atom   9C    basis set group =>   1
Atom  10H    basis set group =>   2
Atom  11C    basis set group =>   1
Atom  12C    basis set group =>   1
Atom  13C    basis set group =>   1
Atom  14H    basis set group =>   2
Atom  15H    basis set group =>   2
Atom  16H    basis set group =>   2
Atom  17O    basis set group =>   3
Atom  18C    basis set group =>   1
Atom  19C    basis set group =>   1
Atom  20C    basis set group =>   1
Atom  21C    basis set group =>   1
Atom  22H    basis set group =>   2
Atom  23C    basis set group =>   1
Atom  24C    basis set group =>   1
Atom  25H    basis set group =>   2
Atom  26H    basis set group =>   2
Atom  27H    basis set group =>   2
Atom  28N    basis set group =>   4
Atom  29C    basis set group =>   1
Atom  30H    basis set group =>   2
Atom  31H    basis set group =>   2
Atom  32C    basis set group =>   1
Atom  33H    basis set group =>   2
Atom  34H    basis set group =>   2
Atom  35H    basis set group =>   2
Atom  36C    basis set group =>   1
Atom  37O    basis set group =>   3
Atom  38O    basis set group =>   3
Atom  39C    basis set group =>   1
Atom  40H    basis set group =>   2
Atom  41H    basis set group =>   2
Atom  42C    basis set group =>   1
Atom  43H    basis set group =>   2
Atom  44H    basis set group =>   2
Atom  45H    basis set group =>   2
Atom  46N    basis set group =>   4
Atom  47H    basis set group =>   2
Atom  48H    basis set group =>   2
Atom  49C    basis set group =>   1
Atom  50H    basis set group =>   2
Atom  51H    basis set group =>   2
Atom  52H    basis set group =>   2
Atom  53C    basis set group =>   1
Atom  54H    basis set group =>   2
Atom  55H    basis set group =>   2
Atom  56H    basis set group =>   2
Atom  57C    basis set group =>   1
Atom  58H    basis set group =>   2
Atom  59H    basis set group =>   2
Atom  60C    basis set group =>   1
Atom  61H    basis set group =>   2
Atom  62H    basis set group =>   2
Atom  63H    basis set group =>   2
---------------------------------
AUXILIARY/C BASIS SET INFORMATION
---------------------------------
There are 4 groups of distinct atoms

 Group   1 Type C   : 8s6p5d3f1g contracted to 8s6p4d3f1g pattern {11111111/111111/2111/111/1}
 Group   2 Type H   : 4s3p2d contracted to 4s2p1d pattern {1111/21/2}
 Group   3 Type O   : 8s6p5d3f1g contracted to 8s6p4d3f1g pattern {11111111/111111/2111/111/1}
 Group   4 Type N   : 8s6p5d3f1g contracted to 8s6p4d3f1g pattern {11111111/111111/2111/111/1}

Atom   0C    basis set group =>   1
Atom   1C    basis set group =>   1
Atom   2C    basis set group =>   1
Atom   3C    basis set group =>   1
Atom   4C    basis set group =>   1
Atom   5C    basis set group =>   1
Atom   6C    basis set group =>   1
Atom   7C    basis set group =>   1
Atom   8C    basis set group =>   1
Atom   9C    basis set group =>   1
Atom  10H    basis set group =>   2
Atom  11C    basis set group =>   1
Atom  12C    basis set group =>   1
Atom  13C    basis set group =>   1
Atom  14H    basis set group =>   2
Atom  15H    basis set group =>   2
Atom  16H    basis set group =>   2
Atom  17O    basis set group =>   3
Atom  18C    basis set group =>   1
Atom  19C    basis set group =>   1
Atom  20C    basis set group =>   1
Atom  21C    basis set group =>   1
Atom  22H    basis set group =>   2
Atom  23C    basis set group =>   1
Atom  24C    basis set group =>   1
Atom  25H    basis set group =>   2
Atom  26H    basis set group =>   2
Atom  27H    basis set group =>   2
Atom  28N    basis set group =>   4
Atom  29C    basis set group =>   1
Atom  30H    basis set group =>   2
Atom  31H    basis set group =>   2
Atom  32C    basis set group =>   1
Atom  33H    basis set group =>   2
Atom  34H    basis set group =>   2
Atom  35H    basis set group =>   2
Atom  36C    basis set group =>   1
Atom  37O    basis set group =>   3
Atom  38O    basis set group =>   3
Atom  39C    basis set group =>   1
Atom  40H    basis set group =>   2
Atom  41H    basis set group =>   2
Atom  42C    basis set group =>   1
Atom  43H    basis set group =>   2
Atom  44H    basis set group =>   2
Atom  45H    basis set group =>   2
Atom  46N    basis set group =>   4
Atom  47H    basis set group =>   2
Atom  48H    basis set group =>   2
Atom  49C    basis set group =>   1
Atom  50H    basis set group =>   2
Atom  51H    basis set group =>   2
Atom  52H    basis set group =>   2
Atom  53C    basis set group =>   1
Atom  54H    basis set group =>   2
Atom  55H    basis set group =>   2
Atom  56H    basis set group =>   2
Atom  57C    basis set group =>   1
Atom  58H    basis set group =>   2
Atom  59H    basis set group =>   2
Atom  60C    basis set group =>   1
Atom  61H    basis set group =>   2
Atom  62H    basis set group =>   2
Atom  63H    basis set group =>   2


           ************************************************************
           *        Program running with 8 parallel MPI-processes     *
           *              working on a common directory               *
           ************************************************************
------------------------------------------------------------------------------
                           ORCA GTO INTEGRAL CALCULATION
                           -- RI-GTO INTEGRALS CHOSEN --
------------------------------------------------------------------------------
------------------------------------------------------------------------------
                   ___                                                        
                  /   \      - P O W E R E D   B Y -                         
                 /     \                                                     
                 |  |  |   _    _      __       _____    __    __             
                 |  |  |  | |  | |    /  \     |  _  \  |  |  /  |          
                  \  \/   | |  | |   /    \    | | | |  |  | /  /          
                 / \  \   | |__| |  /  /\  \   | |_| |  |  |/  /          
                |  |  |   |  __  | /  /__\  \  |    /   |      \           
                |  |  |   | |  | | |   __   |  |    \   |  |\   \          
                \     /   | |  | | |  |  |  |  | |\  \  |  | \   \       
                 \___/    |_|  |_| |__|  |__|  |_| \__\ |__|  \__/        
                                                                              
                      - O R C A' S   B I G   F R I E N D -                    
                                      &                                       
                       - I N T E G R A L  F E E D E R -                       
                                                                              
 v1 FN, 2020, v2 2021                                                         
------------------------------------------------------------------------------


Reading SHARK input file Rh_6G_M06L_def2TZVP_coords.SHARKINP.tmp ... ok
----------------------
SHARK INTEGRAL PACKAGE
----------------------

Number of atoms                             ...     64
Number of basis functions                   ...   1209
Number of shells                            ...    487
Maximum angular momentum                    ...      3
Integral batch strategy                     ... SHARK/LIBINT Hybrid
RI-J (if used) integral strategy            ... SPLIT-RIJ (Revised 2003 algorithm where possible)
Printlevel                                  ...      1
Contraction scheme used                     ... SEGMENTED contraction
Coulomb Range Separation                    ... NOT USED
Exchange Range Separation                   ... NOT USED
Finite Nucleus Model                        ... NOT USED
Auxiliary Coulomb fitting basis             ... AVAILABLE
   # of basis functions in Aux-J            ...   1958
   # of shells in Aux-J                     ...    650
   Maximum angular momentum in Aux-J        ...      4
Auxiliary J/K fitting basis                 ... NOT available
Auxiliary Correlation fitting basis         ... AVAILABLE
   # of basis functions in Aux-C            ...   2973
   # of shells in Aux-C                     ...    943
   Maximum angular momentum in Aux-C        ...      4
Auxiliary 'external' fitting basis          ... NOT available
Integral threshold                          ...     2.500000e-11
Primitive cut-off                           ...     2.500000e-12
Primitive pair pre-selection threshold      ...     2.500000e-12

Calculating pre-screening integrals         ... done (  0.1 sec) Dimension = 487
Organizing shell pair data                  ... done (  0.4 sec)
Shell pair information
Total number of shell pairs                 ...    118828
Shell pairs after pre-screening             ...     68904
Total number of primitive shell pairs       ...    359100
Primitive shell pairs kept                  ...    133644
          la=0 lb=0:  18448 shell pairs
          la=1 lb=0:  20378 shell pairs
          la=1 lb=1:   5633 shell pairs
          la=2 lb=0:   9509 shell pairs
          la=2 lb=1:   5317 shell pairs
          la=2 lb=2:   1284 shell pairs
          la=3 lb=0:   4376 shell pairs
          la=3 lb=1:   2509 shell pairs
          la=3 lb=2:   1167 shell pairs
          la=3 lb=3:    283 shell pairs

Calculating one electron integrals          ... done (  0.1 sec)
Calculating RI/J V-Matrix + Cholesky decomp.... done (  0.2 sec)
Calculating RI/C V-Matrix + Cholesky decomp.... done (  0.3 sec)
Calculating Nuclear repulsion               ... done (  0.0 sec) ENN=   3382.771470529053 Eh

SHARK setup successfully completed in   1.8 seconds

Maximum memory used throughout the entire GTOINT-calculation: 112.9 MB


           ************************************************************
           *        Program running with 8 parallel MPI-processes     *
           *              working on a common directory               *
           ************************************************************
-------------------------------------------------------------------------------
                                 ORCA SCF
-------------------------------------------------------------------------------

------------
SCF SETTINGS
------------
Hamiltonian:
 Density Functional     Method          .... DFT(GTOs)
 Exchange Functional    Exchange        .... B88
   X-Alpha parameter    XAlpha          ....  0.666667
   Becke's b parameter  XBeta           ....  0.004200
 Correlation Functional Correlation     .... LYP
 LDA part of GGA corr.  LDAOpt          .... VWN-3
 Gradients option       PostSCFGGA      .... off
 Hybrid DFT is turned on
   Fraction HF Exchange ScalHFX         ....  0.530000
   Scaling of DF-GGA-X  ScalDFX         ....  0.470000
   Scaling of DF-GGA-C  ScalDFC         ....  0.730000
   Scaling of DF-LDA-C  ScalLDAC        ....  0.730000
   Perturbative correction              ....  0.270000
   Density functional embedding theory  .... OFF
   NL short-range parameter             ....  7.800000
 RI-approximation to the Coulomb term is turned on
   Number of AuxJ basis functions       .... 1958
   RIJ-COSX (HFX calculated with COS-X)).... on


General Settings:
 Integral files         IntName         .... Rh_6G_M06L_def2TZVP_coords
 Hartree-Fock type      HFTyp           .... RHF
 Total Charge           Charge          ....    1
 Multiplicity           Mult            ....    1
 Number of Electrons    NEL             ....  236
 Basis Dimension        Dim             .... 1209
 Nuclear Repulsion      ENuc            ....   3382.7714705291 Eh

Convergence Acceleration:
 DIIS                   CNVDIIS         .... on
   Start iteration      DIISMaxIt       ....    12
   Startup error        DIISStart       ....  0.200000
   # of expansion vecs  DIISMaxEq       ....     5
   Bias factor          DIISBfac        ....   1.050
   Max. coefficient     DIISMaxC        ....  10.000
 Trust-Rad. Augm. Hess. CNVTRAH         .... auto
   Auto Start mean grad. ratio tolernc. ....  1.125000
   Auto Start start iteration           ....    20
   Auto Start num. interpolation iter.  ....    10
   Max. Number of Micro iterations      ....    16
   Max. Number of Macro iterations      .... Maxiter - #DIIS iter
   Number of Davidson start vectors     ....     2
   Converg. threshold I  (grad. norm)   ....   1.000e-05
   Converg. threshold II (energy diff.) ....   1.000e-08
   Grad. Scal. Fac. for Micro threshold ....   0.100
   Minimum threshold for Micro iter.    ....   0.010
   NR start threshold (gradient norm)   ....   0.001
   Initial trust radius                 ....   0.400
   Minimum AH scaling param. (alpha)    ....   1.000
   Maximum AH scaling param. (alpha)    .... 1000.000
   Orbital update algorithm             .... Taylor
   White noise on init. David. guess    .... on
   Maximum white noise                  ....   0.010
   Quad. conv. algorithm                .... NR
 SOSCF                  CNVSOSCF        .... on
   Start iteration      SOSCFMaxIt      ....   150
   Startup grad/error   SOSCFStart      ....  0.003300
 Level Shifting         CNVShift        .... on
   Level shift para.    LevelShift      ....    0.2500
   Turn off err/grad.   ShiftErr        ....    0.0010
 Zerner damping         CNVZerner       .... off
 Static damping         CNVDamp         .... on
   Fraction old density DampFac         ....    0.7000
   Max. Damping (<1)    DampMax         ....    0.9800
   Min. Damping (>=0)   DampMin         ....    0.0000
   Turn off err/grad.   DampErr         ....    0.1000
 Fernandez-Rico         CNVRico         .... off

SCF Procedure:
 Maximum # iterations   MaxIter         ....   125
 SCF integral mode      SCFMode         .... Direct
   Integral package                     .... SHARK and LIBINT hybrid scheme
 Reset frequency        DirectResetFreq ....    20
 Integral Threshold     Thresh          ....  2.500e-11 Eh
 Primitive CutOff       TCut            ....  2.500e-12 Eh

Convergence Tolerance:
 Convergence Check Mode ConvCheckMode   .... Total+1el-Energy
 Convergence forced     ConvForced      .... 1
 Energy Change          TolE            ....  1.000e-08 Eh
 1-El. energy change                    ....  1.000e-05 Eh
 Orbital Gradient       TolG            ....  1.000e-05
 Orbital Rotation angle TolX            ....  1.000e-05
 DIIS Error             TolErr          ....  5.000e-07


Diagonalization of the overlap matrix:
Smallest eigenvalue                        ... 3.700e-06
Time for diagonalization                   ...    0.274 sec
Threshold for overlap eigenvalues          ... 1.000e-08
Number of eigenvalues below threshold      ... 0
Time for construction of square roots      ...    0.109 sec
Total time needed                          ...    0.390 sec

Time for model grid setup =    0.464 sec

------------------------------
INITIAL GUESS: MODEL POTENTIAL
------------------------------
Loading Hartree-Fock densities                     ... done
Calculating cut-offs                               ... done
Initializing the effective Hamiltonian             ... done
Setting up the integral package (SHARK)            ... done
Starting the Coulomb interaction                   ... done (   1.2 sec)
Reading the grid                                   ... done
Mapping shells                                     ... done
Starting the XC term evaluation                    ... done (   0.4 sec)
  promolecular density results
     # of electrons  =    236.991559797
     EX              =   -191.200808069
     EC              =     -2.694546766
     EX+EC           =   -193.895354836
Transforming the Hamiltonian                       ... done (   0.1 sec)
Diagonalizing the Hamiltonian                      ... done (   0.2 sec)
Back transforming the eigenvectors                 ... done (   0.0 sec)
Now organizing SCF variables                       ... done
                      ------------------
                      INITIAL GUESS DONE (   2.4 sec)
                      ------------------
-------------------
DFT GRID GENERATION
-------------------

General Integration Accuracy     IntAcc      ... 4.388
Radial Grid Type                 RadialGrid  ... OptM3 with GC (2021)
Angular Grid (max. ang.)         AngularGrid ... 4 (Lebedev-302)
Angular grid pruning method      GridPruning ... 4 (adaptive)
Weight generation scheme         WeightScheme... Becke
Basis function cutoff            BFCut       ... 1.0000e-11
Integration weight cutoff        WCut        ... 1.0000e-14
Angular grids for H and He will be reduced by one unit
Partially contracted basis set               ... off
Rotationally invariant grid construction     ... off

Total number of grid points                  ...   294506
Total number of batches                      ...     4634
Average number of points per batch           ...       63
Average number of grid points per atom       ...     4602
Time for grid setup =    1.948 sec

--------------------
COSX GRID GENERATION
--------------------

GRIDX 1
-------
General Integration Accuracy     IntAcc      ... 3.816
Radial Grid Type                 RadialGrid  ... OptM3 with GC (2021)
Angular Grid (max. ang.)         AngularGrid ... 1 (Lebedev-50)
Angular grid pruning method      GridPruning ... 4 (adaptive)
Weight generation scheme         WeightScheme... Becke
Basis function cutoff            BFCut       ... 1.0000e-11
Integration weight cutoff        WCut        ... 1.0000e-14
Angular grids for H and He will be reduced by one unit
Partially contracted basis set               ... on
Rotationally invariant grid construction     ... off

Total number of grid points                  ...    37406
Total number of batches                      ...      614
Average number of points per batch           ...       60
Average number of grid points per atom       ...      584
UseSFitting                                  ... on

GRIDX 2
-------
General Integration Accuracy     IntAcc      ... 4.020
Radial Grid Type                 RadialGrid  ... OptM3 with GC (2021)
Angular Grid (max. ang.)         AngularGrid ... 2 (Lebedev-110)
Angular grid pruning method      GridPruning ... 4 (adaptive)
Weight generation scheme         WeightScheme... Becke
Basis function cutoff            BFCut       ... 1.0000e-11
Integration weight cutoff        WCut        ... 1.0000e-14
Angular grids for H and He will be reduced by one unit
Partially contracted basis set               ... on
Rotationally invariant grid construction     ... off

Total number of grid points                  ...    79748
Total number of batches                      ...     1280
Average number of points per batch           ...       62
Average number of grid points per atom       ...     1246
UseSFitting                                  ... on

GRIDX 3
-------
General Integration Accuracy     IntAcc      ... 4.338
Radial Grid Type                 RadialGrid  ... OptM3 with GC (2021)
Angular Grid (max. ang.)         AngularGrid ... 3 (Lebedev-194)
Angular grid pruning method      GridPruning ... 4 (adaptive)
Weight generation scheme         WeightScheme... Becke
Basis function cutoff            BFCut       ... 1.0000e-11
Integration weight cutoff        WCut        ... 1.0000e-14
Angular grids for H and He will be reduced by one unit
Partially contracted basis set               ... on
Rotationally invariant grid construction     ... off

Total number of grid points                  ...   173748
Total number of batches                      ...     2750
Average number of points per batch           ...       63
Average number of grid points per atom       ...     2715
UseSFitting                                  ... on

Time for X-Grid setup             =    2.795 sec


--------------------
CPCM SOLVATION MODEL
--------------------
CPCM parameters:
  Epsilon                                         ...      32.6130
  Refrac                                          ...       1.3288
  Rsolv                                           ...       1.3000
  Surface type                                    ... GAUSSIAN VDW
  Epsilon function type                           ...         CPCM
Solvent:                                     ... METHANOL
SMD-CDS solvent descriptors:
  Soln                                       ...    1.3288
  Soln25                                     ...    1.3265
  Sola                                       ...    0.4300
  Solb                                       ...    0.4700
  Solg                                       ...   31.7700
  Solc                                       ...    0.0000
  Solh                                       ...    0.0000
Radii:
 Radius for C  used is    3.4960 Bohr (=   1.8500 Ang.)
 Radius for H  used is    2.2677 Bohr (=   1.2000 Ang.)
 Radius for O  used is    2.8724 Bohr (=   1.5200 Ang.)
 Radius for N  used is    3.5716 Bohr (=   1.8900 Ang.)
Calculating surface                               ...        done! (  0.0s)
GEPOL surface points                              ...         3700
GEPOL Volume                                      ...    3077.6002
GEPOL Surface-area                                ...    1734.3976
Calculating surface distance matrix               ...        done! (  0.1s)
Performing Cholesky decomposition & store         ...        done! (  0.4s)
Overall time for CPCM initialization              ...                 0.5s
--------------
SCF ITERATIONS
--------------
ITER       Energy         Delta-E        Max-DP      RMS-DP      [F,P]     Damp
               ***  Starting incremental Fock matrix formation  ***
  0  -1417.3413705363   0.000000000000 0.04369423  0.00054665  0.2716523 0.7000
  1  -1417.7019701564  -0.360599620138 0.04330408  0.00043863  0.1309845 0.7000
                               ***Turning on DIIS***
  2  -1417.8888611533  -0.186890996815 0.05922045  0.00089591  0.0572943 0.0000
  3  -1418.2020608119  -0.313199658600 0.05791195  0.00033440  0.0614681 0.0000
  4  -1418.2435935341  -0.041532722250 0.01499409  0.00012331  0.0110865 0.0000
  5  -1418.2449939639  -0.001400429804 0.00559180  0.00005538  0.0102345 0.0000
                      *** Initiating the SOSCF procedure ***
                           *** Shutting down DIIS ***
                      *** Re-Reading the Fockian *** 
                      *** Removing any level shift *** 
ITER      Energy       Delta-E        Grad      Rot      Max-DP    RMS-DP
  6  -1418.24527475  -0.0002807826  0.001303  0.001303  0.003073  0.000023
               *** Restarting incremental Fock matrix formation ***
  7  -1418.24535631  -0.0000815596  0.000705  0.003049  0.022457  0.000176
  8  -1418.24537739  -0.0000210878  0.000341  0.002999  0.010269  0.000083
  9  -1418.24538091  -0.0000035171  0.000197  0.000863  0.009346  0.000073
 10  -1418.24538328  -0.0000023709  0.000024  0.000102  0.001021  0.000008
 11  -1418.24538333  -0.0000000457  0.000014  0.000044  0.000409  0.000003
 12  -1418.24538336  -0.0000000290  0.000004  0.000022  0.000558  0.000003
                  ***Gradient check signals convergence***
              ***Rediagonalizing the Fockian in SOSCF/NRSCF***

               *****************************************************
               *                     SUCCESS                       *
               *           SCF CONVERGED AFTER  13 CYCLES          *
               *****************************************************

Old exchange energy                            =   -103.057439371 Eh
New exchange energy                            =   -103.057417529 Eh
Exchange energy change after final integration =      0.000021842 Eh
Total energy after final integration           =  -1418.245361461 Eh
Final COS-X integration done in                =    55.992 sec

SMD CDS free energy correction energy :                -1.04305     Kcal/mol
Total Energy after SMD CDS correction =             -1418.247023672 Eh

----------------
TOTAL SCF ENERGY
----------------

Total Energy       :        -1418.24702367 Eh          -38592.46352 eV

Components:
Nuclear Repulsion  :         3382.77147053 Eh           92049.89144 eV
Electronic Energy  :        -4801.01849420 Eh         -130642.35496 eV
One Electron Energy:        -8630.87085456 Eh         -234857.93590 eV
Two Electron Energy:         3829.85236036 Eh          104215.58094 eV
Max COSX asymmetry :            0.00000446 Eh               0.00012 eV
CPCM Dielectric    :           -0.08148730 Eh              -2.21738 eV
SMD CDS (Gcds)     :           -0.00166221 Eh              -0.04523 eV

Virial components:
Potential Energy   :        -2831.95802970 Eh          -77061.49572 eV
Kinetic Energy     :         1413.71100603 Eh           38469.03220 eV
Virial Ratio       :            2.00320859


DFT components:
N(Alpha)           :      117.999953978540 electrons
N(Beta)            :      117.999953978540 electrons
N(Total)           :      235.999907957080 electrons
E(X)               :      -91.552440500455 Eh       
E(C)               :       -5.863738334924 Eh       
E(XC)              :      -97.416178835379 Eh       
DFET-embed. en.    :        0.000000000000 Eh       
CPCM Solvation Model Properties:
Surface-charge          :           -1.07879744
Charge-correction       :            0.00674255 Eh               0.18347 eV
Free-energy (cav+disp)  :           -0.00166221 Eh              -0.04523 eV

---------------
SCF CONVERGENCE
---------------

  Last Energy change         ...    5.3096e-08  Tolerance :   1.0000e-08
  Last MAX-Density change    ...    1.9984e-15  Tolerance :   1.0000e-07
  Last RMS-Density change    ...    1.2189e-17  Tolerance :   5.0000e-09
  Last Orbital Gradient      ...    1.8647e-06  Tolerance :   1.0000e-05
  Last Orbital Rotation      ...    5.5484e-06  Tolerance :   1.0000e-05

             **** THE GBW FILE WAS UPDATED (Rh_6G_M06L_def2TZVP_coords.gbw) ****
             **** DENSITY Rh_6G_M06L_def2TZVP_coords.scfp WAS UPDATED ****
             **** ENERGY FILE WAS UPDATED (Rh_6G_M06L_def2TZVP_coords.en.tmp) ****
             **** THE GBW FILE WAS UPDATED (Rh_6G_M06L_def2TZVP_coords.gbw) ****
             **** DENSITY Rh_6G_M06L_def2TZVP_coords.scfp WAS UPDATED ****
----------------
ORBITAL ENERGIES
----------------

  NO   OCC          E(Eh)            E(eV) 
   0   2.0000     -19.814797      -539.1880 
   1   2.0000     -19.779410      -538.2251 
   2   2.0000     -19.726818      -536.7940 
   3   2.0000     -14.867329      -404.5606 
   4   2.0000     -14.866535      -404.5390 
   5   2.0000     -10.771785      -293.1152 
   6   2.0000     -10.717091      -291.6269 
   7   2.0000     -10.716516      -291.6112 
   8   2.0000     -10.691428      -290.9286 
   9   2.0000     -10.690530      -290.9041 
  10   2.0000     -10.689295      -290.8705 
  11   2.0000     -10.667833      -290.2865 
  12   2.0000     -10.656873      -289.9883 
  13   2.0000     -10.650438      -289.8131 
  14   2.0000     -10.646138      -289.6962 
  15   2.0000     -10.645957      -289.6912 
  16   2.0000     -10.643858      -289.6341 
  17   2.0000     -10.643443      -289.6228 
  18   2.0000     -10.636293      -289.4283 
  19   2.0000     -10.636252      -289.4271 
  20   2.0000     -10.635853      -289.4163 
  21   2.0000     -10.635163      -289.3975 
  22   2.0000     -10.635121      -289.3964 
  23   2.0000     -10.633959      -289.3647 
  24   2.0000     -10.632480      -289.3245 
  25   2.0000     -10.629135      -289.2335 
  26   2.0000     -10.619384      -288.9681 
  27   2.0000     -10.619261      -288.9648 
  28   2.0000     -10.607701      -288.6502 
  29   2.0000     -10.607651      -288.6489 
  30   2.0000     -10.600633      -288.4579 
  31   2.0000     -10.600550      -288.4556 
  32   2.0000     -10.598924      -288.4114 
  33   2.0000      -1.281392       -34.8685 
  34   2.0000      -1.268418       -34.5154 
  35   2.0000      -1.175343       -31.9827 
  36   2.0000      -1.096124       -29.8271 
  37   2.0000      -1.095423       -29.8080 
  38   2.0000      -1.028409       -27.9844 
  39   2.0000      -1.002964       -27.2920 
  40   2.0000      -0.997202       -27.1352 
  41   2.0000      -0.949021       -25.8242 
  42   2.0000      -0.926764       -25.2185 
  43   2.0000      -0.910046       -24.7636 
  44   2.0000      -0.893714       -24.3192 
  45   2.0000      -0.892471       -24.2854 
  46   2.0000      -0.885150       -24.0862 
  47   2.0000      -0.872305       -23.7366 
  48   2.0000      -0.864564       -23.5260 
  49   2.0000      -0.848249       -23.0820 
  50   2.0000      -0.818006       -22.2591 
  51   2.0000      -0.803561       -21.8660 
  52   2.0000      -0.782572       -21.2949 
  53   2.0000      -0.763316       -20.7709 
  54   2.0000      -0.750117       -20.4117 
  55   2.0000      -0.742691       -20.2097 
  56   2.0000      -0.737263       -20.0619 
  57   2.0000      -0.726767       -19.7763 
  58   2.0000      -0.716099       -19.4860 
  59   2.0000      -0.693316       -18.8661 
  60   2.0000      -0.687642       -18.7117 
  61   2.0000      -0.669878       -18.2283 
  62   2.0000      -0.663969       -18.0675 
  63   2.0000      -0.651599       -17.7309 
  64   2.0000      -0.628395       -17.0995 
  65   2.0000      -0.613528       -16.6950 
  66   2.0000      -0.606875       -16.5139 
  67   2.0000      -0.587907       -15.9978 
  68   2.0000      -0.582047       -15.8383 
  69   2.0000      -0.576926       -15.6989 
  70   2.0000      -0.569087       -15.4857 
  71   2.0000      -0.561355       -15.2753 
  72   2.0000      -0.558088       -15.1863 
  73   2.0000      -0.549212       -14.9448 
  74   2.0000      -0.546626       -14.8745 
  75   2.0000      -0.545843       -14.8531 
  76   2.0000      -0.544321       -14.8117 
  77   2.0000      -0.542358       -14.7583 
  78   2.0000      -0.539571       -14.6825 
  79   2.0000      -0.523268       -14.2389 
  80   2.0000      -0.517093       -14.0708 
  81   2.0000      -0.512716       -13.9517 
  82   2.0000      -0.509799       -13.8723 
  83   2.0000      -0.507455       -13.8086 
  84   2.0000      -0.503279       -13.6949 
  85   2.0000      -0.497441       -13.5361 
  86   2.0000      -0.493884       -13.4393 
  87   2.0000      -0.481989       -13.1156 
  88   2.0000      -0.476891       -12.9769 
  89   2.0000      -0.461223       -12.5505 
  90   2.0000      -0.458933       -12.4882 
  91   2.0000      -0.453415       -12.3381 
  92   2.0000      -0.453350       -12.3363 
  93   2.0000      -0.451502       -12.2860 
  94   2.0000      -0.448339       -12.1999 
  95   2.0000      -0.446631       -12.1535 
  96   2.0000      -0.444899       -12.1063 
  97   2.0000      -0.440850       -11.9961 
  98   2.0000      -0.436500       -11.8778 
  99   2.0000      -0.434750       -11.8301 
 100   2.0000      -0.432843       -11.7783 
 101   2.0000      -0.430640       -11.7183 
 102   2.0000      -0.428458       -11.6589 
 103   2.0000      -0.422881       -11.5072 
 104   2.0000      -0.421109       -11.4590 
 105   2.0000      -0.418650       -11.3920 
 106   2.0000      -0.406988       -11.0747 
 107   2.0000      -0.403924       -10.9913 
 108   2.0000      -0.392176       -10.6716 
 109   2.0000      -0.380111       -10.3433 
 110   2.0000      -0.368538       -10.0284 
 111   2.0000      -0.366285        -9.9671 
 112   2.0000      -0.317761        -8.6467 
 113   2.0000      -0.313976        -8.5437 
 114   2.0000      -0.310500        -8.4491 
 115   2.0000      -0.289310        -7.8725 
 116   2.0000      -0.279636        -7.6093 
 117   2.0000      -0.236759        -6.4425 
 118   0.0000      -0.057814        -1.5732 
 119   0.0000      -0.006984        -0.1901 
 120   0.0000       0.021621         0.5883 
 121   0.0000       0.032061         0.8724 
 122   0.0000       0.048328         1.3151 
 123   0.0000       0.051720         1.4074 
 124   0.0000       0.071913         1.9568 
 125   0.0000       0.076435         2.0799 
 126   0.0000       0.088372         2.4047 
 127   0.0000       0.094348         2.5673 
 128   0.0000       0.096696         2.6312 
 129   0.0000       0.098062         2.6684 
 130   0.0000       0.104884         2.8540 
 131   0.0000       0.107966         2.9379 
 132   0.0000       0.110137         2.9970 
 133   0.0000       0.112382         3.0581 
 134   0.0000       0.117157         3.1880 
 135   0.0000       0.122865         3.3433 
 136   0.0000       0.126362         3.4385 
 137   0.0000       0.131003         3.5648 
 138   0.0000       0.137459         3.7405 
 139   0.0000       0.142970         3.8904 
 140   0.0000       0.146360         3.9827 
 141   0.0000       0.147180         4.0050 
 142   0.0000       0.148251         4.0341 
 143   0.0000       0.149392         4.0652 
 144   0.0000       0.156884         4.2690 
 145   0.0000       0.158898         4.3238 
 146   0.0000       0.159880         4.3505 
 147   0.0000       0.164020         4.4632 
 148   0.0000       0.165814         4.5120 
 149   0.0000       0.166461         4.5296 
 150   0.0000       0.168183         4.5765 
 151   0.0000       0.169858         4.6221 
 152   0.0000       0.170981         4.6526 
 153   0.0000       0.174245         4.7414 
 154   0.0000       0.176804         4.8111 
 155   0.0000       0.181994         4.9523 
 156   0.0000       0.187908         5.1132 
 157   0.0000       0.191655         5.2152 
 158   0.0000       0.194538         5.2936 
 159   0.0000       0.196109         5.3364 
 160   0.0000       0.197122         5.3640 
 161   0.0000       0.200511         5.4562 
 162   0.0000       0.200892         5.4665 
 163   0.0000       0.203051         5.5253 
 164   0.0000       0.208920         5.6850 
 165   0.0000       0.211683         5.7602 
 166   0.0000       0.223385         6.0786 
 167   0.0000       0.225457         6.1350 
 168   0.0000       0.231504         6.2995 
 169   0.0000       0.235284         6.4024 
 170   0.0000       0.239212         6.5093 
 171   0.0000       0.244223         6.6457 
 172   0.0000       0.247880         6.7452 
 173   0.0000       0.250457         6.8153 
 174   0.0000       0.252473         6.8701 
 175   0.0000       0.255083         6.9412 
 176   0.0000       0.257307         7.0017 
 177   0.0000       0.261448         7.1144 
 178   0.0000       0.262982         7.1561 
 179   0.0000       0.266546         7.2531 
 180   0.0000       0.271778         7.3955 
 181   0.0000       0.275029         7.4839 
 182   0.0000       0.278169         7.5694 
 183   0.0000       0.279538         7.6066 
 184   0.0000       0.281623         7.6634 
 185   0.0000       0.284473         7.7409 
 186   0.0000       0.288057         7.8384 
 187   0.0000       0.291729         7.9383 
 188   0.0000       0.293400         7.9838 
 189   0.0000       0.296706         8.0738 
 190   0.0000       0.303179         8.2499 
 191   0.0000       0.305604         8.3159 
 192   0.0000       0.307929         8.3792 
 193   0.0000       0.313527         8.5315 
 194   0.0000       0.315923         8.5967 
 195   0.0000       0.317222         8.6320 
 196   0.0000       0.320068         8.7095 
 197   0.0000       0.325418         8.8551 
 198   0.0000       0.329099         8.9552 
 199   0.0000       0.329354         8.9622 
 200   0.0000       0.333829         9.0840 
 201   0.0000       0.335055         9.1173 
 202   0.0000       0.338286         9.2052 
 203   0.0000       0.343109         9.3365 
 204   0.0000       0.344076         9.3628 
 205   0.0000       0.349471         9.5096 
 206   0.0000       0.351427         9.5628 
 207   0.0000       0.358715         9.7611 
 208   0.0000       0.361229         9.8295 
 209   0.0000       0.365954         9.9581 
 210   0.0000       0.367619        10.0034 
 211   0.0000       0.371545        10.1103 
 212   0.0000       0.377093        10.2612 
 213   0.0000       0.383456        10.4344 
 214   0.0000       0.384914        10.4741 
 215   0.0000       0.388025        10.5587 
 216   0.0000       0.388950        10.5839 
 217   0.0000       0.394625        10.7383 
 218   0.0000       0.397726        10.8227 
 219   0.0000       0.405334        11.0297 
 220   0.0000       0.406620        11.0647 
 221   0.0000       0.409276        11.1370 
 222   0.0000       0.417281        11.3548 
 223   0.0000       0.418755        11.3949 
 224   0.0000       0.423311        11.5189 
 225   0.0000       0.424977        11.5642 
 226   0.0000       0.427369        11.6293 
 227   0.0000       0.430241        11.7075 
 228   0.0000       0.433553        11.7976 
 229   0.0000       0.438370        11.9286 
 230   0.0000       0.443078        12.0568 
 231   0.0000       0.446323        12.1451 
 232   0.0000       0.450048        12.2464 
 233   0.0000       0.450303        12.2534 
 234   0.0000       0.452187        12.3046 
 235   0.0000       0.455615        12.3979 
 236   0.0000       0.458381        12.4732 
 237   0.0000       0.461689        12.5632 
 238   0.0000       0.465719        12.6729 
 239   0.0000       0.467682        12.7263 
 240   0.0000       0.468358        12.7447 
 241   0.0000       0.471295        12.8246 
 242   0.0000       0.475346        12.9348 
 243   0.0000       0.477595        12.9960 
 244   0.0000       0.478780        13.0283 
 245   0.0000       0.481209        13.0943 
 246   0.0000       0.487238        13.2584 
 247   0.0000       0.488811        13.3012 
 248   0.0000       0.490841        13.3565 
 249   0.0000       0.493628        13.4323 
 250   0.0000       0.496824        13.5193 
 251   0.0000       0.498948        13.5771 
 252   0.0000       0.503094        13.6899 
 253   0.0000       0.506259        13.7760 
 254   0.0000       0.507163        13.8006 
 255   0.0000       0.510472        13.8907 
 256   0.0000       0.510804        13.8997 
 257   0.0000       0.517396        14.0791 
 258   0.0000       0.518312        14.1040 
 259   0.0000       0.519710        14.1420 
 260   0.0000       0.522266        14.2116 
 261   0.0000       0.524409        14.2699 
 262   0.0000       0.526666        14.3313 
 263   0.0000       0.530466        14.4347 
 264   0.0000       0.532034        14.4774 
 265   0.0000       0.535522        14.5723 
 266   0.0000       0.538507        14.6535 
 267   0.0000       0.541513        14.7353 
 268   0.0000       0.543172        14.7805 
 269   0.0000       0.545067        14.8320 
 270   0.0000       0.547243        14.8913 
 271   0.0000       0.549795        14.9607 
 272   0.0000       0.551574        15.0091 
 273   0.0000       0.556095        15.1321 
 274   0.0000       0.559082        15.2134 
 275   0.0000       0.564979        15.3739 
 276   0.0000       0.566360        15.4114 
 277   0.0000       0.570986        15.5373 
 278   0.0000       0.572011        15.5652 
 279   0.0000       0.573613        15.6088 
 280   0.0000       0.577548        15.7159 
 281   0.0000       0.582927        15.8623 
 282   0.0000       0.584303        15.8997 
 283   0.0000       0.588061        16.0020 
 284   0.0000       0.591459        16.0944 
 285   0.0000       0.593245        16.1430 
 286   0.0000       0.594588        16.1796 
 287   0.0000       0.598527        16.2867 
 288   0.0000       0.602516        16.3953 
 289   0.0000       0.604367        16.4457 
 290   0.0000       0.609085        16.5740 
 291   0.0000       0.611726        16.6459 
 292   0.0000       0.613257        16.6876 
 293   0.0000       0.614875        16.7316 
 294   0.0000       0.620374        16.8812 
 295   0.0000       0.624186        16.9850 
 296   0.0000       0.627867        17.0851 
 297   0.0000       0.633553        17.2399 
 298   0.0000       0.642711        17.4891 
 299   0.0000       0.646926        17.6037 
 300   0.0000       0.650183        17.6924 
 301   0.0000       0.658779        17.9263 
 302   0.0000       0.662168        18.0185 
 303   0.0000       0.671945        18.2845 
 304   0.0000       0.673988        18.3401 
 305   0.0000       0.679817        18.4988 
 306   0.0000       0.683898        18.6098 
 307   0.0000       0.685774        18.6609 
 308   0.0000       0.690810        18.7979 
 309   0.0000       0.691902        18.8276 
 310   0.0000       0.697273        18.9738 
 311   0.0000       0.702870        19.1261 
 312   0.0000       0.709425        19.3044 
 313   0.0000       0.713578        19.4175 
 314   0.0000       0.714197        19.4343 
 315   0.0000       0.716120        19.4866 
 316   0.0000       0.722619        19.6635 
 317   0.0000       0.729804        19.8590 
 318   0.0000       0.730845        19.8873 
 319   0.0000       0.733635        19.9632 
 320   0.0000       0.737822        20.0772 
 321   0.0000       0.739286        20.1170 
 322   0.0000       0.742700        20.2099 
 323   0.0000       0.747457        20.3393 
 324   0.0000       0.753040        20.4913 
 325   0.0000       0.754687        20.5361 
 326   0.0000       0.763273        20.7697 
 327   0.0000       0.764999        20.8167 
 328   0.0000       0.767364        20.8810 
 329   0.0000       0.769284        20.9333 
 330   0.0000       0.772740        21.0273 
 331   0.0000       0.779437        21.2095 
 332   0.0000       0.780447        21.2371 
 333   0.0000       0.783403        21.3175 
 334   0.0000       0.788011        21.4429 
 335   0.0000       0.792153        21.5556 
 336   0.0000       0.795094        21.6356 
 337   0.0000       0.797271        21.6949 
 338   0.0000       0.799555        21.7570 
 339   0.0000       0.806404        21.9434 
 340   0.0000       0.808767        22.0077 
 341   0.0000       0.811071        22.0704 
 342   0.0000       0.813444        22.1349 
 343   0.0000       0.819086        22.2885 
 344   0.0000       0.831089        22.6151 
 345   0.0000       0.832257        22.6469 
 346   0.0000       0.834975        22.7208 
 347   0.0000       0.840404        22.8686 
 348   0.0000       0.852213        23.1899 
 349   0.0000       0.854860        23.2619 
 350   0.0000       0.857559        23.3354 
 351   0.0000       0.861156        23.4332 
 352   0.0000       0.867637        23.6096 
 353   0.0000       0.871245        23.7078 
 354   0.0000       0.877656        23.8822 
 355   0.0000       0.880461        23.9586 
 356   0.0000       0.891763        24.2661 
 357   0.0000       0.893072        24.3017 
 358   0.0000       0.898356        24.4455 
 359   0.0000       0.903797        24.5936 
 360   0.0000       0.904405        24.6101 
 361   0.0000       0.910911        24.7872 
 362   0.0000       0.915244        24.9050 
 363   0.0000       0.916034        24.9266 
 364   0.0000       0.917907        24.9775 
 365   0.0000       0.923872        25.1398 
 366   0.0000       0.926886        25.2218 
 367   0.0000       0.930789        25.3280 
 368   0.0000       0.939145        25.5554 
 369   0.0000       0.943142        25.6642 
 370   0.0000       0.944009        25.6878 
 371   0.0000       0.944969        25.7139 
 372   0.0000       0.948939        25.8219 
 373   0.0000       0.953867        25.9560 
 374   0.0000       0.961441        26.1621 
 375   0.0000       0.966137        26.2899 
 376   0.0000       0.970070        26.3969 
 377   0.0000       0.977806        26.6075 
 378   0.0000       0.982729        26.7414 
 379   0.0000       0.984037        26.7770 
 380   0.0000       0.986132        26.8340 
 381   0.0000       0.995112        27.0784 
 382   0.0000       0.998191        27.1622 
 383   0.0000       1.002696        27.2847 
 384   0.0000       1.010911        27.5083 
 385   0.0000       1.015905        27.6442 
 386   0.0000       1.019947        27.7542 
 387   0.0000       1.026400        27.9298 
 388   0.0000       1.027667        27.9642 
 389   0.0000       1.029534        28.0150 
 390   0.0000       1.032927        28.1074 
 391   0.0000       1.038353        28.2550 
 392   0.0000       1.041218        28.3330 
 393   0.0000       1.048495        28.5310 
 394   0.0000       1.054255        28.6877 
 395   0.0000       1.062372        28.9086 
 396   0.0000       1.068665        29.0799 
 397   0.0000       1.072710        29.1899 
 398   0.0000       1.073939        29.2234 
 399   0.0000       1.079416        29.3724 
 400   0.0000       1.091083        29.6899 
 401   0.0000       1.100676        29.9509 
 402   0.0000       1.105393        30.0793 
 403   0.0000       1.108561        30.1655 
 404   0.0000       1.118055        30.4238 
 405   0.0000       1.121961        30.5301 
 406   0.0000       1.128432        30.7062 
 407   0.0000       1.133426        30.8421 
 408   0.0000       1.134783        30.8790 
 409   0.0000       1.137220        30.9453 
 410   0.0000       1.140955        31.0470 
 411   0.0000       1.147891        31.2357 
[...]
   117a -> 123a  :     0.010000 

STATE 16:  E=   0.195269 au      5.314 eV    42856.5 cm**-1 <S**2> =   0.000000
   111a -> 118a  :     0.055343 
   115a -> 120a  :     0.016656 
   115a -> 121a  :     0.012652 
   116a -> 119a  :     0.067505 
   116a -> 120a  :     0.272607 
   116a -> 121a  :     0.379809 
   117a -> 123a  :     0.093456 

STATE 17:  E=   0.200757 au      5.463 eV    44061.2 cm**-1 <S**2> =   0.000000
   110a -> 118a  :     0.144779 
   110a -> 119a  :     0.016228 
   111a -> 118a  :     0.013199 
   112a -> 123a  :     0.024691 
   113a -> 119a  :     0.057283 
   114a -> 119a  :     0.011861 
   114a -> 120a  :     0.060716 
   114a -> 121a  :     0.021195 
   115a -> 119a  :     0.149360 
   115a -> 120a  :     0.097717 
   115a -> 121a  :     0.044968 
   116a -> 119a  :     0.039991 
   116a -> 120a  :     0.048291 
   116a -> 121a  :     0.017692 
   116a -> 122a  :     0.059742 
   116a -> 123a  :     0.022915 
   117a -> 122a  :     0.011487 
   117a -> 123a  :     0.028912 
   117a -> 132a  :     0.024486 

STATE 18:  E=   0.199534 au      5.430 eV    43792.5 cm**-1 <S**2> =   0.000000
   107a -> 118a  :     0.044227 
   110a -> 118a  :     0.107495 
   111a -> 118a  :     0.186133 
   112a -> 119a  :     0.013388 
   112a -> 120a  :     0.021793 
   112a -> 123a  :     0.013462 
   113a -> 119a  :     0.054571 
   114a -> 119a  :     0.013764 
   114a -> 120a  :     0.012222 
   115a -> 119a  :     0.110213 
   115a -> 120a  :     0.072547 
   115a -> 121a  :     0.026056 
   116a -> 120a  :     0.040323 
   116a -> 122a  :     0.103908 
   116a -> 123a  :     0.014385 
   117a -> 132a  :     0.023748 

STATE 19:  E=   0.198888 au      5.412 eV    43650.8 cm**-1 <S**2> =   0.000000
   106a -> 118a  :     0.028360 
   107a -> 118a  :     0.131073 
   108a -> 119a  :     0.014142 
   109a -> 118a  :     0.027666 
   110a -> 118a  :     0.322928 
   110a -> 119a  :     0.089416 
   110a -> 129a  :     0.013567 
   112a -> 121a  :     0.010023 
   113a -> 119a  :     0.014668 
   114a -> 120a  :     0.081291 
   115a -> 119a  :     0.083030 
   116a -> 122a  :     0.010324 

STATE 20:  E=   0.213145 au      5.800 eV    46780.0 cm**-1 <S**2> =   0.000000
   103a -> 118a  :     0.010893 
   107a -> 118a  :     0.024794 
   110a -> 119a  :     0.012785 
   111a -> 118a  :     0.228955 
   112a -> 120a  :     0.010055 
   113a -> 119a  :     0.014095 
   113a -> 120a  :     0.096482 
   114a -> 119a  :     0.085151 
   114a -> 120a  :     0.024666 
   115a -> 120a  :     0.229117 
   115a -> 121a  :     0.093703 
   116a -> 121a  :     0.028287 
   117a -> 123a  :     0.023345 

STATE 21:  E=   0.222925 au      6.066 eV    48926.3 cm**-1 <S**2> =   0.000000
   115a -> 124a  :     0.052254 
   115a -> 125a  :     0.013130 
   116a -> 124a  :     0.012031 
   117a -> 124a  :     0.739000 
   117a -> 125a  :     0.013725 
   117a -> 126a  :     0.012348 
   117a -> 130a  :     0.021495 
   117a -> 131a  :     0.019405 

STATE 22:  E=   0.200221 au      5.448 eV    43943.5 cm**-1 <S**2> =   0.000000
   104a -> 118a  :     0.010840 
   106a -> 118a  :     0.036234 
   107a -> 118a  :     0.122154 
   110a -> 118a  :     0.176068 
   111a -> 118a  :     0.259157 
   112a -> 119a  :     0.013600 
   112a -> 120a  :     0.011623 
   113a -> 120a  :     0.032498 
   115a -> 121a  :     0.086374 
   116a -> 121a  :     0.052302 
   116a -> 122a  :     0.022643 
   116a -> 123a  :     0.014702 
   117a -> 123a  :     0.020496 
   117a -> 124a  :     0.016824 
   117a -> 132a  :     0.011200 

STATE 23:  E=   0.214035 au      5.824 eV    46975.3 cm**-1 <S**2> =   0.000000
   112a -> 122a  :     0.022610 
   113a -> 119a  :     0.043925 
   113a -> 120a  :     0.038613 
   113a -> 121a  :     0.027528 
   114a -> 119a  :     0.023238 
   114a -> 120a  :     0.095452 
   115a -> 120a  :     0.031812 
   115a -> 121a  :     0.144750 
   115a -> 123a  :     0.010716 
   116a -> 119a  :     0.031212 
   116a -> 120a  :     0.188058 
   116a -> 121a  :     0.093863 
   116a -> 123a  :     0.145854 
   117a -> 132a  :     0.010516 

STATE 24:  E=   0.207292 au      5.641 eV    45495.2 cm**-1 <S**2> =   0.000000
   106a -> 118a  :     0.108165 
   107a -> 118a  :     0.312232 
   108a -> 118a  :     0.010992 
   110a -> 118a  :     0.094688 
   111a -> 118a  :     0.124266 
   113a -> 120a  :     0.052746 
   114a -> 119a  :     0.026794 
   115a -> 120a  :     0.026428 
   115a -> 121a  :     0.087736 

STATE 25:  E=   0.227948 au      6.203 eV    50028.9 cm**-1 <S**2> =   0.000000
   112a -> 119a  :     0.029130 
   115a -> 120a  :     0.014351 
   115a -> 124a  :     0.021414 
   115a -> 125a  :     0.062289 
   116a -> 122a  :     0.022489 
   116a -> 125a  :     0.015581 
   117a -> 124a  :     0.012793 
   117a -> 125a  :     0.688550 
   117a -> 134a  :     0.021654 

STATE 26:  E=   0.214555 au      5.838 eV    47089.3 cm**-1 <S**2> =   0.000000
   112a -> 119a  :     0.304373 
   112a -> 121a  :     0.014509 
   113a -> 119a  :     0.032312 
   113a -> 120a  :     0.018120 
   114a -> 119a  :     0.048055 
   114a -> 120a  :     0.015076 
   115a -> 120a  :     0.131535 
   115a -> 121a  :     0.086258 
   115a -> 122a  :     0.012571 
   116a -> 119a  :     0.023595 
   116a -> 122a  :     0.121984 
   117a -> 125a  :     0.062985 

STATE 27:  E=   0.223033 au      6.069 eV    48950.1 cm**-1 <S**2> =   0.000000
   110a -> 119a  :     0.013579 
   112a -> 119a  :     0.030350 
   112a -> 120a  :     0.021628 
   112a -> 121a  :     0.017145 
   112a -> 122a  :     0.012694 
   113a -> 119a  :     0.172826 
   114a -> 120a  :     0.293514 
   114a -> 121a  :     0.027497 
   116a -> 120a  :     0.078555 
   116a -> 121a  :     0.066537 
   116a -> 122a  :     0.074944 
   116a -> 123a  :     0.038665 

STATE 28:  E=   0.213904 au      5.821 eV    46946.5 cm**-1 <S**2> =   0.000000
   112a -> 119a  :     0.442559 
   112a -> 122a  :     0.010838 
   113a -> 120a  :     0.044430 
   114a -> 119a  :     0.037460 
   115a -> 120a  :     0.026832 
   115a -> 121a  :     0.031477 
   116a -> 122a  :     0.323194 

STATE 29:  E=   0.217645 au      5.922 eV    47767.6 cm**-1 <S**2> =   0.000000
   103a -> 118a  :     0.012246 
   108a -> 118a  :     0.029332 
   109a -> 118a  :     0.326797 
   112a -> 120a  :     0.019581 
   113a -> 120a  :     0.077491 
   114a -> 120a  :     0.024517 
   115a -> 120a  :     0.023720 
   115a -> 123a  :     0.024887 
   116a -> 120a  :     0.096611 
   116a -> 121a  :     0.040108 
   116a -> 123a  :     0.203879 

STATE 30:  E=   0.215606 au      5.867 eV    47320.0 cm**-1 <S**2> =   0.000000
   103a -> 118a  :     0.010734 
   109a -> 118a  :     0.458026 
   110a -> 118a  :     0.014715 
   113a -> 120a  :     0.130515 
   113a -> 121a  :     0.018511 
   114a -> 119a  :     0.016289 
   115a -> 119a  :     0.010952 
   115a -> 120a  :     0.015245 
   115a -> 121a  :     0.010858 
   116a -> 120a  :     0.013857 
   116a -> 122a  :     0.011519 
   116a -> 123a  :     0.171666 


-------------------------
TD-DFT-EXCITATION SPECTRA
-------------------------

Center of mass = ( -0.0095, -0.0739, -0.0208)
Calculating the Dipole integrals                  ... done
Transforming integrals                            ... done
Calculating the Linear Momentum integrals         ... done
Transforming integrals                            ... done
Calculating angular momentum integrals            ... done
Transforming integrals                            ... done

-----------------------------------------------------------------------------
         ABSORPTION SPECTRUM VIA TRANSITION ELECTRIC DIPOLE MOMENTS
-----------------------------------------------------------------------------
State   Energy    Wavelength  fosc         T2        TX        TY        TZ  
        (cm-1)      (nm)                 (au**2)    (au)      (au)      (au) 
-----------------------------------------------------------------------------
   1   20353.1    491.3   0.936819142  15.15311   3.79121   0.78878  -0.39708
   2   25544.7    391.5   0.001929927   0.02487   0.03112  -0.15432  -0.00949
   3   30185.1    331.3   0.375905597   4.09980   0.59773  -1.91861  -0.24788
   4   32041.4    312.1   0.010683230   0.10977   0.30840  -0.08743  -0.08373
   5   32179.5    310.8   0.044307082   0.45328  -0.53733   0.39598   0.08809
   6   33997.1    294.1   0.000228689   0.00221  -0.02810   0.03760  -0.00329
   7   34860.6    286.9   0.021458221   0.20264   0.02488   0.24409   0.37742
   8   35971.7    278.0   0.284716377   2.60571   0.12177  -1.60045  -0.17163
   9   38509.6    259.7   0.027183553   0.23239  -0.34144   0.24951  -0.23141
  10   38516.5    259.6   0.019644745   0.16791  -0.03507   0.29320   0.28410
  11   39423.8    253.7   0.012738740   0.10638  -0.24664   0.21331  -0.00640
  12   42495.7    235.3   0.125373666   0.97126   0.29571   0.52311   0.78113
  13   40575.4    246.5   0.113694596   0.92247  -0.59429  -0.72622  -0.20469
  14   39678.3    252.0   0.029072458   0.24121  -0.40150   0.16857   0.22714
  15   40164.7    249.0   0.210561473   1.72588   1.02778   0.77827  -0.25267
  16   42856.5    233.3   1.056875127   8.11863  -2.83590  -0.16410   0.22213
  17   44061.2    227.0   0.023857180   0.17825  -0.30772   0.27139  -0.09955
  18   43792.5    228.3   0.036652412   0.27554  -0.46660  -0.15350  -0.18510
  19   43650.8    229.1   0.040162799   0.30291   0.23691  -0.45243   0.20516
  20   46780.0    213.8   0.258778328   1.82114  -0.04963  -0.76455  -1.11092
  21   48926.3    204.4   0.016155992   0.10871   0.01004  -0.29722  -0.14236
  22   43943.5    227.6   0.091195375   0.68321  -0.40171  -0.65594  -0.30261
  23   46975.3    212.9   0.420862674   2.94949  -0.26982   1.69405   0.08286
  24   45495.2    219.8   0.118738031   0.85921  -0.46045  -0.46824  -0.65418
  25   50028.9    199.9   0.005811981   0.03825  -0.15516   0.09935  -0.06557
  26   47089.3    212.4   0.084982438   0.59413  -0.24157   0.65973  -0.31706
  27   48950.1    204.3   0.169586568   1.14055   0.87114  -0.15025   0.59924
  28   46946.5    213.0   0.056068090   0.39318   0.20631  -0.55433  -0.20815
  29   47767.6    209.3   0.036989941   0.25493   0.39605  -0.24913   0.18976
  30   47320.0    211.3   0.025557372   0.17781   0.28055   0.07951   0.30459

-----------------------------------------------------------------------------
         ABSORPTION SPECTRUM VIA TRANSITION VELOCITY DIPOLE MOMENTS
-----------------------------------------------------------------------------
State   Energy    Wavelength   fosc        P2         PX        PY        PZ  
        (cm-1)      (nm)                 (au**2)     (au)      (au)      (au) 
-----------------------------------------------------------------------------
   1   20353.1    491.3   1.297627122   0.18050  -0.41375  -0.08618   0.04341
   2   25544.7    391.5   0.003014175   0.00053  -0.00454   0.02243   0.00152
   3   30185.1    331.3   0.507138614   0.10462  -0.09527   0.30657   0.03948
   4   32041.4    312.1   0.013853507   0.00303  -0.05103   0.01499   0.01432
   5   32179.5    310.8   0.061316154   0.01349   0.09270  -0.06829  -0.01516
   6   33997.1    294.1   0.000283934   0.00007   0.00510  -0.00629   0.00061
   7   34860.6    286.9   0.028310611   0.00675  -0.00495  -0.04457  -0.06881
   8   35971.7    278.0   0.374630662   0.09210  -0.02343   0.30085   0.03225
   9   38509.6    259.7   0.035260423   0.00928   0.06810  -0.05028   0.04598
  10   38516.5    259.6   0.025431032   0.00669   0.00625  -0.05847  -0.05689
  11   39423.8    253.7   0.016156115   0.00435   0.05009  -0.04290   0.00190
  12   42495.7    235.3   0.141118713   0.04099  -0.06033  -0.10677  -0.16108
  13   40575.4    246.5   0.147711542   0.04096   0.12493   0.15349   0.04238
  14   39678.3    252.0   0.040650876   0.01102   0.08531  -0.03728  -0.04855
  15   40164.7    249.0   0.291651711   0.08006  -0.22158  -0.16760   0.05360
  16   42856.5    233.3   1.362005802   0.39894   0.62860   0.03645  -0.04964
  17   44061.2    227.0   0.032136684   0.00968   0.07204  -0.06293   0.02296
  18   43792.5    228.3   0.051234410   0.01533   0.11005   0.03654   0.04346
  19   43650.8    229.1   0.056544815   0.01687  -0.05574   0.10706  -0.04797
  20   46780.0    213.8   0.323279545   0.10336   0.01197   0.18208   0.26469
  21   48926.3    204.4   0.017966405   0.00601  -0.00329   0.07212   0.02821
  22   43943.5    227.6   0.131024155   0.03935   0.09609   0.15747   0.07293
  23   46975.3    212.9   0.534812056   0.17170   0.06658  -0.40851  -0.01969
  24   45495.2    219.8   0.163459289   0.05083   0.11217   0.11414   0.15880
  25   50028.9    199.9   0.008893242   0.00304   0.03871  -0.02538   0.02997
  26   47089.3    212.4   0.107619675   0.03464   0.05789  -0.16100   0.07324
  27   48950.1    204.3   0.208736560   0.06983  -0.21584   0.03859  -0.14750
  28   46946.5    213.0   0.077921679   0.02500  -0.05026   0.14054   0.05219
  29   47767.6    209.3   0.050871453   0.01661  -0.10119   0.06367  -0.04811
  30   47320.0    211.3   0.036277689   0.01173  -0.07182  -0.02115  -0.07828

-------------------------------------------------------------------
                             CD SPECTRUM
-------------------------------------------------------------------
State  Energy     Wavelength     R         MX        MY        MZ   
       (cm-1)       (nm)     (1e40*cgs)   (au)      (au)      (au)  
-------------------------------------------------------------------
   1   20353.1    491.3     42.95984   0.10938  -0.26921   0.28006
   2   25544.7    391.5     -0.71700  -0.01447   0.00518   0.02853
   3   30185.1    331.3    -77.29942  -0.23693  -0.02349   0.27193
   4   32041.4    312.1     -3.20923   0.03892  -0.07230   0.30013
   5   32179.5    310.8    -16.33935   0.12762   0.02413   0.27655
   6   33997.1    294.1      0.82687  -0.05215   0.00949   0.02079
   7   34860.6    286.9     25.06589  -0.24075  -0.02230   0.17116
   8   35971.7    278.0     -2.22215  -0.14963  -0.02700   0.17305
   9   38509.6    259.7    -16.70944   0.32438   0.10752  -0.20954
  10   38516.5    259.6     18.72853  -0.21586  -0.03933   0.15377
  11   39423.8    253.7    -13.49358   0.09434  -0.02689  -0.05998
  12   42495.7    235.3     72.74088  -0.52990  -0.01639   0.40910
  13   40575.4    246.5    -63.30935  -0.02345   0.20185   0.00799
  14   39678.3    252.0     44.11878  -0.11817  -0.00980   0.21038
  15   40164.7    249.0     77.55473   0.14397  -0.01595  -0.11457
  16   42856.5    233.3    -90.07555   0.08081   0.32692   0.41312
  17   44061.2    227.0      2.35424   0.23217   0.13436  -0.40152
  18   43792.5    228.3     -5.39452   0.04834   0.10789  -0.14952
  19   43650.8    229.1    -22.75019  -0.34025   0.06161   0.29356
  20   46780.0    213.8    403.33636   0.68368   0.28282  -0.99529
  21   48926.3    204.4     22.71249  -0.11338  -0.21304   0.09839
  22   43943.5    227.6    -176.54408   0.30756   0.14226   0.52081
  23   46975.3    212.9     43.68967   0.36718   0.14565  -0.66371
  24   45495.2    219.8    -36.82106   0.33454   0.05858  -0.15800
  25   50028.9    199.9    -35.32152   0.43746  -0.02501   0.06953
  26   47089.3    212.4    -45.53485   0.40571   0.11219   0.22895
  27   48950.1    204.3    -117.55841  -0.69276  -0.31320   0.51245
  28   46946.5    213.0      9.32470  -0.05928   0.01814  -0.20209
  29   47767.6    209.3     -0.97559  -0.15709  -0.03100   0.27627
  30   47320.0    211.3    -50.99887  -0.27412  -0.05401  -0.08856

Total run time:    11885.059 sec

           *** ORCA-CIS/TD-DFT FINISHED WITHOUT ERROR ***

Maximum memory used throughout the entire CIS-calculation: 6658.1 MB

-----------------------
CIS/TD-DFT TOTAL ENERGY
-----------------------

    E(SCF)  =  -1418.247023672 Eh
    DE(CIS) =      0.092735335 Eh (Root  1)
    ----------------------------- ---------
    E(tot)  =  -1418.154288337 Eh



-------------------------------------------------------------------------------
                          DFT DISPERSION CORRECTION                            
                                                                               
                              DFTD3 V3.1  Rev 1                                
                          USING Becke-Johnson damping                          
-------------------------------------------------------------------------------
The B2PLYP functional is recognized
Active option DFTDOPT                   ...         4   

molecular C6(AA) [au] = 42394.340413 


            DFT-D V3
 parameters
 s6 scaling factor         :     0.6400 
 a1 scaling factor         :     0.3065 
 s8 scaling factor         :     0.9147 
 a2 scaling factor         :     5.0570 
 ad hoc parameters k1-k3   :    16.0000     1.3333    -4.0000 

 Edisp/kcal,au: -43.105985934367  -0.068693753828 
 E6   /kcal   : -24.698462515 
 E8   /kcal   : -18.407523419 
 % E8         :  42.702940254 

-------------------------   ----------------
Dispersion correction           -0.068693754
-------------------------   ----------------


-------------------------   --------------------
FINAL SINGLE POINT ENERGY     -1418.222982090883
-------------------------   --------------------


                            ***************************************
                            *     ORCA property calculations      *
                            ***************************************


  WARNING: The energy has been calculated at the MP2 level but the densities
           used in the property calculations are still SCF densities
           MP2 response densities have not been calculated 
           use %mp2 Density relaxed end
           or  %mp2 Density unrelaxed end

                                    ---------------------
                                    Active property flags
                                    ---------------------
   (+) Dipole Moment


------------------------------------------------------------------------------
                       ORCA ELECTRIC PROPERTIES CALCULATION
------------------------------------------------------------------------------

Dipole Moment Calculation                       ... on
Quadrupole Moment Calculation                   ... off
Polarizability Calculation                      ... off
GBWName                                         ... Rh_6G_M06L_def2TZVP_coords.gbw
Electron density                                ... Rh_6G_M06L_def2TZVP_coords.scfp
The origin for moment calculation is the CENTER OF MASS  = (-0.009534, -0.073874 -0.020831)

-------------
DIPOLE MOMENT
-------------
                                X             Y             Z
Electronic contribution:     -2.64199     -16.42237      -5.90997
Nuclear contribution   :      2.25953      17.50823       4.93684
                        -----------------------------------------
Total Dipole Moment    :     -0.38246       1.08586      -0.97313
                        -----------------------------------------
Magnitude (a.u.)       :      1.50743
Magnitude (Debye)      :      3.83158



--------------------
Rotational spectrum 
--------------------
 
Rotational constants in cm-1:     0.004857     0.003173     0.002222 
Rotational constants in MHz :   145.624084    95.129369    66.608773 

 Dipole components along the rotational axes: 
x,y,z [a.u.] :    -0.396060     1.084335    -0.969382 
x,y,z [Debye]:    -1.006705     2.756160    -2.463972 

 

Timings for individual modules:

Sum of individual times         ...    12849.041 sec (= 214.151 min)
GTO integral calculation        ...        2.568 sec (=   0.043 min)   0.0 %
SCF iterations                  ...      405.518 sec (=   6.759 min)   3.2 %
MP2 module                      ...      554.699 sec (=   9.245 min)   4.3 %
CIS module                      ...    11886.255 sec (= 198.104 min)  92.5 %
                             ****ORCA TERMINATED NORMALLY****
TOTAL RUN TIME: 0 days 3 hours 34 minutes 12 seconds 563 msec
