
                                 *****************
                                 * O   R   C   A *
                                 *****************

                                            #,                                       
                                            ###                                      
                                            ####                                     
                                            #####                                    
                                            ######                                   
                                           ########,                                 
                                     ,,################,,,,,                         
                               ,,#################################,,                 
                          ,,##########################################,,             
                       ,#########################################, ''#####,          
                    ,#############################################,,   '####,        
                  ,##################################################,,,,####,       
                ,###########''''           ''''###############################       
              ,#####''   ,,,,##########,,,,          '''####'''          '####       
            ,##' ,,,,###########################,,,                        '##       
           ' ,,###''''                  '''############,,,                           
         ,,##''                                '''############,,,,        ,,,,,,###''
      ,#''                                            '''#######################'''  
     '                                                          ''''####''''         
             ,#######,   #######,   ,#######,      ##                                
            ,#'     '#,  ##    ##  ,#'     '#,    #''#        ######   ,####,        
            ##       ##  ##   ,#'  ##            #'  '#       #        #'  '#        
            ##       ##  #######   ##           ,######,      #####,   #    #        
            '#,     ,#'  ##    ##  '#,     ,#' ,#      #,         ##   #,  ,#        
             '#######'   ##     ##  '#######'  #'      '#     #####' # '####'        



                  #######################################################
                  #                        -***-                        #
                  #          Department of theory and spectroscopy      #
                  #    Directorship and core code : Frank Neese         #
                  #        Max Planck Institute fuer Kohlenforschung    #
                  #                Kaiser Wilhelm Platz 1               #
                  #                 D-45470 Muelheim/Ruhr               #
                  #                      Germany                        #
                  #                                                     #
                  #                  All rights reserved                #
                  #                        -***-                        #
                  #######################################################


                         Program Version 5.0.2 -  RELEASE  -


 With contributions from (in alphabetic order):
   Daniel Aravena         : Magnetic Suceptibility
   Michael Atanasov       : Ab Initio Ligand Field Theory (pilot matlab implementation)
   Alexander A. Auer      : GIAO ZORA, VPT2 properties, NMR spectrum
   Ute Becker             : Parallelization
   Giovanni Bistoni       : ED, misc. LED, open-shell LED, HFLD
   Martin Brehm           : Molecular dynamics
   Dmytro Bykov           : SCF Hessian
   Vijay G. Chilkuri      : MRCI spin determinant printing, contributions to CSF-ICE
   Dipayan Datta          : RHF DLPNO-CCSD density
   Achintya Kumar Dutta   : EOM-CC, STEOM-CC
   Dmitry Ganyushin       : Spin-Orbit,Spin-Spin,Magnetic field MRCI
   Miquel Garcia          : C-PCM and meta-GGA Hessian, CC/C-PCM, Gaussian charge scheme
   Yang Guo               : DLPNO-NEVPT2, F12-NEVPT2, CIM, IAO-localization
   Andreas Hansen         : Spin unrestricted coupled pair/coupled cluster methods
   Benjamin Helmich-Paris : MC-RPA, TRAH-SCF, COSX integrals
   Lee Huntington         : MR-EOM, pCC
   Robert Izsak           : Overlap fitted RIJCOSX, COSX-SCS-MP3, EOM
   Marcus Kettner         : VPT2
   Christian Kollmar      : KDIIS, OOCD, Brueckner-CCSD(T), CCSD density, CASPT2, CASPT2-K
   Simone Kossmann        : Meta GGA functionals, TD-DFT gradient, OOMP2, MP2 Hessian
   Martin Krupicka        : Initial AUTO-CI
   Lucas Lang             : DCDCAS
   Marvin Lechner         : AUTO-CI (C++ implementation), FIC-MRCC
   Dagmar Lenk            : GEPOL surface, SMD
   Dimitrios Liakos       : Extrapolation schemes; Compound Job, initial MDCI parallelization
   Dimitrios Manganas     : Further ROCIS development; embedding schemes
   Dimitrios Pantazis     : SARC Basis sets
   Anastasios Papadopoulos: AUTO-CI, single reference methods and gradients
   Taras Petrenko         : DFT Hessian,TD-DFT gradient, ASA, ECA, R-Raman, ABS, FL, XAS/XES, NRVS
   Peter Pinski           : DLPNO-MP2, DLPNO-MP2 Gradient
   Christoph Reimann      : Effective Core Potentials
   Marius Retegan         : Local ZFS, SOC
   Christoph Riplinger    : Optimizer, TS searches, QM/MM, DLPNO-CCSD(T), (RO)-DLPNO pert. Triples
   Tobias Risthaus        : Range-separated hybrids, TD-DFT gradient, RPA, STAB
   Michael Roemelt        : Original ROCIS implementation
   Masaaki Saitow         : Open-shell DLPNO-CCSD energy and density
   Barbara Sandhoefer     : DKH picture change effects
   Avijit Sen             : IP-ROCIS
   Kantharuban Sivalingam : CASSCF convergence, NEVPT2, FIC-MRCI
   Bernardo de Souza      : ESD, SOC TD-DFT
   Georgi Stoychev        : AutoAux, RI-MP2 NMR, DLPNO-MP2 response
   Willem Van den Heuvel  : Paramagnetic NMR
   Boris Wezisla          : Elementary symmetry handling
   Frank Wennmohs         : Technical directorship


 We gratefully acknowledge several colleagues who have allowed us to
 interface, adapt or use parts of their codes:
   Stefan Grimme, W. Hujo, H. Kruse, P. Pracht,  : VdW corrections, initial TS optimization,
                  C. Bannwarth, S. Ehlert          DFT functionals, gCP, sTDA/sTD-DF
   Ed Valeev, F. Pavosevic, A. Kumar             : LibInt (2-el integral package), F12 methods
   Garnet Chan, S. Sharma, J. Yang, R. Olivares  : DMRG
   Ulf Ekstrom                                   : XCFun DFT Library
   Mihaly Kallay                                 : mrcc  (arbitrary order and MRCC methods)
   Jiri Pittner, Ondrej Demel                    : Mk-CCSD
   Frank Weinhold                                : gennbo (NPA and NBO analysis)
   Christopher J. Cramer and Donald G. Truhlar   : smd solvation model
   Lars Goerigk                                  : TD-DFT with DH, B97 family of functionals
   V. Asgeirsson, H. Jonsson                     : NEB implementation
   FAccTs GmbH                                   : IRC, NEB, NEB-TS, DLPNO-Multilevel, CI-OPT
                                                   MM, QMMM, 2- and 3-layer-ONIOM, Crystal-QMMM,
                                                   LR-CPCM, SF, NACMEs, symmetry and pop. for TD-DFT,
                                                   nearIR, NL-DFT gradient (VV10), updates on ESD,
                                                   ML-optimized integration grids
   S Lehtola, MJT Oliveira, MAL Marques          : LibXC Library
   Liviu Ungur et al                             : ANISO software


 Your calculation uses the libint2 library for the computation of 2-el integrals
 For citations please refer to: http://libint.valeyev.net

 Your ORCA version has been built with support for libXC version: 5.1.0
 For citations please refer to: https://tddft.org/programs/libxc/

 This ORCA versions uses:
   CBLAS   interface :  Fast vector & matrix operations
   LAPACKE interface :  Fast linear algebra routines
   SCALAPACK package :  Parallel linear algebra routines
   Shared memory     :  Shared parallel matrices
   BLAS/LAPACK       :  OpenBLAS 0.3.15  USE64BITINT DYNAMIC_ARCH NO_AFFINITY Prescott SINGLE_THREADED
        Core in use  :  Prescott
   Copyright (c) 2011-2014, The OpenBLAS Project


Your calculation utilizes the SMD solvation module
Please cite in your paper:
A.V. Marenich, C.J. Cramer, D.G. Truhlar J. Phys. Chem. B, 113, (2009), 6378 

================================================================================

----- Orbital basis set information -----
Your calculation utilizes the basis: def2-TZVP
   F. Weigend and R. Ahlrichs, Phys. Chem. Chem. Phys. 7, 3297 (2005).

----- AuxJ basis set information -----
Your calculation utilizes the auxiliary basis: def2/J
   F. Weigend, Phys. Chem. Chem. Phys. 8, 1057 (2006).

----- AuxC basis set information -----
Your calculation utilizes the auxiliary basis: def2-TZVP/C
  H-La, Hf-Rn : A. Hellweg, C. Hattig, S. Hofener and W. Klopper, Theor. Chem. Acc. 117, 587 (2007).
        Ce-Lu : J. Chmela and M. E. Harding, Mol. Phys. (2018).

================================================================================
                                        WARNINGS
                       Please study these warnings very carefully!
================================================================================

INFO   : Checking CIS options ...
  ===> : (D) CORRECTION FOUND - SETTING MODE=3
  ===> : JK MODE FOUND - ACTIVATING RI-MP2 CODE
  ===> : MP2 AND CIS FOUND - CHECKING
WARNING: CIS(D) and MP2 runs must have the same orbital window
  ===> : adjusting orbital windows

WARNING: No MP2 level density has been requested!
         To caclulate MP2 level properties use
         %mp2 Density relaxed end
         or
         %mp2 Density unrelaxed end
         Otherwise for double-hybrid DFT only the energy is correct!

WARNING: The frozen-core approximation is turned on by default for 
         the MP2 part of double-hybrid DFT.

WARNING: CIS/ROCIS methods need fully converged wavefunctions
  ===> : Setting SCFConvForced true
         You can overwrite this default with %scf ConvForced false 


INFO   : the flag for use of the SHARK integral package has been found!

================================================================================
                                       INPUT FILE
================================================================================
NAME = Rh_6G_M06L_def2TZVP_coords.inp
|  1> %maxcore 20000
|  2> %pal
|  3>  nprocs= 6
|  4> end
|  5> ! RI-SCS-PBE-QIDH   def2-TZVP def2/J def2-TZVP/C RIJCOSX CPCM TightSCF
|  6> %TDDFT  
|  7>    NROOTS   30
|  8>    dcorr 4
|  9>    doscs true 
| 10>    TDA      FALSE
| 11> END 
| 12>  
| 13>  %CPCM 
| 14>    SMD          TRUE 
| 15>    SMDsolvent   "METHANOL"
| 16>  END 
| 17>  
| 18> 
| 19> * xyz 1 1
| 20> C                  -4.15545200    0.76617200    0.15833200
| 21> C                  -3.05232300    1.62872500    0.09909000
| 22> C                  -1.80121600    1.11410800   -0.13487900
| 23> C                  -1.57070600   -0.26697800   -0.33756400
| 24> C                  -2.70456200   -1.11395800   -0.24745800
| 25> C                  -3.96334800   -0.64751300   -0.00989500
| 26> C                  -0.26349200   -0.71410100   -0.57807600
| 27> C                   0.78362900    0.22173700   -0.60672900
| 28> C                   0.49399900    1.58485200   -0.36828300
| 29> C                   1.46557300    2.55545400   -0.34073800
| 30> H                   1.17968600    3.57970600   -0.15042900
| 31> C                   2.80373600    2.20128300   -0.55639000
| 32> C                   3.14202800    0.83143300   -0.82235100
| 33> C                   2.14435800   -0.09825900   -0.84534600
| 34> H                  -3.16380300    2.69359500    0.24255000
| 35> H                  -2.56128600   -2.18071700   -0.36545500
| 36> H                   2.40668600   -1.12721000   -1.06025000
| 37> O                  -0.77720000    1.99840300   -0.15425700
| 38> C                  -0.00066900   -2.14425400   -0.84763200
| 39> C                  -0.51664100   -2.70771500   -2.01235700
| 40> C                   0.80003300   -2.93880600   -0.01173400
| 41> C                  -0.24908200   -4.02532300   -2.34620200
| 42> H                  -1.12168400   -2.09437600   -2.66848400
| 43> C                   1.07199800   -4.25881700   -0.36270400
| 44> C                   0.54598100   -4.80422500   -1.52012600
| 45> H                  -0.66145700   -4.44045100   -3.25688000
| 46> H                   1.68464500   -4.86108700    0.29463900
| 47> H                   0.75440400   -5.83507300   -1.77494400
| 48> N                  -5.39037700    1.23975100    0.38153200
| 49> C                  -5.71619800    2.63782600    0.58646900
| 50> H                  -5.38675700    3.21538500   -0.28287900
| 51> H                  -5.14943600    3.01807300    1.44230000
| 52> C                  -7.19453900    2.81313800    0.81049700
| 53> H                  -7.52948200    2.26339300    1.69032300
| 54> H                  -7.42968900    3.86410700    0.96403100
| 55> H                  -7.76947000    2.46313700   -0.04706800
| 56> C                   1.31820100   -2.38918100    1.26301200
| 57> O                   0.74557400   -1.54959600    1.92860300
| 58> O                   2.48843200   -2.93376400    1.59756000
| 59> C                   3.57179100    4.53507500   -0.26531900
| 60> H                   3.06167700    4.65346400    0.69569100
| 61> H                   2.89881300    4.94745500   -1.02402500
| 62> C                   4.88390100    5.27354700   -0.26308200
| 63> H                   5.39066400    5.18370700   -1.22416500
| 64> H                   4.71998800    6.33146300   -0.06977400
| 65> H                   5.55196700    4.89149500    0.50903300
| 66> N                   3.77772700    3.12336400   -0.52362500
| 67> H                  -6.15277700    0.58245300    0.42228900
| 68> H                   4.72442400    2.82183000   -0.69016700
| 69> C                   4.56425700    0.45830800   -1.05755200
| 70> H                   4.98114600    0.97736900   -1.92428900
| 71> H                   5.19429600    0.71942500   -0.20329500
| 72> H                   4.66463300   -0.61069900   -1.22976400
| 73> C                  -5.13122600   -1.56671500    0.08512600
| 74> H                  -5.88314100   -1.34542100   -0.67674300
| 75> H                  -4.82369000   -2.60130800   -0.04420200
| 76> H                  -5.63224400   -1.48531800    1.05318100
| 77> C                   3.10564600   -2.45360300    2.81939100
| 78> H                   2.33274200   -2.33596200    3.57859000
| 79> H                   3.76589700   -3.26528900    3.11799400
| 80> C                   3.85959600   -1.17946200    2.57115300
| 81> H                   4.37449200   -0.87574100    3.48192200
| 82> H                   4.60854300   -1.31649500    1.79181300
| 83> H                   3.19268600   -0.36954900    2.27594200
| 84> *
| 85> 
| 86> 
| 87>                          ****END OF INPUT****
================================================================================

                       ****************************
                       * Single Point Calculation *
                       ****************************

---------------------------------
CARTESIAN COORDINATES (ANGSTROEM)
---------------------------------
  C     -4.155452    0.766172    0.158332
  C     -3.052323    1.628725    0.099090
  C     -1.801216    1.114108   -0.134879
  C     -1.570706   -0.266978   -0.337564
  C     -2.704562   -1.113958   -0.247458
  C     -3.963348   -0.647513   -0.009895
  C     -0.263492   -0.714101   -0.578076
  C      0.783629    0.221737   -0.606729
  C      0.493999    1.584852   -0.368283
  C      1.465573    2.555454   -0.340738
  H      1.179686    3.579706   -0.150429
  C      2.803736    2.201283   -0.556390
  C      3.142028    0.831433   -0.822351
  C      2.144358   -0.098259   -0.845346
  H     -3.163803    2.693595    0.242550
  H     -2.561286   -2.180717   -0.365455
  H      2.406686   -1.127210   -1.060250
  O     -0.777200    1.998403   -0.154257
  C     -0.000669   -2.144254   -0.847632
  C     -0.516641   -2.707715   -2.012357
  C      0.800033   -2.938806   -0.011734
  C     -0.249082   -4.025323   -2.346202
  H     -1.121684   -2.094376   -2.668484
  C      1.071998   -4.258817   -0.362704
  C      0.545981   -4.804225   -1.520126
  H     -0.661457   -4.440451   -3.256880
  H      1.684645   -4.861087    0.294639
  H      0.754404   -5.835073   -1.774944
  N     -5.390377    1.239751    0.381532
  C     -5.716198    2.637826    0.586469
  H     -5.386757    3.215385   -0.282879
  H     -5.149436    3.018073    1.442300
  C     -7.194539    2.813138    0.810497
  H     -7.529482    2.263393    1.690323
  H     -7.429689    3.864107    0.964031
  H     -7.769470    2.463137   -0.047068
  C      1.318201   -2.389181    1.263012
  O      0.745574   -1.549596    1.928603
  O      2.488432   -2.933764    1.597560
  C      3.571791    4.535075   -0.265319
  H      3.061677    4.653464    0.695691
  H      2.898813    4.947455   -1.024025
  C      4.883901    5.273547   -0.263082
  H      5.390664    5.183707   -1.224165
  H      4.719988    6.331463   -0.069774
  H      5.551967    4.891495    0.509033
  N      3.777727    3.123364   -0.523625
  H     -6.152777    0.582453    0.422289
  H      4.724424    2.821830   -0.690167
  C      4.564257    0.458308   -1.057552
  H      4.981146    0.977369   -1.924289
  H      5.194296    0.719425   -0.203295
  H      4.664633   -0.610699   -1.229764
  C     -5.131226   -1.566715    0.085126
  H     -5.883141   -1.345421   -0.676743
  H     -4.823690   -2.601308   -0.044202
  H     -5.632244   -1.485318    1.053181
  C      3.105646   -2.453603    2.819391
  H      2.332742   -2.335962    3.578590
  H      3.765897   -3.265289    3.117994
  C      3.859596   -1.179462    2.571153
  H      4.374492   -0.875741    3.481922
  H      4.608543   -1.316495    1.791813
  H      3.192686   -0.369549    2.275942

----------------------------
CARTESIAN COORDINATES (A.U.)
----------------------------
  NO LB      ZA    FRAG     MASS         X           Y           Z
   0 C     6.0000    0    12.011   -7.852666    1.447855    0.299204
   1 C     6.0000    0    12.011   -5.768055    3.077844    0.187253
   2 C     6.0000    0    12.011   -3.403805    2.105359   -0.254884
   3 C     6.0000    0    12.011   -2.968204   -0.504515   -0.637904
   4 C     6.0000    0    12.011   -5.110881   -2.105076   -0.467628
   5 C     6.0000    0    12.011   -7.489642   -1.223622   -0.018699
   6 C     6.0000    0    12.011   -0.497928   -1.349455   -1.092405
   7 C     6.0000    0    12.011    1.480844    0.419022   -1.146552
   8 C     6.0000    0    12.011    0.933523    2.994936   -0.695954
   9 C     6.0000    0    12.011    2.769532    4.829108   -0.643902
  10 H     1.0000    0     1.008    2.229283    6.764664   -0.284270
  11 C     6.0000    0    12.011    5.298293    4.159822   -1.051425
  12 C     6.0000    0    12.011    5.937572    1.571181   -1.554018
  13 C     6.0000    0    12.011    4.052249   -0.185683   -1.597472
  14 H     1.0000    0     1.008   -5.978721    5.090157    0.458353
  15 H     1.0000    0     1.008   -4.840129   -4.120958   -0.690610
  16 H     1.0000    0     1.008    4.547977   -2.130118   -2.003582
  17 O     8.0000    0    15.999   -1.468695    3.776434   -0.291503
  18 C     6.0000    0    12.011   -0.001264   -4.052053   -1.601792
  19 C     6.0000    0    12.011   -0.976310   -5.116840   -3.802804
  20 C     6.0000    0    12.011    1.511843   -5.553539   -0.022174
  21 C     6.0000    0    12.011   -0.470697   -7.606758   -4.433679
  22 H     1.0000    0     1.008   -2.119676   -3.957797   -5.042704
  23 C     6.0000    0    12.011    2.025783   -8.047998   -0.685411
  24 C     6.0000    0    12.011    1.031755   -9.078670   -2.872622
  25 H     1.0000    0     1.008   -1.249973   -8.391236   -6.154611
  26 H     1.0000    0     1.008    3.183518   -9.186123    0.556787
  27 H     1.0000    0     1.008    1.425617  -11.026690   -3.354158
  28 N     7.0000    0    14.007  -10.186336    2.342790    0.720991
  29 C     6.0000    0    12.011  -10.802049    4.984769    1.108266
  30 H     1.0000    0     1.008  -10.179495    6.076197   -0.534564
  31 H     1.0000    0     1.008   -9.731024    5.703331    2.725552
  32 C     6.0000    0    12.011  -13.595708    5.316060    1.531617
  33 H     1.0000    0     1.008  -14.228659    4.277193    3.194248
  34 H     1.0000    0     1.008  -14.040077    7.302104    1.821755
  35 H     1.0000    0     1.008  -14.682171    4.654654   -0.088946
  36 C     6.0000    0    12.011    2.491039   -4.514898    2.386747
  37 O     8.0000    0    15.999    1.408931   -2.928312    3.644531
  38 O     8.0000    0    15.999    4.702455   -5.544011    3.018951
  39 C     6.0000    0    12.011    6.749707    8.570050   -0.501380
  40 H     1.0000    0     1.008    5.785731    8.793773    1.314665
  41 H     1.0000    0     1.008    5.477963    9.349335   -1.935127
  42 C     6.0000    0    12.011    9.229235    9.965560   -0.497153
  43 H     1.0000    0     1.008   10.186879    9.795787   -2.313337
  44 H     1.0000    0     1.008    8.919485   11.964731   -0.131854
  45 H     1.0000    0     1.008   10.491697    9.243586    0.961933
  46 N     7.0000    0    14.007    7.138869    5.902303   -0.989508
  47 H     1.0000    0     1.008  -11.627063    1.100677    0.798011
  48 H     1.0000    0     1.008    8.927868    5.332486   -1.304227
  49 C     6.0000    0    12.011    8.625196    0.866077   -1.998484
  50 H     1.0000    0     1.008    9.413002    1.846960   -3.636379
  51 H     1.0000    0     1.008    9.815797    1.359516   -0.384172
  52 H     1.0000    0     1.008    8.814879   -1.154054   -2.323917
  53 C     6.0000    0    12.011   -9.696612   -2.960662    0.160865
  54 H     1.0000    0     1.008  -11.117525   -2.542477   -1.278859
  55 H     1.0000    0     1.008   -9.115453   -4.915760   -0.083530
  56 H     1.0000    0     1.008  -10.643399   -2.806844    1.990224
  57 C     6.0000    0    12.011    5.868820   -4.636638    5.327877
  58 H     1.0000    0     1.008    4.408244   -4.414328    6.762555
  59 H     1.0000    0     1.008    7.116514   -6.170502    5.892155
  60 C     6.0000    0    12.011    7.293579   -2.228860    4.858775
  61 H     1.0000    0     1.008    8.266592   -1.654911    6.579879
  62 H     1.0000    0     1.008    8.708884   -2.487815    3.386036
  63 H     1.0000    0     1.008    6.033302   -0.698346    4.300907

--------------------------------
INTERNAL COORDINATES (ANGSTROEM)
--------------------------------
 C      0   0   0     0.000000000000     0.00000000     0.00000000
 C      1   0   0     1.401570862644     0.00000000     0.00000000
 C      2   1   0     1.372895070681   119.58839224     0.00000000
 C      3   2   1     1.414784297595   122.60221897     0.75129164
 C      4   3   2     1.418140909914   116.33702320   358.18174642
 C      5   4   3     1.363286217487   123.02298143     1.44581736
 C      4   3   2     1.402345692427   119.18900703   179.66459846
 C      7   4   3     1.404662288699   119.07582662     0.21768059
 C      8   7   4     1.413797911669   119.09099765     1.13690073
 C      9   8   7     1.373602201114   122.66735308   178.07957977
 H     10   9   8     1.080296742453   119.09781859   180.17263605
 C     10   9   8     1.400936507096   119.59720144     0.05451085
 C     12  10   9     1.435850184833   119.65323660     0.87654327
 C     13  12  10     1.363892009577   118.75696891   359.37199137
 H      2   1   3     1.080257690970   121.31989735   180.53593509
 H      5   4   3     1.082786252344   118.40404228   181.92782025
 H     14  13  12     1.083392758514   118.26940382   179.17239410
 O      3   2   1     1.353130415801   116.55894041   181.22428126
 C      7   4   3     1.478875914292   120.34846390   182.48257961
 C     19   7   4     1.392946419978   118.53925584    65.50679534
 C     19   7   4     1.403980783313   122.69161575   242.34884036
 C     20  19   7     1.385327089236   120.97725894   176.95348644
 H     20  19   7     1.082942473495   118.97716566   357.94253788
 C     21  19   7     1.392685873500   119.84964809   183.72378111
 C     24  21  19     1.383397794142   120.68184657   359.11566068
 H     22  20  19     1.082459614347   119.59871920   180.00959458
 H     24  21  19     1.081741798748   119.02328131   180.43059359
 H     25  24  21     1.082136756218   119.95660499   180.79430637
 N      1   2   3     1.341318405475   120.95628137   180.19127954
 C     29   1   2     1.450093860285   124.80523977   359.65551234
 H     30  29   1     1.094473259640   109.20113954    58.01727233
 H     30  29   1     1.094647726994   109.21217309   302.07754443
 C     30  29   1     1.505461708051   110.72885713   180.07040629
 H     33  30  29     1.090183548101   111.28913665    60.31257068
 H     33  30  29     1.087843762044   110.22900355   179.95432669
 H     33  30  29     1.090166998210   111.31111061   299.63547660
 C     21  19   7     1.481743257574   120.11393704     5.73311694
 O     37  21  19     1.214831689015   124.25430788    30.48571263
 O     37  21  19     1.333391765969   111.79361861   210.11780157
 C     12  10   9     2.474109114273    92.28927469   180.78228633
 H     40  12  10     1.094427918329    93.47707553    52.28253534
 H     40  12  10     1.094802012841    94.75824547   305.55526044
 C     40  12  10     1.505648880401   137.16871586   178.01572149
 H     43  40  12     1.090211216535   111.30624208    61.35667554
 H     43  40  12     1.087851882146   110.23839763   181.01321223
 H     43  40  12     1.090154798313   111.29743476   300.69924346
 N     12  10   9     1.341627885767   121.05998610   180.62609246
 H     29   1   2     1.007450025487   118.23647812   180.41199276
 H     47  12  10     1.007419575316   118.19459535   180.36577271
 C     13  12  10     1.489052418307   119.56095217   179.71621474
 H     50  13  12     1.092910694984   111.75184747   299.60906470
 H     50  13  12     1.093108526752   111.54373453    58.89088164
 H     50  13  12     1.087431965858   111.07015228   179.15262173
 C      6   5   4     1.489261672819   121.60269953   180.30168989
 H     54   6   5     1.093065219839   111.71672710   240.54601433
 H     54   6   5     1.087054183805   110.97656473     0.78302764
 H     54   6   5     1.093057633868   111.71520425   121.13707030
 C     39  37  21     1.450647683029   116.71482366   178.93086392
 H     58  39  37     1.089772049420   108.70777395    41.26716716
 H     58  39  37     1.088085151634   104.02851824   156.89527894
 C     58  39  37     1.501165545510   110.81501264   277.37003222
 H     61  58  39     1.089433113146   109.61851084   184.12075858
 H     61  58  39     1.089527644210   110.90240526   303.22118309
 H     61  58  39     1.089897954026   111.60430208    64.55739244

---------------------------
INTERNAL COORDINATES (A.U.)
---------------------------
 C      0   0   0     0.000000000000     0.00000000     0.00000000
 C      1   0   0     2.648585087682     0.00000000     0.00000000
 C      2   1   0     2.594395694197   119.58839224     0.00000000
 C      3   2   1     2.673554861026   122.60221897     0.75129164
 C      4   3   2     2.679897939048   116.33702320   358.18174642
 C      5   4   3     2.576237593200   123.02298143     1.44581736
 C      4   3   2     2.650049303771   119.18900703   179.66459846
 C      7   4   3     2.654427036289   119.07582662     0.21768059
 C      8   7   4     2.671690861765   119.09099765     1.13690073
 C      9   8   7     2.595731977057   122.66735308   178.07957977
 H     10   9   8     2.041464986603   119.09781859   180.17263605
 C     10   9   8     2.647386329423   119.59720144     0.05451085
 C     12  10   9     2.713363618675   119.65323660     0.87654327
 C     13  12  10     2.577382374345   118.75696891   359.37199137
 H      2   1   3     2.041391189996   121.31989735   180.53593509
 H      5   4   3     2.046169478506   118.40404228   181.92782025
 H     14  13  12     2.047315609065   118.26940382   179.17239410
 O      3   2   1     2.557045909342   116.55894041   181.22428126
 C      7   4   3     2.794670464065   120.34846390   182.48257961
 C     19   7   4     2.632287252985   118.53925584    65.50679534
 C     19   7   4     2.653139177750   122.69161575   242.34884036
 C     20  19   7     2.617888804558   120.97725894   176.95348644
 H     20  19   7     2.046464693696   118.97716566   357.94253788
 C     21  19   7     2.631794891496   119.84964809   183.72378111
 C     24  21  19     2.614242965199   120.68184657   359.11566068
 H     22  20  19     2.045552222146   119.59871920   180.00959458
 H     24  21  19     2.044195747249   119.02328131   180.43059359
 H     25  24  21     2.044942108701   119.95660499   180.79430637
 N      1   2   3     2.534724444736   120.95628137   180.19127954
 C     29   1   2     2.740280264419   124.80523977   359.65551234
 H     30  29   1     2.068254721619   109.20113954    58.01727233
 H     30  29   1     2.068584417139   109.21217309   302.07754443
 C     30  29   1     2.844910333322   110.72885713   180.07040629
 H     33  30  29     2.060148341617   111.28913665    60.31257068
 H     33  30  29     2.055726786757   110.22900355   179.95432669
 H     33  30  29     2.060117066857   111.31111061   299.63547660
 C     21  19   7     2.800088957599   120.11393704     5.73311694
 O     37  21  19     2.295699191047   124.25430788    30.48571263
 O     37  21  19     2.519745266907   111.79361861   210.11780157
 C     12  10   9     4.675388651415    92.28927469   180.78228633
 H     40  12  10     2.068169038959    93.47707553    52.28253534
 H     40  12  10     2.068875975135    94.75824547   305.55526044
 C     40  12  10     2.845264037803   137.16871586   178.01572149
 H     43  40  12     2.060200627380   111.30624208    61.35667554
 H     43  40  12     2.055742131527   110.23839763   181.01321223
 H     43  40  12     2.060094012392   111.29743476   300.69924346
 N     12  10   9     2.535309277731   121.05998610   180.62609246
 H     29   1   2     1.903804641782   118.23647812   180.41199276
 H     47  12  10     1.903747099298   118.19459535   180.36577271
 C     13  12  10     2.813901269654   119.56095217   179.71621474
 H     50  13  12     2.065301902354   111.75184747   299.60906470
 H     50  13  12     2.065675750216   111.54373453    58.89088164
 H     50  13  12     2.054948604743   111.07015228   179.15262173
 C      6   5   4     2.814296703374   121.60269953   180.30168989
 H     54   6   5     2.065593912010   111.71672710   240.54601433
 H     54   6   5     2.054234700126   110.97656473     0.78302764
 H     54   6   5     2.065579576603   111.71520425   121.13707030
 C     39  37  21     2.741326837733   116.71482366   178.93086392
 H     58  39  37     2.059370721807   108.70777395    41.26716716
 H     58  39  37     2.056182946974   104.02851824   156.89527894
 C     58  39  37     2.836791762692   110.81501264   277.37003222
 H     61  58  39     2.058730225070   109.61851084   184.12075858
 H     61  58  39     2.058908862893   110.90240526   303.22118309
 H     61  58  39     2.059608647030   111.60430208    64.55739244

---------------------
BASIS SET INFORMATION
---------------------
There are 4 groups of distinct atoms

 Group   1 Type C   : 11s6p2d1f contracted to 5s3p2d1f pattern {62111/411/11/1}
 Group   2 Type H   : 5s1p contracted to 3s1p pattern {311/1}
 Group   3 Type O   : 11s6p2d1f contracted to 5s3p2d1f pattern {62111/411/11/1}
 Group   4 Type N   : 11s6p2d1f contracted to 5s3p2d1f pattern {62111/411/11/1}

Atom   0C    basis set group =>   1
Atom   1C    basis set group =>   1
Atom   2C    basis set group =>   1
Atom   3C    basis set group =>   1
Atom   4C    basis set group =>   1
Atom   5C    basis set group =>   1
Atom   6C    basis set group =>   1
Atom   7C    basis set group =>   1
Atom   8C    basis set group =>   1
Atom   9C    basis set group =>   1
Atom  10H    basis set group =>   2
Atom  11C    basis set group =>   1
Atom  12C    basis set group =>   1
Atom  13C    basis set group =>   1
Atom  14H    basis set group =>   2
Atom  15H    basis set group =>   2
Atom  16H    basis set group =>   2
Atom  17O    basis set group =>   3
Atom  18C    basis set group =>   1
Atom  19C    basis set group =>   1
Atom  20C    basis set group =>   1
Atom  21C    basis set group =>   1
Atom  22H    basis set group =>   2
Atom  23C    basis set group =>   1
Atom  24C    basis set group =>   1
Atom  25H    basis set group =>   2
Atom  26H    basis set group =>   2
Atom  27H    basis set group =>   2
Atom  28N    basis set group =>   4
Atom  29C    basis set group =>   1
Atom  30H    basis set group =>   2
Atom  31H    basis set group =>   2
Atom  32C    basis set group =>   1
Atom  33H    basis set group =>   2
Atom  34H    basis set group =>   2
Atom  35H    basis set group =>   2
Atom  36C    basis set group =>   1
Atom  37O    basis set group =>   3
Atom  38O    basis set group =>   3
Atom  39C    basis set group =>   1
Atom  40H    basis set group =>   2
Atom  41H    basis set group =>   2
Atom  42C    basis set group =>   1
Atom  43H    basis set group =>   2
Atom  44H    basis set group =>   2
Atom  45H    basis set group =>   2
Atom  46N    basis set group =>   4
Atom  47H    basis set group =>   2
Atom  48H    basis set group =>   2
Atom  49C    basis set group =>   1
Atom  50H    basis set group =>   2
Atom  51H    basis set group =>   2
Atom  52H    basis set group =>   2
Atom  53C    basis set group =>   1
Atom  54H    basis set group =>   2
Atom  55H    basis set group =>   2
Atom  56H    basis set group =>   2
Atom  57C    basis set group =>   1
Atom  58H    basis set group =>   2
Atom  59H    basis set group =>   2
Atom  60C    basis set group =>   1
Atom  61H    basis set group =>   2
Atom  62H    basis set group =>   2
Atom  63H    basis set group =>   2
---------------------------------
AUXILIARY/J BASIS SET INFORMATION
---------------------------------
There are 4 groups of distinct atoms

 Group   1 Type C   : 12s5p4d2f1g contracted to 6s4p3d1f1g pattern {711111/2111/211/2/1}
 Group   2 Type H   : 5s2p1d contracted to 3s1p1d pattern {311/2/1}
 Group   3 Type O   : 12s5p4d2f1g contracted to 6s4p3d1f1g pattern {711111/2111/211/2/1}
 Group   4 Type N   : 12s5p4d2f1g contracted to 6s4p3d1f1g pattern {711111/2111/211/2/1}

Atom   0C    basis set group =>   1
Atom   1C    basis set group =>   1
Atom   2C    basis set group =>   1
Atom   3C    basis set group =>   1
Atom   4C    basis set group =>   1
Atom   5C    basis set group =>   1
Atom   6C    basis set group =>   1
Atom   7C    basis set group =>   1
Atom   8C    basis set group =>   1
Atom   9C    basis set group =>   1
Atom  10H    basis set group =>   2
Atom  11C    basis set group =>   1
Atom  12C    basis set group =>   1
Atom  13C    basis set group =>   1
Atom  14H    basis set group =>   2
Atom  15H    basis set group =>   2
Atom  16H    basis set group =>   2
Atom  17O    basis set group =>   3
Atom  18C    basis set group =>   1
Atom  19C    basis set group =>   1
Atom  20C    basis set group =>   1
Atom  21C    basis set group =>   1
Atom  22H    basis set group =>   2
Atom  23C    basis set group =>   1
Atom  24C    basis set group =>   1
Atom  25H    basis set group =>   2
Atom  26H    basis set group =>   2
Atom  27H    basis set group =>   2
Atom  28N    basis set group =>   4
Atom  29C    basis set group =>   1
Atom  30H    basis set group =>   2
Atom  31H    basis set group =>   2
Atom  32C    basis set group =>   1
Atom  33H    basis set group =>   2
Atom  34H    basis set group =>   2
Atom  35H    basis set group =>   2
Atom  36C    basis set group =>   1
Atom  37O    basis set group =>   3
Atom  38O    basis set group =>   3
Atom  39C    basis set group =>   1
Atom  40H    basis set group =>   2
Atom  41H    basis set group =>   2
Atom  42C    basis set group =>   1
Atom  43H    basis set group =>   2
Atom  44H    basis set group =>   2
Atom  45H    basis set group =>   2
Atom  46N    basis set group =>   4
Atom  47H    basis set group =>   2
Atom  48H    basis set group =>   2
Atom  49C    basis set group =>   1
Atom  50H    basis set group =>   2
Atom  51H    basis set group =>   2
Atom  52H    basis set group =>   2
Atom  53C    basis set group =>   1
Atom  54H    basis set group =>   2
Atom  55H    basis set group =>   2
Atom  56H    basis set group =>   2
Atom  57C    basis set group =>   1
Atom  58H    basis set group =>   2
Atom  59H    basis set group =>   2
Atom  60C    basis set group =>   1
Atom  61H    basis set group =>   2
Atom  62H    basis set group =>   2
Atom  63H    basis set group =>   2
---------------------------------
AUXILIARY/C BASIS SET INFORMATION
---------------------------------
There are 4 groups of distinct atoms

 Group   1 Type C   : 8s6p5d3f1g contracted to 8s6p4d3f1g pattern {11111111/111111/2111/111/1}
 Group   2 Type H   : 4s3p2d contracted to 4s2p1d pattern {1111/21/2}
 Group   3 Type O   : 8s6p5d3f1g contracted to 8s6p4d3f1g pattern {11111111/111111/2111/111/1}
 Group   4 Type N   : 8s6p5d3f1g contracted to 8s6p4d3f1g pattern {11111111/111111/2111/111/1}

Atom   0C    basis set group =>   1
Atom   1C    basis set group =>   1
Atom   2C    basis set group =>   1
Atom   3C    basis set group =>   1
Atom   4C    basis set group =>   1
Atom   5C    basis set group =>   1
Atom   6C    basis set group =>   1
Atom   7C    basis set group =>   1
Atom   8C    basis set group =>   1
Atom   9C    basis set group =>   1
Atom  10H    basis set group =>   2
Atom  11C    basis set group =>   1
Atom  12C    basis set group =>   1
Atom  13C    basis set group =>   1
Atom  14H    basis set group =>   2
Atom  15H    basis set group =>   2
Atom  16H    basis set group =>   2
Atom  17O    basis set group =>   3
Atom  18C    basis set group =>   1
Atom  19C    basis set group =>   1
Atom  20C    basis set group =>   1
Atom  21C    basis set group =>   1
Atom  22H    basis set group =>   2
Atom  23C    basis set group =>   1
Atom  24C    basis set group =>   1
Atom  25H    basis set group =>   2
Atom  26H    basis set group =>   2
Atom  27H    basis set group =>   2
Atom  28N    basis set group =>   4
Atom  29C    basis set group =>   1
Atom  30H    basis set group =>   2
Atom  31H    basis set group =>   2
Atom  32C    basis set group =>   1
Atom  33H    basis set group =>   2
Atom  34H    basis set group =>   2
Atom  35H    basis set group =>   2
Atom  36C    basis set group =>   1
Atom  37O    basis set group =>   3
Atom  38O    basis set group =>   3
Atom  39C    basis set group =>   1
Atom  40H    basis set group =>   2
Atom  41H    basis set group =>   2
Atom  42C    basis set group =>   1
Atom  43H    basis set group =>   2
Atom  44H    basis set group =>   2
Atom  45H    basis set group =>   2
Atom  46N    basis set group =>   4
Atom  47H    basis set group =>   2
Atom  48H    basis set group =>   2
Atom  49C    basis set group =>   1
Atom  50H    basis set group =>   2
Atom  51H    basis set group =>   2
Atom  52H    basis set group =>   2
Atom  53C    basis set group =>   1
Atom  54H    basis set group =>   2
Atom  55H    basis set group =>   2
Atom  56H    basis set group =>   2
Atom  57C    basis set group =>   1
Atom  58H    basis set group =>   2
Atom  59H    basis set group =>   2
Atom  60C    basis set group =>   1
Atom  61H    basis set group =>   2
Atom  62H    basis set group =>   2
Atom  63H    basis set group =>   2


           ************************************************************
           *        Program running with 6 parallel MPI-processes     *
           *              working on a common directory               *
           ************************************************************
------------------------------------------------------------------------------
                           ORCA GTO INTEGRAL CALCULATION
                           -- RI-GTO INTEGRALS CHOSEN --
------------------------------------------------------------------------------
------------------------------------------------------------------------------
                   ___                                                        
                  /   \      - P O W E R E D   B Y -                         
                 /     \                                                     
                 |  |  |   _    _      __       _____    __    __             
                 |  |  |  | |  | |    /  \     |  _  \  |  |  /  |          
                  \  \/   | |  | |   /    \    | | | |  |  | /  /          
                 / \  \   | |__| |  /  /\  \   | |_| |  |  |/  /          
                |  |  |   |  __  | /  /__\  \  |    /   |      \           
                |  |  |   | |  | | |   __   |  |    \   |  |\   \          
                \     /   | |  | | |  |  |  |  | |\  \  |  | \   \       
                 \___/    |_|  |_| |__|  |__|  |_| \__\ |__|  \__/        
                                                                              
                      - O R C A' S   B I G   F R I E N D -                    
                                      &                                       
                       - I N T E G R A L  F E E D E R -                       
                                                                              
 v1 FN, 2020, v2 2021                                                         
------------------------------------------------------------------------------


Reading SHARK input file Rh_6G_M06L_def2TZVP_coords.SHARKINP.tmp ... ok
----------------------
SHARK INTEGRAL PACKAGE
----------------------

Number of atoms                             ...     64
Number of basis functions                   ...   1209
Number of shells                            ...    487
Maximum angular momentum                    ...      3
Integral batch strategy                     ... SHARK/LIBINT Hybrid
RI-J (if used) integral strategy            ... SPLIT-RIJ (Revised 2003 algorithm where possible)
Printlevel                                  ...      1
Contraction scheme used                     ... SEGMENTED contraction
Coulomb Range Separation                    ... NOT USED
Exchange Range Separation                   ... NOT USED
Finite Nucleus Model                        ... NOT USED
Auxiliary Coulomb fitting basis             ... AVAILABLE
   # of basis functions in Aux-J            ...   1958
   # of shells in Aux-J                     ...    650
   Maximum angular momentum in Aux-J        ...      4
Auxiliary J/K fitting basis                 ... NOT available
Auxiliary Correlation fitting basis         ... AVAILABLE
   # of basis functions in Aux-C            ...   2973
   # of shells in Aux-C                     ...    943
   Maximum angular momentum in Aux-C        ...      4
Auxiliary 'external' fitting basis          ... NOT available
Integral threshold                          ...     2.500000e-11
Primitive cut-off                           ...     2.500000e-12
Primitive pair pre-selection threshold      ...     2.500000e-12

Calculating pre-screening integrals         ... done (  0.3 sec) Dimension = 487
Organizing shell pair data                  ... done (  3.7 sec)
Shell pair information
Total number of shell pairs                 ...    118828
Shell pairs after pre-screening             ...     68904
Total number of primitive shell pairs       ...    359100
Primitive shell pairs kept                  ...    133644
          la=0 lb=0:  18448 shell pairs
          la=1 lb=0:  20378 shell pairs
          la=1 lb=1:   5633 shell pairs
          la=2 lb=0:   9509 shell pairs
          la=2 lb=1:   5317 shell pairs
          la=2 lb=2:   1284 shell pairs
          la=3 lb=0:   4376 shell pairs
          la=3 lb=1:   2509 shell pairs
          la=3 lb=2:   1167 shell pairs
          la=3 lb=3:    283 shell pairs

Calculating one electron integrals          ... done (  0.3 sec)
Calculating RI/J V-Matrix + Cholesky decomp.... done (  0.5 sec)
Calculating RI/C V-Matrix + Cholesky decomp.... done (  1.1 sec)
Calculating Nuclear repulsion               ... done (  0.0 sec) ENN=   3382.771470529053 Eh

SHARK setup successfully completed in   7.3 seconds

Maximum memory used throughout the entire GTOINT-calculation: 121.1 MB


           ************************************************************
           *        Program running with 6 parallel MPI-processes     *
           *              working on a common directory               *
           ************************************************************
-------------------------------------------------------------------------------
                                 ORCA SCF
-------------------------------------------------------------------------------

------------
SCF SETTINGS
------------
Hamiltonian:
 Density Functional     Method          .... DFT(GTOs)
 Exchange Functional    Exchange        .... PBE
   PBE kappa parameter   XKappa         ....  0.804000
   PBE mue parameter    XMuePBE         ....  0.219520
 Correlation Functional Correlation     .... PBE
   PBE beta parameter  CBetaPBE         ....  0.066725
 LDA part of GGA corr.  LDAOpt          .... PW91-LDA
 Gradients option       PostSCFGGA      .... off
 Hybrid DFT is turned on
   Fraction HF Exchange ScalHFX         ....  0.690000
   Scaling of DF-GGA-X  ScalDFX         ....  0.310000
   Scaling of DF-GGA-C  ScalDFC         ....  0.670000
   Scaling of DF-LDA-C  ScalLDAC        ....  0.670000
   Perturbative correction              ....  0.330000
   Density functional embedding theory  .... OFF
 RI-approximation to the Coulomb term is turned on
   Number of AuxJ basis functions       .... 1958
   RIJ-COSX (HFX calculated with COS-X)).... on


General Settings:
 Integral files         IntName         .... Rh_6G_M06L_def2TZVP_coords
 Hartree-Fock type      HFTyp           .... RHF
 Total Charge           Charge          ....    1
 Multiplicity           Mult            ....    1
 Number of Electrons    NEL             ....  236
 Basis Dimension        Dim             .... 1209
 Nuclear Repulsion      ENuc            ....   3382.7714705291 Eh

Convergence Acceleration:
 DIIS                   CNVDIIS         .... on
   Start iteration      DIISMaxIt       ....    12
   Startup error        DIISStart       ....  0.200000
   # of expansion vecs  DIISMaxEq       ....     5
   Bias factor          DIISBfac        ....   1.050
   Max. coefficient     DIISMaxC        ....  10.000
 Trust-Rad. Augm. Hess. CNVTRAH         .... auto
   Auto Start mean grad. ratio tolernc. ....  1.125000
   Auto Start start iteration           ....    20
   Auto Start num. interpolation iter.  ....    10
   Max. Number of Micro iterations      ....    16
   Max. Number of Macro iterations      .... Maxiter - #DIIS iter
   Number of Davidson start vectors     ....     2
   Converg. threshold I  (grad. norm)   ....   1.000e-05
   Converg. threshold II (energy diff.) ....   1.000e-08
   Grad. Scal. Fac. for Micro threshold ....   0.100
   Minimum threshold for Micro iter.    ....   0.010
   NR start threshold (gradient norm)   ....   0.001
   Initial trust radius                 ....   0.400
   Minimum AH scaling param. (alpha)    ....   1.000
   Maximum AH scaling param. (alpha)    .... 1000.000
   Orbital update algorithm             .... Taylor
   White noise on init. David. guess    .... on
   Maximum white noise                  ....   0.010
   Quad. conv. algorithm                .... NR
 SOSCF                  CNVSOSCF        .... on
   Start iteration      SOSCFMaxIt      ....   150
   Startup grad/error   SOSCFStart      ....  0.003300
 Level Shifting         CNVShift        .... on
   Level shift para.    LevelShift      ....    0.2500
   Turn off err/grad.   ShiftErr        ....    0.0010
 Zerner damping         CNVZerner       .... off
 Static damping         CNVDamp         .... on
   Fraction old density DampFac         ....    0.7000
   Max. Damping (<1)    DampMax         ....    0.9800
   Min. Damping (>=0)   DampMin         ....    0.0000
   Turn off err/grad.   DampErr         ....    0.1000
 Fernandez-Rico         CNVRico         .... off

SCF Procedure:
 Maximum # iterations   MaxIter         ....   125
 SCF integral mode      SCFMode         .... Direct
   Integral package                     .... SHARK and LIBINT hybrid scheme
 Reset frequency        DirectResetFreq ....    20
 Integral Threshold     Thresh          ....  2.500e-11 Eh
 Primitive CutOff       TCut            ....  2.500e-12 Eh

Convergence Tolerance:
 Convergence Check Mode ConvCheckMode   .... Total+1el-Energy
 Convergence forced     ConvForced      .... 1
 Energy Change          TolE            ....  1.000e-08 Eh
 1-El. energy change                    ....  1.000e-05 Eh
 Orbital Gradient       TolG            ....  1.000e-05
 Orbital Rotation angle TolX            ....  1.000e-05
 DIIS Error             TolErr          ....  5.000e-07


Diagonalization of the overlap matrix:
Smallest eigenvalue                        ... 3.700e-06
Time for diagonalization                   ...    0.676 sec
Threshold for overlap eigenvalues          ... 1.000e-08
Number of eigenvalues below threshold      ... 0
Time for construction of square roots      ...    0.507 sec
Total time needed                          ...    1.194 sec

Time for model grid setup =    1.429 sec

------------------------------
INITIAL GUESS: MODEL POTENTIAL
------------------------------
Loading Hartree-Fock densities                     ... done
Calculating cut-offs                               ... done
Initializing the effective Hamiltonian             ... done
Setting up the integral package (SHARK)            ... done
Starting the Coulomb interaction                   ... done (   3.6 sec)
Reading the grid                                   ... done
Mapping shells                                     ... done
Starting the XC term evaluation                    ... done (   1.8 sec)
  promolecular density results
     # of electrons  =    236.991559797
     EX              =   -190.167949852
     EC              =     -2.988922817
     EX+EC           =   -193.156872669
Transforming the Hamiltonian                       ... done (   0.4 sec)
Diagonalizing the Hamiltonian                      ... done (   0.6 sec)
Back transforming the eigenvectors                 ... done (   0.2 sec)
Now organizing SCF variables                       ... done
                      ------------------
                      INITIAL GUESS DONE (   8.1 sec)
                      ------------------
-------------------
DFT GRID GENERATION
-------------------

General Integration Accuracy     IntAcc      ... 4.388
Radial Grid Type                 RadialGrid  ... OptM3 with GC (2021)
Angular Grid (max. ang.)         AngularGrid ... 4 (Lebedev-302)
Angular grid pruning method      GridPruning ... 4 (adaptive)
Weight generation scheme         WeightScheme... Becke
Basis function cutoff            BFCut       ... 1.0000e-11
Integration weight cutoff        WCut        ... 1.0000e-14
Angular grids for H and He will be reduced by one unit
Partially contracted basis set               ... off
Rotationally invariant grid construction     ... off

Total number of grid points                  ...   294506
Total number of batches                      ...     4634
Average number of points per batch           ...       63
Average number of grid points per atom       ...     4602
Time for grid setup =    5.142 sec

--------------------
COSX GRID GENERATION
--------------------

GRIDX 1
-------
General Integration Accuracy     IntAcc      ... 3.816
Radial Grid Type                 RadialGrid  ... OptM3 with GC (2021)
Angular Grid (max. ang.)         AngularGrid ... 1 (Lebedev-50)
Angular grid pruning method      GridPruning ... 4 (adaptive)
Weight generation scheme         WeightScheme... Becke
Basis function cutoff            BFCut       ... 1.0000e-11
Integration weight cutoff        WCut        ... 1.0000e-14
Angular grids for H and He will be reduced by one unit
Partially contracted basis set               ... on
Rotationally invariant grid construction     ... off

Total number of grid points                  ...    37406
Total number of batches                      ...      614
Average number of points per batch           ...       60
Average number of grid points per atom       ...      584
UseSFitting                                  ... on

GRIDX 2
-------
General Integration Accuracy     IntAcc      ... 4.020
Radial Grid Type                 RadialGrid  ... OptM3 with GC (2021)
Angular Grid (max. ang.)         AngularGrid ... 2 (Lebedev-110)
Angular grid pruning method      GridPruning ... 4 (adaptive)
Weight generation scheme         WeightScheme... Becke
Basis function cutoff            BFCut       ... 1.0000e-11
Integration weight cutoff        WCut        ... 1.0000e-14
Angular grids for H and He will be reduced by one unit
Partially contracted basis set               ... on
Rotationally invariant grid construction     ... off

Total number of grid points                  ...    79748
Total number of batches                      ...     1280
Average number of points per batch           ...       62
Average number of grid points per atom       ...     1246
UseSFitting                                  ... on

GRIDX 3
-------
General Integration Accuracy     IntAcc      ... 4.338
Radial Grid Type                 RadialGrid  ... OptM3 with GC (2021)
Angular Grid (max. ang.)         AngularGrid ... 3 (Lebedev-194)
Angular grid pruning method      GridPruning ... 4 (adaptive)
Weight generation scheme         WeightScheme... Becke
Basis function cutoff            BFCut       ... 1.0000e-11
Integration weight cutoff        WCut        ... 1.0000e-14
Angular grids for H and He will be reduced by one unit
Partially contracted basis set               ... on
Rotationally invariant grid construction     ... off

Total number of grid points                  ...   173748
Total number of batches                      ...     2750
Average number of points per batch           ...       63
Average number of grid points per atom       ...     2715
UseSFitting                                  ... on

Time for X-Grid setup             =   13.761 sec


--------------------
CPCM SOLVATION MODEL
--------------------
CPCM parameters:
  Epsilon                                         ...      32.6130
  Refrac                                          ...       1.3288
  Rsolv                                           ...       1.3000
  Surface type                                    ... GAUSSIAN VDW
  Epsilon function type                           ...         CPCM
Solvent:                                     ... METHANOL
SMD-CDS solvent descriptors:
  Soln                                       ...    1.3288
  Soln25                                     ...    1.3265
  Sola                                       ...    0.4300
  Solb                                       ...    0.4700
  Solg                                       ...   31.7700
  Solc                                       ...    0.0000
  Solh                                       ...    0.0000
Radii:
 Radius for C  used is    3.4960 Bohr (=   1.8500 Ang.)
 Radius for H  used is    2.2677 Bohr (=   1.2000 Ang.)
 Radius for O  used is    2.8724 Bohr (=   1.5200 Ang.)
 Radius for N  used is    3.5716 Bohr (=   1.8900 Ang.)
Calculating surface                               ...        done! (  0.0s)
GEPOL surface points                              ...         3700
GEPOL Volume                                      ...    3077.6002
GEPOL Surface-area                                ...    1734.3976
Calculating surface distance matrix               ...        done! (  0.1s)
Performing Cholesky decomposition & store         ...        done! (  1.3s)
Overall time for CPCM initialization              ...                 1.4s
--------------
SCF ITERATIONS
--------------
ITER       Energy         Delta-E        Max-DP      RMS-DP      [F,P]     Damp
               ***  Starting incremental Fock matrix formation  ***
  0  -1416.5095478250   0.000000000000 0.04318705  0.00049678  0.2508219 0.7000
  1  -1416.8125159654  -0.302968140409 0.02803297  0.00039845  0.1328241 0.7000
                               ***Turning on DIIS***
  2  -1416.9834015317  -0.170885566300 0.07021771  0.00089782  0.0626540 0.0000
  3  -1417.2916145321  -0.308213000454 0.04962413  0.00029350  0.0536183 0.0000
  4  -1417.3203633455  -0.028748813382 0.01963293  0.00012028  0.0107511 0.0000
  5  -1417.3215317030  -0.001168357494 0.00578215  0.00005166  0.0080226 0.0000
                      *** Initiating the SOSCF procedure ***
                           *** Shutting down DIIS ***
                      *** Re-Reading the Fockian *** 
                      *** Removing any level shift *** 
ITER      Energy       Delta-E        Grad      Rot      Max-DP    RMS-DP
  6  -1417.32184310  -0.0003113927  0.001752  0.001752  0.003706  0.000025
               *** Restarting incremental Fock matrix formation ***
  7  -1417.32195484  -0.0001117481  0.000973  0.003580  0.025360  0.000197
  8  -1417.32199443  -0.0000395837  0.000430  0.003591  0.010024  0.000082
  9  -1417.32200401  -0.0000095782  0.000201  0.000535  0.009232  0.000072
 10  -1417.32200689  -0.0000028859  0.000033  0.000154  0.000635  0.000006
 11  -1417.32200706  -0.0000001683  0.000016  0.000046  0.000515  0.000004
 12  -1417.32200710  -0.0000000400  0.000009  0.000053  0.000408  0.000002
                  ***Gradient check signals convergence***
              ***Rediagonalizing the Fockian in SOSCF/NRSCF***

               *****************************************************
               *                     SUCCESS                       *
               *           SCF CONVERGED AFTER  13 CYCLES          *
               *****************************************************

Old exchange energy                            =   -134.158471550 Eh
New exchange energy                            =   -134.158438552 Eh
Exchange energy change after final integration =      0.000032999 Eh
Total energy after final integration           =  -1417.321974129 Eh
Final COS-X integration done in                =   203.827 sec

SMD CDS free energy correction energy :                -1.04305     Kcal/mol
Total Energy after SMD CDS correction =             -1417.323636340 Eh

----------------
TOTAL SCF ENERGY
----------------

Total Energy       :        -1417.32363634 Eh          -38567.33687 eV

Components:
Nuclear Repulsion  :         3382.77147053 Eh           92049.89144 eV
Electronic Energy  :        -4800.09510687 Eh         -130617.22831 eV
One Electron Energy:        -8630.48908615 Eh         -234847.54745 eV
Two Electron Energy:         3830.39397928 Eh          104230.31914 eV
Max COSX asymmetry :            0.00000621 Eh               0.00017 eV
CPCM Dielectric    :           -0.08248725 Eh              -2.24459 eV
SMD CDS (Gcds)     :           -0.00166221 Eh              -0.04523 eV

Virial components:
Potential Energy   :        -2828.89229766 Eh          -76978.07291 eV
Kinetic Energy     :         1411.56866132 Eh           38410.73604 eV
Virial Ratio       :            2.00407701


DFT components:
N(Alpha)           :      117.999952792296 electrons
N(Beta)            :      117.999952792296 electrons
N(Total)           :      235.999905584591 electrons
E(X)               :      -60.006188843154 Eh       
E(C)               :       -5.319096182585 Eh       
E(XC)              :      -65.325285025740 Eh       
DFET-embed. en.    :        0.000000000000 Eh       
CPCM Solvation Model Properties:
Surface-charge          :           -1.07276807
Charge-correction       :            0.00617705 Eh               0.16809 eV
Free-energy (cav+disp)  :           -0.00166221 Eh              -0.04523 eV

---------------
SCF CONVERGENCE
---------------

  Last Energy change         ...   -2.8280e-08  Tolerance :   1.0000e-08
  Last MAX-Density change    ...    2.3315e-15  Tolerance :   1.0000e-07
  Last RMS-Density change    ...    1.1750e-17  Tolerance :   5.0000e-09
  Last Orbital Gradient      ...    2.2128e-06  Tolerance :   1.0000e-05
  Last Orbital Rotation      ...    1.3753e-05  Tolerance :   1.0000e-05

             **** THE GBW FILE WAS UPDATED (Rh_6G_M06L_def2TZVP_coords.gbw) ****
             **** DENSITY Rh_6G_M06L_def2TZVP_coords.scfp WAS UPDATED ****
             **** ENERGY FILE WAS UPDATED (Rh_6G_M06L_def2TZVP_coords.en.tmp) ****
             **** THE GBW FILE WAS UPDATED (Rh_6G_M06L_def2TZVP_coords.gbw) ****
             **** DENSITY Rh_6G_M06L_def2TZVP_coords.scfp WAS UPDATED ****
----------------
ORBITAL ENERGIES
----------------

  NO   OCC          E(Eh)            E(eV) 
   0   2.0000     -20.098671      -546.9126 
   1   2.0000     -20.061243      -545.8942 
   2   2.0000     -20.007413      -544.4294 
   3   2.0000     -15.112152      -411.2226 
   4   2.0000     -15.111279      -411.1988 
   5   2.0000     -10.980108      -298.7839 
   6   2.0000     -10.927159      -297.3431 
   7   2.0000     -10.926522      -297.3258 
   8   2.0000     -10.902064      -296.6603 
   9   2.0000     -10.901046      -296.6325 
  10   2.0000     -10.900072      -296.6060 
  11   2.0000     -10.871492      -295.8283 
  12   2.0000     -10.865661      -295.6697 
  13   2.0000     -10.857996      -295.4611 
  14   2.0000     -10.849882      -295.2403 
  15   2.0000     -10.849471      -295.2291 
  16   2.0000     -10.849379      -295.2266 
  17   2.0000     -10.849178      -295.2211 
  18   2.0000     -10.843841      -295.0759 
  19   2.0000     -10.843707      -295.0723 
  20   2.0000     -10.842625      -295.0428 
  21   2.0000     -10.841982      -295.0253 
  22   2.0000     -10.841805      -295.0205 
  23   2.0000     -10.840601      -294.9878 
  24   2.0000     -10.838841      -294.9398 
  25   2.0000     -10.835084      -294.8376 
  26   2.0000     -10.824025      -294.5367 
  27   2.0000     -10.823939      -294.5343 
  28   2.0000     -10.810432      -294.1668 
  29   2.0000     -10.810300      -294.1632 
  30   2.0000     -10.802578      -293.9531 
  31   2.0000     -10.802480      -293.9504 
  32   2.0000     -10.800846      -293.9060 
  33   2.0000      -1.366258       -37.1778 
  34   2.0000      -1.352236       -36.7962 
  35   2.0000      -1.255739       -34.1704 
  36   2.0000      -1.171810       -31.8866 
  37   2.0000      -1.171040       -31.8656 
  38   2.0000      -1.103064       -30.0159 
  39   2.0000      -1.075350       -29.2617 
  40   2.0000      -1.069909       -29.1137 
  41   2.0000      -1.018709       -27.7205 
  42   2.0000      -0.994681       -27.0666 
  43   2.0000      -0.976905       -26.5829 
  44   2.0000      -0.960322       -26.1317 
  45   2.0000      -0.958418       -26.0799 
  46   2.0000      -0.951192       -25.8832 
  47   2.0000      -0.937094       -25.4996 
  48   2.0000      -0.928712       -25.2715 
  49   2.0000      -0.911645       -24.8071 
  50   2.0000      -0.878613       -23.9083 
  51   2.0000      -0.864842       -23.5335 
  52   2.0000      -0.842177       -22.9168 
  53   2.0000      -0.821464       -22.3532 
  54   2.0000      -0.807285       -21.9673 
  55   2.0000      -0.798850       -21.7378 
  56   2.0000      -0.793766       -21.5995 
  57   2.0000      -0.782697       -21.2983 
  58   2.0000      -0.770391       -20.9634 
  59   2.0000      -0.747654       -20.3447 
  60   2.0000      -0.741211       -20.1694 
  61   2.0000      -0.720187       -19.5973 
  62   2.0000      -0.715587       -19.4721 
  63   2.0000      -0.704652       -19.1746 
  64   2.0000      -0.679116       -18.4797 
  65   2.0000      -0.663411       -18.0523 
  66   2.0000      -0.654794       -17.8179 
  67   2.0000      -0.637917       -17.3586 
  68   2.0000      -0.627828       -17.0841 
  69   2.0000      -0.624816       -17.0021 
  70   2.0000      -0.618116       -16.8198 
  71   2.0000      -0.606731       -16.5100 
  72   2.0000      -0.605087       -16.4652 
  73   2.0000      -0.593923       -16.1615 
  74   2.0000      -0.591208       -16.0876 
  75   2.0000      -0.589983       -16.0543 
  76   2.0000      -0.588797       -16.0220 
  77   2.0000      -0.587382       -15.9835 
  78   2.0000      -0.585414       -15.9299 
  79   2.0000      -0.566608       -15.4182 
  80   2.0000      -0.559909       -15.2359 
  81   2.0000      -0.555445       -15.1144 
  82   2.0000      -0.551323       -15.0023 
  83   2.0000      -0.550024       -14.9669 
  84   2.0000      -0.545156       -14.8344 
  85   2.0000      -0.538488       -14.6530 
  86   2.0000      -0.534769       -14.5518 
  87   2.0000      -0.524027       -14.2595 
  88   2.0000      -0.517286       -14.0761 
  89   2.0000      -0.502051       -13.6615 
  90   2.0000      -0.499488       -13.5917 
  91   2.0000      -0.492020       -13.3885 
  92   2.0000      -0.491888       -13.3850 
  93   2.0000      -0.490518       -13.3477 
  94   2.0000      -0.487607       -13.2685 
  95   2.0000      -0.485932       -13.2229 
  96   2.0000      -0.483857       -13.1664 
  97   2.0000      -0.479074       -13.0363 
  98   2.0000      -0.475583       -12.9413 
  99   2.0000      -0.472263       -12.8509 
 100   2.0000      -0.470159       -12.7937 
 101   2.0000      -0.467827       -12.7302 
 102   2.0000      -0.465996       -12.6804 
 103   2.0000      -0.461550       -12.5594 
 104   2.0000      -0.458657       -12.4807 
 105   2.0000      -0.455382       -12.3916 
 106   2.0000      -0.443935       -12.0801 
 107   2.0000      -0.440944       -11.9987 
 108   2.0000      -0.428907       -11.6711 
 109   2.0000      -0.418818       -11.3966 
 110   2.0000      -0.409236       -11.1359 
 111   2.0000      -0.400982       -10.9113 
 112   2.0000      -0.348023        -9.4702 
 113   2.0000      -0.343965        -9.3598 
 114   2.0000      -0.339680        -9.2432 
 115   2.0000      -0.318739        -8.6733 
 116   2.0000      -0.309466        -8.4210 
 117   2.0000      -0.261664        -7.1202 
 118   0.0000      -0.046492        -1.2651 
 119   0.0000       0.008907         0.2424 
 120   0.0000       0.037747         1.0272 
 121   0.0000       0.048618         1.3230 
 122   0.0000       0.066119         1.7992 
 123   0.0000       0.070165         1.9093 
 124   0.0000       0.092033         2.5044 
 125   0.0000       0.097122         2.6428 
 126   0.0000       0.109022         2.9666 
 127   0.0000       0.115940         3.1549 
 128   0.0000       0.117630         3.2009 
 129   0.0000       0.120960         3.2915 
 130   0.0000       0.125799         3.4232 
 131   0.0000       0.129064         3.5120 
 132   0.0000       0.131422         3.5762 
 133   0.0000       0.133110         3.6221 
 134   0.0000       0.138521         3.7694 
 135   0.0000       0.143730         3.9111 
 136   0.0000       0.147067         4.0019 
 137   0.0000       0.152646         4.1537 
 138   0.0000       0.159146         4.3306 
 139   0.0000       0.164663         4.4807 
 140   0.0000       0.167905         4.5689 
 141   0.0000       0.169498         4.6123 
 142   0.0000       0.169957         4.6248 
 143   0.0000       0.171658         4.6710 
 144   0.0000       0.178982         4.8704 
 145   0.0000       0.180533         4.9125 
 146   0.0000       0.182294         4.9605 
 147   0.0000       0.186208         5.0670 
 148   0.0000       0.188129         5.1192 
 149   0.0000       0.188790         5.1372 
 150   0.0000       0.190245         5.1768 
 151   0.0000       0.191999         5.2246 
 152   0.0000       0.193513         5.2658 
 153   0.0000       0.196573         5.3490 
 154   0.0000       0.199409         5.4262 
 155   0.0000       0.203992         5.5509 
 156   0.0000       0.210490         5.7277 
 157   0.0000       0.215216         5.8563 
 158   0.0000       0.217048         5.9062 
 159   0.0000       0.218503         5.9458 
 160   0.0000       0.220040         5.9876 
 161   0.0000       0.223128         6.0716 
 162   0.0000       0.224705         6.1145 
 163   0.0000       0.226070         6.1517 
 164   0.0000       0.232275         6.3205 
 165   0.0000       0.235054         6.3961 
 166   0.0000       0.247118         6.7244 
 167   0.0000       0.249601         6.7920 
 168   0.0000       0.254863         6.9352 
 169   0.0000       0.257377         7.0036 
 170   0.0000       0.263074         7.1586 
 171   0.0000       0.267108         7.2684 
 172   0.0000       0.271836         7.3970 
 173   0.0000       0.273933         7.4541 
 174   0.0000       0.275792         7.5047 
 175   0.0000       0.278604         7.5812 
 176   0.0000       0.279563         7.6073 
 177   0.0000       0.284870         7.7517 
 178   0.0000       0.287057         7.8112 
 179   0.0000       0.289401         7.8750 
 180   0.0000       0.294784         8.0215 
 181   0.0000       0.298053         8.1104 
 182   0.0000       0.302308         8.2262 
 183   0.0000       0.303784         8.2664 
 184   0.0000       0.305530         8.3139 
 185   0.0000       0.308728         8.4009 
 186   0.0000       0.312283         8.4976 
 187   0.0000       0.316483         8.6119 
 188   0.0000       0.317289         8.6339 
 189   0.0000       0.321171         8.7395 
 190   0.0000       0.326870         8.8946 
 191   0.0000       0.329747         8.9729 
 192   0.0000       0.332294         9.0422 
 193   0.0000       0.337207         9.1759 
 194   0.0000       0.340375         9.2621 
 195   0.0000       0.341172         9.2838 
 196   0.0000       0.345106         9.3908 
 197   0.0000       0.349313         9.5053 
 198   0.0000       0.353183         9.6106 
 199   0.0000       0.354434         9.6446 
 200   0.0000       0.357920         9.7395 
 201   0.0000       0.360732         9.8160 
 202   0.0000       0.363557         9.8929 
 203   0.0000       0.367970        10.0130 
 204   0.0000       0.369395        10.0518 
 205   0.0000       0.374611        10.1937 
 206   0.0000       0.376798        10.2532 
 207   0.0000       0.383946        10.4477 
 208   0.0000       0.386235        10.5100 
 209   0.0000       0.391179        10.6445 
 210   0.0000       0.392879        10.6908 
 211   0.0000       0.397170        10.8075 
 212   0.0000       0.402968        10.9653 
 213   0.0000       0.408949        11.1281 
 214   0.0000       0.410188        11.1618 
 215   0.0000       0.414202        11.2710 
 216   0.0000       0.415177        11.2975 
 217   0.0000       0.420036        11.4297 
 218   0.0000       0.424529        11.5520 
 219   0.0000       0.431006        11.7283 
 220   0.0000       0.433556        11.7977 
 221   0.0000       0.436761        11.8849 
 222   0.0000       0.443263        12.0618 
 223   0.0000       0.444776        12.1030 
 224   0.0000       0.450257        12.2521 
 225   0.0000       0.451004        12.2724 
 226   0.0000       0.454326        12.3628 
 227   0.0000       0.457757        12.4562 
 228   0.0000       0.460245        12.5239 
 229   0.0000       0.464991        12.6530 
 230   0.0000       0.468861        12.7584 
 231   0.0000       0.472144        12.8477 
 232   0.0000       0.475868        12.9490 
 233   0.0000       0.476191        12.9578 
 234   0.0000       0.479061        13.0359 
 235   0.0000       0.482337        13.1251 
 236   0.0000       0.485405        13.2085 
 237   0.0000       0.490101        13.3363 
 238   0.0000       0.492431        13.3997 
 239   0.0000       0.493692        13.4340 
 240   0.0000       0.495334        13.4787 
 241   0.0000       0.498955        13.5772 
 242   0.0000       0.502943        13.6858 
 243   0.0000       0.504618        13.7314 
 244   0.0000       0.507808        13.8182 
 245   0.0000       0.510682        13.8964 
 246   0.0000       0.515024        14.0145 
 247   0.0000       0.516253        14.0480 
 248   0.0000       0.519115        14.1258 
 249   0.0000       0.522204        14.2099 
 250   0.0000       0.525052        14.2874 
 251   0.0000       0.527746        14.3607 
 252   0.0000       0.531441        14.4612 
 253   0.0000       0.535392        14.5688 
 254   0.0000       0.536057        14.5868 
 255   0.0000       0.538689        14.6585 
 256   0.0000       0.541068        14.7232 
 257   0.0000       0.546265        14.8646 
 258   0.0000       0.547668        14.9028 
 259   0.0000       0.548657        14.9297 
 260   0.0000       0.550656        14.9841 
 261   0.0000       0.553141        15.0517 
 262   0.0000       0.554487        15.0884 
 263   0.0000       0.560049        15.2397 
 264   0.0000       0.562170        15.2974 
 265   0.0000       0.564988        15.3741 
 266   0.0000       0.567281        15.4365 
 267   0.0000       0.570430        15.5222 
 268   0.0000       0.572573        15.5805 
 269   0.0000       0.575141        15.6504 
 270   0.0000       0.576033        15.6746 
 271   0.0000       0.578431        15.7399 
 272   0.0000       0.582190        15.8422 
 273   0.0000       0.584965        15.9177 
 274   0.0000       0.588703        16.0194 
 275   0.0000       0.596222        16.2240 
 276   0.0000       0.598793        16.2940 
 277   0.0000       0.601006        16.3542 
 278   0.0000       0.602087        16.3836 
 279   0.0000       0.603335        16.4176 
 280   0.0000       0.608171        16.5492 
 281   0.0000       0.613197        16.6859 
 282   0.0000       0.615183        16.7400 
 283   0.0000       0.619490        16.8572 
 284   0.0000       0.621941        16.9239 
 285   0.0000       0.625301        17.0153 
 286   0.0000       0.626200        17.0398 
 287   0.0000       0.629437        17.1279 
 288   0.0000       0.632911        17.2224 
 289   0.0000       0.634550        17.2670 
 290   0.0000       0.638275        17.3683 
 291   0.0000       0.640924        17.4404 
 292   0.0000       0.644691        17.5429 
 293   0.0000       0.646684        17.5972 
 294   0.0000       0.650595        17.7036 
 295   0.0000       0.655703        17.8426 
 296   0.0000       0.657938        17.9034 
 297   0.0000       0.664286        18.0761 
 298   0.0000       0.673076        18.3153 
 299   0.0000       0.677228        18.4283 
 300   0.0000       0.678711        18.4687 
 301   0.0000       0.689847        18.7717 
 302   0.0000       0.695648        18.9295 
 303   0.0000       0.698977        19.0201 
 304   0.0000       0.705229        19.1902 
 305   0.0000       0.709731        19.3128 
 306   0.0000       0.714353        19.4385 
 307   0.0000       0.716746        19.5036 
 308   0.0000       0.721796        19.6411 
 309   0.0000       0.722397        19.6574 
 310   0.0000       0.726821        19.7778 
 311   0.0000       0.735275        20.0078 
 312   0.0000       0.741149        20.1677 
 313   0.0000       0.742773        20.2119 
 314   0.0000       0.744221        20.2513 
 315   0.0000       0.745963        20.2987 
 316   0.0000       0.752074        20.4650 
 317   0.0000       0.759703        20.6726 
 318   0.0000       0.760737        20.7007 
 319   0.0000       0.762211        20.7408 
 320   0.0000       0.766659        20.8619 
 321   0.0000       0.768828        20.9209 
 322   0.0000       0.773536        21.0490 
 323   0.0000       0.777799        21.1650 
 324   0.0000       0.782578        21.2950 
 325   0.0000       0.785797        21.3826 
 326   0.0000       0.792151        21.5555 
 327   0.0000       0.795223        21.6391 
 328   0.0000       0.797678        21.7059 
 329   0.0000       0.800427        21.7807 
 330   0.0000       0.806637        21.9497 
 331   0.0000       0.809807        22.0360 
 332   0.0000       0.812055        22.0971 
 333   0.0000       0.814129        22.1536 
 334   0.0000       0.817673        22.2500 
 335   0.0000       0.823280        22.4026 
 336   0.0000       0.826545        22.4914 
 337   0.0000       0.828684        22.5496 
 338   0.0000       0.831539        22.6273 
 339   0.0000       0.837811        22.7980 
 340   0.0000       0.839951        22.8562 
 341   0.0000       0.844704        22.9856 
 342   0.0000       0.848792        23.0968 
 343   0.0000       0.851189        23.1620 
 344   0.0000       0.860396        23.4126 
 345   0.0000       0.862812        23.4783 
 346   0.0000       0.865028        23.5386 
 347   0.0000       0.869593        23.6628 
 348   0.0000       0.883290        24.0355 
 349   0.0000       0.884904        24.0795 
 350   0.0000       0.886093        24.1118 
 351   0.0000       0.891537        24.2599 
 352   0.0000       0.896510        24.3953 
 353   0.0000       0.906933        24.6789 
 354   0.0000       0.909572        24.7507 
 355   0.0000       0.911182        24.7945 
 356   0.0000       0.922587        25.1049 
 357   0.0000       0.923421        25.1276 
 358   0.0000       0.928985        25.2790 
 359   0.0000       0.934694        25.4343 
 360   0.0000       0.935818        25.4649 
 361   0.0000       0.942343        25.6425 
 362   0.0000       0.945712        25.7341 
 363   0.0000       0.946445        25.7541 
 364   0.0000       0.948721        25.8160 
 365   0.0000       0.953839        25.9553 
 366   0.0000       0.958538        26.0832 
 367   0.0000       0.960856        26.1462 
 368   0.0000       0.968823        26.3630 
 369   0.0000       0.972017        26.4499 
 370   0.0000       0.974927        26.5291 
 371   0.0000       0.977661        26.6035 
 372   0.0000       0.980111        26.6702 
 373   0.0000       0.985510        26.8171 
 374   0.0000       0.992055        26.9952 
 375   0.0000       0.998561        27.1722 
 376   0.0000       1.002394        27.2765 
 377   0.0000       1.008663        27.4471 
 378   0.0000       1.013278        27.5727 
 379   0.0000       1.015359        27.6293 
 380   0.0000       1.018801        27.7230 
 381   0.0000       1.024795        27.8861 
 382   0.0000       1.029371        28.0106 
 383   0.0000       1.033427        28.1210 
 384   0.0000       1.042398        28.3651 
 385   0.0000       1.047161        28.4947 
 386   0.0000       1.051512        28.6131 
 387   0.0000       1.057699        28.7815 
 388   0.0000       1.059007        28.8170 
 389   0.0000       1.061173        28.8760 
 390   0.0000       1.063369        28.9357 
 391   0.0000       1.069168        29.0935 
 392   0.0000       1.072968        29.1969 
 393   0.0000       1.078743        29.3541 
 394   0.0000       1.085798        29.5461 
 395   0.0000       1.093646        29.7596 
 396   0.0000       1.099469        29.9181 
 397   0.0000       1.103598        30.0304 
 398   0.0000       1.106271        30.1032 
 399   0.0000       1.111640        30.2493 
 400   0.0000       1.122902        30.5557 
 401   0.0000       1.133555        30.8456 
 402   0.0000       1.137866        30.9629 
 403   0.0000       1.142026        31.0761 
 404   0.0000       1.150148        31.2971 
 405   0.0000       1.153840        31.3976 
 406   0.0000       1.161371        31.6025 
 407   0.0000       1.166592        31.7446 
 408   0.0000       1.167906        31.7803 
 409   0.0000       1.171240        31.8711 
 410   0.0000       1.175641        31.9908 
 411   0.0000       1.181072        32.1386 
 412   0.0000       1.183794        32.2127 
 413   0.0000       1.190541        32.3963 
 414   0.0000       1.195625        32.5346 
 415   0.0000       1.200036        32.6546 
 416   0.0000       1.205729        32.8096 
[...]
   116a -> 123a  :     0.067963 
   117a -> 120a  :     0.025291 
   117a -> 121a  :     0.029169 
   117a -> 123a  :     0.040736 
   117a -> 129a  :     0.015105 
   117a -> 130a  :     0.021025 
   117a -> 131a  :     0.017429 
   117a -> 132a  :     0.036697 
   117a -> 133a  :     0.038976 

STATE 18:  E=   0.230043 au      6.260 eV    50488.6 cm**-1 <S**2> =   0.000000
   106a -> 118a  :     0.012899 
   107a -> 118a  :     0.038250 
   112a -> 120a  :     0.023897 
   113a -> 119a  :     0.025386 
   113a -> 120a  :     0.102903 
   113a -> 121a  :     0.015267 
   114a -> 119a  :     0.090584 
   114a -> 120a  :     0.226924 
   114a -> 121a  :     0.033804 
   114a -> 123a  :     0.010547 
   115a -> 119a  :     0.025847 
   115a -> 120a  :     0.149281 
   115a -> 121a  :     0.069838 
   116a -> 119a  :     0.012563 
   116a -> 121a  :     0.011487 
   117a -> 123a  :     0.014241 

STATE 19:  E=   0.225741 au      6.143 eV    49544.5 cm**-1 <S**2> =   0.000000
   107a -> 118a  :     0.020441 
   112a -> 121a  :     0.025097 
   112a -> 122a  :     0.011034 
   113a -> 120a  :     0.145623 
   113a -> 121a  :     0.029259 
   114a -> 119a  :     0.059757 
   114a -> 120a  :     0.238273 
   114a -> 121a  :     0.028566 
   114a -> 123a  :     0.011401 
   115a -> 119a  :     0.165767 
   115a -> 120a  :     0.057498 
   116a -> 123a  :     0.041001 
   117a -> 122a  :     0.026507 

STATE 20:  E=   0.216786 au      5.899 eV    47579.0 cm**-1 <S**2> =   0.000000
    89a -> 118a  :     0.012640 
    90a -> 118a  :     0.019060 
    97a -> 118a  :     0.014045 
   106a -> 118a  :     0.144721 
   107a -> 118a  :     0.395341 
   108a -> 118a  :     0.030596 
   109a -> 118a  :     0.012846 
   110a -> 118a  :     0.138141 
   113a -> 120a  :     0.027111 
   114a -> 119a  :     0.014733 
   115a -> 120a  :     0.033609 

STATE 21:  E=   0.225936 au      6.148 eV    49587.2 cm**-1 <S**2> =   0.000000
   111a -> 118a  :     0.087058 
   112a -> 119a  :     0.026412 
   112a -> 120a  :     0.035909 
   112a -> 123a  :     0.017546 
   113a -> 119a  :     0.021034 
   113a -> 121a  :     0.015747 
   115a -> 119a  :     0.069618 
   115a -> 120a  :     0.011215 
   115a -> 121a  :     0.067704 
   115a -> 123a  :     0.012393 
   115a -> 124a  :     0.013391 
   116a -> 119a  :     0.061947 
   116a -> 120a  :     0.012811 
   116a -> 121a  :     0.114170 
   116a -> 122a  :     0.057552 
   116a -> 123a  :     0.084874 
   117a -> 124a  :     0.120925 
   117a -> 131a  :     0.011863 

STATE 22:  E=   0.239687 au      6.522 eV    52605.1 cm**-1 <S**2> =   0.000000
   111a -> 118a  :     0.015362 
   112a -> 120a  :     0.010556 
   115a -> 121a  :     0.027438 
   115a -> 124a  :     0.049497 
   115a -> 125a  :     0.016156 
   116a -> 121a  :     0.028809 
   116a -> 122a  :     0.022427 
   116a -> 123a  :     0.021006 
   117a -> 124a  :     0.538104 
   117a -> 125a  :     0.019454 
   117a -> 126a  :     0.013593 
   117a -> 128a  :     0.012876 
   117a -> 130a  :     0.042730 
   117a -> 131a  :     0.014906 
   117a -> 137a  :     0.012354 

STATE 23:  E=   0.221558 au      6.029 eV    48626.4 cm**-1 <S**2> =   0.000000
   103a -> 118a  :     0.018354 
   104a -> 118a  :     0.011756 
   106a -> 118a  :     0.021311 
   107a -> 118a  :     0.035643 
   109a -> 118a  :     0.018647 
   110a -> 118a  :     0.208030 
   111a -> 118a  :     0.091776 
   112a -> 119a  :     0.042083 
   112a -> 122a  :     0.041902 
   113a -> 119a  :     0.022401 
   114a -> 122a  :     0.018456 
   115a -> 123a  :     0.010928 
   116a -> 119a  :     0.103077 
   116a -> 120a  :     0.011596 
   116a -> 122a  :     0.133664 
   116a -> 123a  :     0.069097 

STATE 24:  E=   0.214491 au      5.837 eV    47075.4 cm**-1 <S**2> =   0.000000
   104a -> 118a  :     0.013833 
   106a -> 118a  :     0.011964 
   107a -> 118a  :     0.016230 
   108a -> 119a  :     0.011694 
   110a -> 118a  :     0.014573 
   111a -> 118a  :     0.225134 
   112a -> 121a  :     0.012769 
   113a -> 119a  :     0.221835 
   114a -> 119a  :     0.011208 
   114a -> 120a  :     0.052755 
   115a -> 119a  :     0.134462 
   115a -> 121a  :     0.029434 
   116a -> 119a  :     0.039845 
   116a -> 121a  :     0.024880 
   117a -> 122a  :     0.017751 
   117a -> 123a  :     0.025947 

STATE 25:  E=   0.235997 au      6.422 eV    51795.5 cm**-1 <S**2> =   0.000000
   111a -> 118a  :     0.079038 
   113a -> 119a  :     0.013432 
   115a -> 120a  :     0.034528 
   115a -> 121a  :     0.068169 
   115a -> 124a  :     0.018678 
   115a -> 125a  :     0.055352 
   116a -> 119a  :     0.011653 
   116a -> 120a  :     0.019189 
   116a -> 122a  :     0.022805 
   117a -> 123a  :     0.012881 
   117a -> 125a  :     0.423124 
   117a -> 131a  :     0.020387 
   117a -> 134a  :     0.023319 

STATE 26:  E=   0.219119 au      5.963 eV    48091.1 cm**-1 <S**2> =   0.000000
   103a -> 118a  :     0.015719 
   106a -> 118a  :     0.031016 
   107a -> 118a  :     0.036841 
   109a -> 118a  :     0.010728 
   110a -> 118a  :     0.377887 
   112a -> 119a  :     0.028837 
   112a -> 120a  :     0.023220 
   112a -> 121a  :     0.013429 
   112a -> 122a  :     0.014001 
   113a -> 119a  :     0.030627 
   113a -> 120a  :     0.024693 
   114a -> 121a  :     0.019695 
   116a -> 119a  :     0.019742 
   116a -> 120a  :     0.022800 
   116a -> 121a  :     0.011380 
   116a -> 122a  :     0.048004 
   116a -> 123a  :     0.087839 
   117a -> 122a  :     0.021021 
   117a -> 125a  :     0.017671 

STATE 27:  E=   0.226893 au      6.174 eV    49797.4 cm**-1 <S**2> =   0.000000
   110a -> 118a  :     0.011036 
   111a -> 118a  :     0.091277 
   112a -> 119a  :     0.033469 
   112a -> 121a  :     0.028429 
   113a -> 119a  :     0.038636 
   113a -> 120a  :     0.010836 
   115a -> 119a  :     0.040987 
   115a -> 120a  :     0.079408 
   115a -> 121a  :     0.092235 
   115a -> 122a  :     0.011137 
   115a -> 124a  :     0.018205 
   115a -> 125a  :     0.023201 
   116a -> 119a  :     0.041873 
   116a -> 120a  :     0.024746 
   116a -> 122a  :     0.041364 
   117a -> 123a  :     0.012375 
   117a -> 124a  :     0.024214 
   117a -> 125a  :     0.206631 
   117a -> 133a  :     0.011342 
   117a -> 134a  :     0.015637 

STATE 28:  E=   0.237117 au      6.452 eV    52041.1 cm**-1 <S**2> =   0.000000
   110a -> 118a  :     0.020208 
   112a -> 119a  :     0.088174 
   112a -> 120a  :     0.093753 
   112a -> 121a  :     0.169801 
   112a -> 122a  :     0.020683 
   113a -> 120a  :     0.058546 
   113a -> 123a  :     0.011303 
   114a -> 120a  :     0.021624 
   114a -> 121a  :     0.053360 
   115a -> 120a  :     0.025462 
   115a -> 123a  :     0.010018 
   116a -> 119a  :     0.019241 
   116a -> 120a  :     0.088351 
   116a -> 121a  :     0.042883 
   116a -> 122a  :     0.085687 
   116a -> 132a  :     0.014683 
   116a -> 133a  :     0.018612 
   117a -> 122a  :     0.016406 

STATE 29:  E=   0.233208 au      6.346 eV    51183.2 cm**-1 <S**2> =   0.000000
   109a -> 118a  :     0.025314 
   111a -> 118a  :     0.010029 
   112a -> 119a  :     0.472780 
   112a -> 120a  :     0.048400 
   112a -> 121a  :     0.056031 
   114a -> 119a  :     0.062863 
   114a -> 121a  :     0.014126 
   115a -> 120a  :     0.027275 
   115a -> 122a  :     0.011075 
   115a -> 123a  :     0.017387 
   116a -> 119a  :     0.010427 
   116a -> 120a  :     0.024443 
   116a -> 121a  :     0.020144 
   116a -> 122a  :     0.061772 

STATE 30:  E=   0.236581 au      6.438 eV    51923.6 cm**-1 <S**2> =   0.000000
   103a -> 118a  :     0.010986 
   109a -> 118a  :     0.022209 
   110a -> 120a  :     0.011530 
   112a -> 119a  :     0.040723 
   112a -> 120a  :     0.018548 
   112a -> 121a  :     0.038833 
   112a -> 122a  :     0.019487 
   113a -> 119a  :     0.013332 
   113a -> 120a  :     0.125527 
   113a -> 121a  :     0.024372 
   114a -> 121a  :     0.031929 
   115a -> 119a  :     0.013671 
   115a -> 120a  :     0.170777 
   115a -> 121a  :     0.046357 
   115a -> 122a  :     0.019213 
   116a -> 120a  :     0.057063 
   116a -> 121a  :     0.022050 
   116a -> 123a  :     0.117128 
   117a -> 123a  :     0.012412 


-------------------------
TD-DFT-EXCITATION SPECTRA
-------------------------

Center of mass = ( -0.0095, -0.0739, -0.0208)
Calculating the Dipole integrals                  ... done
Transforming integrals                            ... done
Calculating the Linear Momentum integrals         ... done
Transforming integrals                            ... done
Calculating angular momentum integrals            ... done
Transforming integrals                            ... done

-----------------------------------------------------------------------------
         ABSORPTION SPECTRUM VIA TRANSITION ELECTRIC DIPOLE MOMENTS
-----------------------------------------------------------------------------
State   Energy    Wavelength  fosc         T2        TX        TY        TZ  
        (cm-1)      (nm)                 (au**2)    (au)      (au)      (au) 
-----------------------------------------------------------------------------
   1   19688.0    507.9   0.929319632  15.53957   3.84054   0.79252  -0.40219
   2   26542.1    376.8   0.003822231   0.04741   0.05089  -0.21108  -0.01627
   3   31764.8    314.8   0.467551440   4.84573  -0.63753   2.09070   0.26126
   4   33851.1    295.4   0.002116217   0.02058   0.08079  -0.11804   0.01100
   5   34650.0    288.6   0.083240251   0.79087   0.61635  -0.60643  -0.20791
   6   36032.1    277.5   0.019871759   0.18156   0.27926  -0.20921   0.24456
   7   36740.9    272.2   0.048550076   0.43503  -0.06181   0.52488   0.39459
   8   37344.6    267.8   0.251553944   2.21758  -0.05340  -1.47241  -0.21620
   9   41365.2    241.7   0.077729999   0.61863  -0.35726  -0.08328  -0.69574
  10   39791.0    251.3   0.003880030   0.03210   0.16522   0.04634  -0.05153
  11   42104.7    237.5   0.053944934   0.42179   0.13296   0.51165   0.37726
  12   40367.6    247.7   0.000758358   0.00618  -0.04214  -0.00768  -0.06596
  13   42901.9    233.1   0.046663936   0.35808  -0.35325  -0.46776  -0.12038
  14   44947.1    222.5   1.225104155   8.97320  -2.87172  -0.80873   0.26904
  15   43119.5    231.9   0.032352393   0.24701  -0.21135  -0.38109  -0.23898
  16   44956.4    222.4   0.305303902   2.23572  -1.22209   0.83554   0.20997
  17   47343.5    211.2   0.056674448   0.39410  -0.20491   0.55635   0.20637
  18   50488.6    198.1   0.419575919   2.73585  -0.76013  -0.20702  -1.45437
  19   49544.5    201.8   0.551290067   3.66320  -0.34835   1.85988   0.28755
  20   47579.0    210.2   0.044060396   0.30487  -0.03750   0.39664   0.38228
  21   49587.2    201.7   0.085051450   0.56466   0.25497   0.65947   0.25445
  22   52605.1    190.1   0.020942222   0.13106  -0.21030  -0.28367  -0.07979
  23   48626.4    205.6   0.027016431   0.18291  -0.07888  -0.33201  -0.25779
  24   47075.4    212.4   0.132638096   0.92758   0.83236  -0.21174   0.43580
  25   51795.5    193.1   0.005039891   0.03203  -0.13111  -0.11129  -0.04957
  26   48091.1    207.9   0.008845465   0.06055  -0.06360   0.23670  -0.02191
  27   49797.4    200.8   0.025674347   0.16973   0.03996   0.30617  -0.27275
  28   52041.1    192.2   0.044924770   0.28419   0.10418   0.49940   0.15472
  29   51183.2    195.4   0.015873416   0.10210   0.29576   0.03099  -0.11690
  30   51923.6    192.6   0.035921754   0.22776  -0.30275   0.21248  -0.30157

-----------------------------------------------------------------------------
         ABSORPTION SPECTRUM VIA TRANSITION VELOCITY DIPOLE MOMENTS
-----------------------------------------------------------------------------
State   Energy    Wavelength   fosc        P2         PX        PY        PZ  
        (cm-1)      (nm)                 (au**2)     (au)      (au)      (au) 
-----------------------------------------------------------------------------
   1   19688.0    507.9   1.491445942   0.20069  -0.43642  -0.09018   0.04576
   2   26542.1    376.8   0.006272007   0.00114  -0.00781   0.03271   0.00267
   3   31764.8    314.8   0.650702681   0.14127   0.10858  -0.35706  -0.04450
   4   33851.1    295.4   0.002932000   0.00068  -0.01538   0.02091  -0.00219
   5   34650.0    288.6   0.121263049   0.02872  -0.11684   0.11611   0.03980
   6   36032.1    277.5   0.027555125   0.00679  -0.05416   0.04016  -0.04732
   7   36740.9    272.2   0.065507472   0.01645   0.01178  -0.10191  -0.07698
   8   37344.6    267.8   0.347261017   0.08863   0.00989   0.29440   0.04313
   9   41365.2    241.7   0.096866154   0.02739   0.07566   0.01666   0.14623
  10   39791.0    251.3   0.005214966   0.00142  -0.03471  -0.00976   0.01089
  11   42104.7    237.5   0.067684433   0.01948  -0.02750  -0.11006  -0.08129
  12   40367.6    247.7   0.000988720   0.00027   0.00922   0.00080   0.01368
  13   42901.9    233.1   0.061549569   0.01805   0.07888   0.10562   0.02586
  14   44947.1    222.5   1.550262138   0.47623   0.66162   0.18617  -0.06186
  15   43119.5    231.9   0.046596375   0.01373   0.04941   0.09029   0.05602
  16   44956.4    222.4   0.414462851   0.12735   0.29126  -0.19985  -0.05072
  17   47343.5    211.2   0.072937076   0.02360   0.05147  -0.13561  -0.05061
  18   50488.6    198.1   0.485255400   0.16744   0.18841   0.05097   0.35965
  19   49544.5    201.8   0.678285285   0.22968   0.08735  -0.46570  -0.07188
  20   47579.0    210.2   0.059484411   0.01934   0.00943  -0.09994  -0.09626
  21   49587.2    201.7   0.108212284   0.03667  -0.06371  -0.16941  -0.06256
  22   52605.1    190.1   0.024329759   0.00875   0.05431   0.07170   0.02562
  23   48626.4    205.6   0.036932334   0.01227   0.02132   0.08567   0.06694
  24   47075.4    212.4   0.200130750   0.06439  -0.21888   0.05592  -0.11556
  25   51795.5    193.1   0.005951037   0.00211   0.03422   0.03059   0.00039
  26   48091.1    207.9   0.012597518   0.00414   0.01685  -0.06146   0.00892
  27   49797.4    200.8   0.030785770   0.01048  -0.01213  -0.08027   0.06235
  28   52041.1    192.2   0.059636904   0.02121  -0.02892  -0.13644  -0.04193
  29   51183.2    195.4   0.021949918   0.00768  -0.08107  -0.00763   0.03236
  30   51923.6    192.6   0.049743409   0.01765   0.08423  -0.05938   0.08385

-------------------------------------------------------------------
                             CD SPECTRUM
-------------------------------------------------------------------
State  Energy     Wavelength     R         MX        MY        MZ   
       (cm-1)       (nm)     (1e40*cgs)   (au)      (au)      (au)  
-------------------------------------------------------------------
   1   19688.0    507.9     44.31839   0.11267  -0.28155   0.28732
   2   26542.1    376.8     -1.20749  -0.02174   0.00384   0.03956
   3   31764.8    314.8    -93.08299   0.27885   0.03049  -0.31929
   4   33851.1    295.4     -9.40618  -0.09825   0.05763  -0.47373
   5   34650.0    288.6      4.84021  -0.09501  -0.05654  -0.16612
   6   36032.1    277.5    -12.89365  -0.21613  -0.04592   0.09568
   7   36740.9    272.2     37.48859  -0.23219  -0.00656   0.17388
   8   37344.6    267.8    -13.53862  -0.06891  -0.00405   0.17745
   9   41365.2    241.7     29.83105   0.61774   0.12465  -0.42307
  10   39791.0    251.3      4.41114   0.02695   0.00980  -0.08634
  11   42104.7    237.5     29.24398  -0.16572   0.04554   0.16106
  12   40367.6    247.7     -0.95405   0.00344   0.05587   0.02198
  13   42901.9    233.1    -37.91670  -0.10399   0.22718   0.09051
  14   44947.1    222.5    -11.29975  -0.05352   0.30180   0.24682
  15   43119.5    231.9     -7.49012   0.17429   0.08745  -0.22711
  16   44956.4    222.4     38.38142   0.09800   0.17243   0.27194
  17   47343.5    211.2     20.66337  -0.06629   0.06434  -0.02688
  18   50488.6    198.1    281.70839   1.27040   0.42625  -1.13550
  19   49544.5    201.8    -41.68486   0.36059   0.08413  -0.41482
  20   47579.0    210.2     27.19216  -0.12668  -0.09878   0.24094
  21   49587.2    201.7    -84.31706  -0.12598   0.13320  -0.92185
  22   52605.1    190.1    -68.42841   0.28096   0.18117   0.43449
  23   48626.4    205.6     72.38110  -0.00467   0.02368  -0.62463
  24   47075.4    212.4    -230.95487  -0.56939  -0.17966  -0.12388
  25   51795.5    193.1     19.14430  -0.33320   0.00139   0.05902
  26   48091.1    207.9    -19.62475   0.03640  -0.16570   0.00414
  27   49797.4    200.8     11.53141   0.02363   0.03363  -0.04846
  28   52041.1    192.2      6.94129   0.01457   0.00557   0.06737
  29   51183.2    195.4      8.72140   0.10546   0.07670   0.12890
  30   51923.6    192.6    -38.68606   0.28036   0.04871   0.02496

Total run time:   108934.417 sec

           *** ORCA-CIS/TD-DFT FINISHED WITHOUT ERROR ***

Maximum memory used throughout the entire CIS-calculation: 6658.1 MB

-----------------------
CIS/TD-DFT TOTAL ENERGY
-----------------------

    E(SCF)  =  -1417.323636340 Eh
    DE(CIS) =      0.089705162 Eh (Root  1)
    ----------------------------- ---------
    E(tot)  =  -1417.233931178 Eh


-------------------------   --------------------
FINAL SINGLE POINT ENERGY     -1417.233931178131
-------------------------   --------------------


                            ***************************************
                            *     ORCA property calculations      *
                            ***************************************


  WARNING: The energy has been calculated at the MP2 level but the densities
           used in the property calculations are still SCF densities
           MP2 response densities have not been calculated 
           use %mp2 Density relaxed end
           or  %mp2 Density unrelaxed end

                                    ---------------------
                                    Active property flags
                                    ---------------------
   (+) Dipole Moment


------------------------------------------------------------------------------
                       ORCA ELECTRIC PROPERTIES CALCULATION
------------------------------------------------------------------------------

Dipole Moment Calculation                       ... on
Quadrupole Moment Calculation                   ... off
Polarizability Calculation                      ... off
GBWName                                         ... Rh_6G_M06L_def2TZVP_coords.gbw
Electron density                                ... Rh_6G_M06L_def2TZVP_coords.scfp
The origin for moment calculation is the CENTER OF MASS  = (-0.009534, -0.073874 -0.020831)

-------------
DIPOLE MOMENT
-------------
                                X             Y             Z
Electronic contribution:     -2.63313     -16.51832      -5.94266
Nuclear contribution   :      2.25953      17.50823       4.93684
                        -----------------------------------------
Total Dipole Moment    :     -0.37359       0.98991      -1.00581
                        -----------------------------------------
Magnitude (a.u.)       :      1.45985
Magnitude (Debye)      :      3.71064



--------------------
Rotational spectrum 
--------------------
 
Rotational constants in cm-1:     0.004857     0.003173     0.002222 
Rotational constants in MHz :   145.624084    95.129369    66.608773 

 Dipole components along the rotational axes: 
x,y,z [a.u.] :    -0.386043     0.988608    -1.002388 
x,y,z [Debye]:    -0.981243     2.512842    -2.547869 

 

Timings for individual modules:

Sum of individual times         ...   113405.787 sec (=1890.096 min)
GTO integral calculation        ...        7.945 sec (=   0.132 min)   0.0 %
SCF iterations                  ...     1470.881 sec (=  24.515 min)   1.3 %
MP2 module                      ...     2990.826 sec (=  49.847 min)   2.6 %
CIS module                      ...   108936.135 sec (=1815.602 min)  96.1 %
                             ****ORCA TERMINATED NORMALLY****
TOTAL RUN TIME: 1 days 7 hours 30 minutes 13 seconds 928 msec
