 Entering Gaussian System, Link 0=g09
 Input=/home/png4rjv/fotokatalizis/benchmark/OPCs/RESTART_2/POZ_4_M06L_def2TZVP.gjf
 Output=/home/png4rjv/fotokatalizis/benchmark/OPCs/RESTART_2/POZ_4_M06L_def2TZVP.log
 Initial command:
 /opt/nce/packages/global/g09/l1.exe "/home/png4rjv/fotokatalizis/benchmark/OPCs/RESTART_2/POZ_4_M06L_def2TZVP/Gau-64641.inp" -scrdir="/home/png4rjv/fotokatalizis/benchmark/OPCs/RESTART_2/POZ_4_M06L_def2TZVP/"
 Default is to use a total of  12 processors:
                               12 via shared-memory
                                1 via Linda
 Entering Link 1 = /opt/nce/packages/global/g09/l1.exe PID=     64642.
  
 Copyright (c) 1988,1990,1992,1993,1995,1998,2003,2009,2015,
            Gaussian, Inc.  All Rights Reserved.
  
 This is part of the Gaussian(R) 09 program.  It is based on
 the Gaussian(R) 03 system (copyright 2003, Gaussian, Inc.),
 the Gaussian(R) 98 system (copyright 1998, Gaussian, Inc.),
 the Gaussian(R) 94 system (copyright 1995, Gaussian, Inc.),
 the Gaussian 92(TM) system (copyright 1992, Gaussian, Inc.),
 the Gaussian 90(TM) system (copyright 1990, Gaussian, Inc.),
 the Gaussian 88(TM) system (copyright 1988, Gaussian, Inc.),
 the Gaussian 86(TM) system (copyright 1986, Carnegie Mellon
 University), and the Gaussian 82(TM) system (copyright 1983,
 Carnegie Mellon University). Gaussian is a federally registered
 trademark of Gaussian, Inc.
  
 This software contains proprietary and confidential information,
 including trade secrets, belonging to Gaussian, Inc.
  
 This software is provided under written license and may be
 used, copied, transmitted, or stored only in accord with that
 written license.
  
 The following legend is applicable only to US Government
 contracts under FAR:
  
                    RESTRICTED RIGHTS LEGEND
  
 Use, reproduction and disclosure by the US Government is
 subject to restrictions as set forth in subparagraphs (a)
 and (c) of the Commercial Computer Software - Restricted
 Rights clause in FAR 52.227-19.
  
 Gaussian, Inc.
 340 Quinnipiac St., Bldg. 40, Wallingford CT 06492
  
  
 ---------------------------------------------------------------
 Warning -- This program may not be used in any manner that
 competes with the business of Gaussian, Inc. or will provide
 assistance to any competitor of Gaussian, Inc.  The licensee
 of this program is prohibited from giving any competitor of
 Gaussian, Inc. access to this program.  By using this program,
 the user acknowledges that Gaussian, Inc. is engaged in the
 business of creating and licensing software in the field of
 computational chemistry and represents and warrants to the
 licensee that it is not a competitor of Gaussian, Inc. and that
 it will not use this program in any manner prohibited above.
 ---------------------------------------------------------------
  

 Cite this work as:
 Gaussian 09, Revision E.01,
 M. J. Frisch, G. W. Trucks, H. B. Schlegel, G. E. Scuseria, 
 M. A. Robb, J. R. Cheeseman, G. Scalmani, V. Barone, B. Mennucci, 
 G. A. Petersson, H. Nakatsuji, M. Caricato, X. Li, H. P. Hratchian, 
 A. F. Izmaylov, J. Bloino, G. Zheng, J. L. Sonnenberg, M. Hada, 
 M. Ehara, K. Toyota, R. Fukuda, J. Hasegawa, M. Ishida, T. Nakajima, 
 Y. Honda, O. Kitao, H. Nakai, T. Vreven, J. A. Montgomery, Jr., 
 J. E. Peralta, F. Ogliaro, M. Bearpark, J. J. Heyd, E. Brothers, 
 K. N. Kudin, V. N. Staroverov, T. Keith, R. Kobayashi, J. Normand, 
 K. Raghavachari, A. Rendell, J. C. Burant, S. S. Iyengar, J. Tomasi, 
 M. Cossi, N. Rega, J. M. Millam, M. Klene, J. E. Knox, J. B. Cross, 
 V. Bakken, C. Adamo, J. Jaramillo, R. Gomperts, R. E. Stratmann, 
 O. Yazyev, A. J. Austin, R. Cammi, C. Pomelli, J. W. Ochterski, 
 R. L. Martin, K. Morokuma, V. G. Zakrzewski, G. A. Voth, 
 P. Salvador, J. J. Dannenberg, S. Dapprich, A. D. Daniels, 
 O. Farkas, J. B. Foresman, J. V. Ortiz, J. Cioslowski, 
 and D. J. Fox, Gaussian, Inc., Wallingford CT, 2013.
 
 ******************************************
 Gaussian 09:  ES64L-G09RevE.01 30-Nov-2015
                23-Nov-2021 
 ******************************************
 %chk=cp.chk
 Default route:  MaxDisk=500GB
 ----------------------------------------------------------------------
 #p m06l/def2TZVP opt=tight freq=noraman nosymm int=ultrafine scrf=(SMD
 ,solvent=n,n-DiMethylAcetamide)
 ----------------------------------------------------------------------
 1/7=10,14=-1,18=20,19=15,26=4,38=1/1,3;
 2/9=110,12=2,15=1,17=6,18=5,40=1/2;
 3/5=44,7=101,11=2,16=1,25=1,30=1,70=32201,71=1,72=147,74=-53,75=-5/1,2,3;
 4//1;
 5/5=2,38=5,53=147/2;
 6/7=2,8=2,9=2,10=2,28=1/1;
 7/30=1/1,2,3,16;
 1/7=10,14=-1,18=20,19=15,26=4/3(2);
 2/9=110,15=1/2;
 99//99;
 2/9=110,15=1/2;
 3/5=44,7=101,11=2,16=1,25=1,30=1,70=32205,71=1,72=147,74=-53,75=-5/1,2,3;
 4/5=5,16=3,69=1/1;
 5/5=2,38=5,53=147/2;
 7/30=1/1,2,3,16;
 1/7=10,14=-1,18=20,19=15,26=4/3(-5);
 2/9=110,15=1/2;
 6/7=2,8=2,9=2,10=2,19=2,28=1/1;
 99/9=1/99;
 Leave Link    1 at Tue Nov 23 14:58:00 2021, MaxMem=           0 cpu:         0.9
 (Enter /opt/nce/packages/global/g09/l101.exe)
 -----
 Title
 -----
 Symbolic Z-matrix:
 Charge =  0 Multiplicity = 1
 C                     0.65303  -3.61761  -0.2401 
 C                    -0.08549  -2.44152  -0.12008 
 C                     0.54541  -1.2051    0.04995 
 C                     1.94209  -1.18034   0.09994 
 C                     2.67538  -2.3445   -0.04008 
 C                     2.03256  -3.57589  -0.2001 
 C                     1.94196   1.18054   0.10002 
 C                     0.54528   1.20516   0.05003 
 C                    -0.08574   2.44151  -0.11988 
 H                    -1.16481   2.4856   -0.14986 
 C                     0.65265   3.61768  -0.23982 
 C                     2.03219   3.57611  -0.19984 
 C                     2.67513   2.34478  -0.03992 
 H                    -1.16455  -2.48572  -0.15009 
 H                     3.75519  -2.27333   0.00992 
 H                     0.13329   4.5667   -0.35975 
 N                    -0.15843  -0.00001   0.19996 
 C                    -1.58391  -0.00008   0.11998 
 C                    -2.21262   0.00005  -1.12199 
 C                    -2.33259  -0.00028   1.28197 
 C                    -3.59743  -0.00003  -1.18068 
 C                    -3.71741  -0.00035   1.22069 
 H                    -1.81776  -0.00037   2.24124 
 C                    -4.35004  -0.00023  -0.01999 
 H                    -4.29661  -0.00051   2.12882 
 H                    -5.43224  -0.00028  -0.06998 
 H                     3.75495   2.27372   0.01007 
 H                     0.13376  -4.56669  -0.36012 
 O                     2.64104   0.00014   0.34993 
 H                     2.61382   4.48778  -0.28979 
 H                     2.61429  -4.4875   -0.29011 
 H                    -4.09665   0.00007  -2.1488 
 H                    -1.6178    0.0002   -2.02128 
 
 NAtoms=     33 NQM=       33 NQMF=       0 NMMI=      0 NMMIF=      0
                NMic=       0 NMicF=      0.
                    Isotopes and Nuclear Properties:
 (Nuclear quadrupole moments (NQMom) in fm**2, nuclear magnetic moments (NMagM)
  in nuclear magnetons)

  Atom         1           2           3           4           5           6           7           8           9          10
 IAtWgt=          12          12          12          12          12          12          12          12          12           1
 AtmWgt=  12.0000000  12.0000000  12.0000000  12.0000000  12.0000000  12.0000000  12.0000000  12.0000000  12.0000000   1.0078250
 NucSpn=           0           0           0           0           0           0           0           0           0           1
 AtZEff=   0.0000000   0.0000000   0.0000000   0.0000000   0.0000000   0.0000000   0.0000000   0.0000000   0.0000000   0.0000000
 NQMom=    0.0000000   0.0000000   0.0000000   0.0000000   0.0000000   0.0000000   0.0000000   0.0000000   0.0000000   0.0000000
 NMagM=    0.0000000   0.0000000   0.0000000   0.0000000   0.0000000   0.0000000   0.0000000   0.0000000   0.0000000   2.7928460
 AtZNuc=   6.0000000   6.0000000   6.0000000   6.0000000   6.0000000   6.0000000   6.0000000   6.0000000   6.0000000   1.0000000

  Atom        11          12          13          14          15          16          17          18          19          20
 IAtWgt=          12          12          12           1           1           1          14          12          12          12
 AtmWgt=  12.0000000  12.0000000  12.0000000   1.0078250   1.0078250   1.0078250  14.0030740  12.0000000  12.0000000  12.0000000
 NucSpn=           0           0           0           1           1           1           2           0           0           0
 AtZEff=   0.0000000   0.0000000   0.0000000   0.0000000   0.0000000   0.0000000   0.0000000   0.0000000   0.0000000   0.0000000
 NQMom=    0.0000000   0.0000000   0.0000000   0.0000000   0.0000000   0.0000000   2.0440000   0.0000000   0.0000000   0.0000000
 NMagM=    0.0000000   0.0000000   0.0000000   2.7928460   2.7928460   2.7928460   0.4037610   0.0000000   0.0000000   0.0000000
 AtZNuc=   6.0000000   6.0000000   6.0000000   1.0000000   1.0000000   1.0000000   7.0000000   6.0000000   6.0000000   6.0000000

  Atom        21          22          23          24          25          26          27          28          29          30
 IAtWgt=          12          12           1          12           1           1           1           1          16           1
 AtmWgt=  12.0000000  12.0000000   1.0078250  12.0000000   1.0078250   1.0078250   1.0078250   1.0078250  15.9949146   1.0078250
 NucSpn=           0           0           1           0           1           1           1           1           0           1
 AtZEff=   0.0000000   0.0000000   0.0000000   0.0000000   0.0000000   0.0000000   0.0000000   0.0000000   0.0000000   0.0000000
 NQMom=    0.0000000   0.0000000   0.0000000   0.0000000   0.0000000   0.0000000   0.0000000   0.0000000   0.0000000   0.0000000
 NMagM=    0.0000000   0.0000000   2.7928460   0.0000000   2.7928460   2.7928460   2.7928460   2.7928460   0.0000000   2.7928460
 AtZNuc=   6.0000000   6.0000000   1.0000000   6.0000000   1.0000000   1.0000000   1.0000000   1.0000000   8.0000000   1.0000000

  Atom        31          32          33
 IAtWgt=           1           1           1
 AtmWgt=   1.0078250   1.0078250   1.0078250
 NucSpn=           1           1           1
 AtZEff=   0.0000000   0.0000000   0.0000000
 NQMom=    0.0000000   0.0000000   0.0000000
 NMagM=    2.7928460   2.7928460   2.7928460
 AtZNuc=   1.0000000   1.0000000   1.0000000
 Leave Link  101 at Tue Nov 23 14:58:01 2021, MaxMem=  5242880000 cpu:         3.8
 (Enter /opt/nce/packages/global/g09/l103.exe)

 GradGradGradGradGradGradGradGradGradGradGradGradGradGradGradGradGradGrad
 Berny optimization.
 Initialization pass.
                           ----------------------------
                           !    Initial Parameters    !
                           ! (Angstroms and Degrees)  !
 --------------------------                            --------------------------
 ! Name  Definition              Value          Derivative Info.                !
 --------------------------------------------------------------------------------
 ! R1    R(1,2)                  1.3939         estimate D2E/DX2                !
 ! R2    R(1,6)                  1.3807         estimate D2E/DX2                !
 ! R3    R(1,28)                 1.0885         estimate D2E/DX2                !
 ! R4    R(2,3)                  1.3985         estimate D2E/DX2                !
 ! R5    R(2,14)                 1.0804         estimate D2E/DX2                !
 ! R6    R(3,4)                  1.3978         estimate D2E/DX2                !
 ! R7    R(3,17)                 1.4036         estimate D2E/DX2                !
 ! R8    R(4,5)                  1.383          estimate D2E/DX2                !
 ! R9    R(4,29)                 1.3945         estimate D2E/DX2                !
 ! R10   R(5,6)                  1.3983         estimate D2E/DX2                !
 ! R11   R(5,15)                 1.0833         estimate D2E/DX2                !
 ! R12   R(6,31)                 1.0851         estimate D2E/DX2                !
 ! R13   R(7,8)                  1.3978         estimate D2E/DX2                !
 ! R14   R(7,13)                 1.383          estimate D2E/DX2                !
 ! R15   R(7,29)                 1.3945         estimate D2E/DX2                !
 ! R16   R(8,9)                  1.3984         estimate D2E/DX2                !
 ! R17   R(8,17)                 1.4036         estimate D2E/DX2                !
 ! R18   R(9,10)                 1.0804         estimate D2E/DX2                !
 ! R19   R(9,11)                 1.3939         estimate D2E/DX2                !
 ! R20   R(11,12)                1.3807         estimate D2E/DX2                !
 ! R21   R(11,16)                1.0885         estimate D2E/DX2                !
 ! R22   R(12,13)                1.3983         estimate D2E/DX2                !
 ! R23   R(12,30)                1.0851         estimate D2E/DX2                !
 ! R24   R(13,27)                1.0833         estimate D2E/DX2                !
 ! R25   R(17,18)                1.4277         estimate D2E/DX2                !
 ! R26   R(18,19)                1.392          estimate D2E/DX2                !
 ! R27   R(18,20)                1.3823         estimate D2E/DX2                !
 ! R28   R(19,21)                1.3861         estimate D2E/DX2                !
 ! R29   R(19,33)                1.0782         estimate D2E/DX2                !
 ! R30   R(20,22)                1.3862         estimate D2E/DX2                !
 ! R31   R(20,23)                1.0887         estimate D2E/DX2                !
 ! R32   R(21,24)                1.3833         estimate D2E/DX2                !
 ! R33   R(21,32)                1.0893         estimate D2E/DX2                !
 ! R34   R(22,24)                1.3927         estimate D2E/DX2                !
 ! R35   R(22,25)                1.0771         estimate D2E/DX2                !
 ! R36   R(24,26)                1.0834         estimate D2E/DX2                !
 ! A1    A(2,1,6)              120.0902         estimate D2E/DX2                !
 ! A2    A(2,1,28)             119.4995         estimate D2E/DX2                !
 ! A3    A(6,1,28)             120.4096         estimate D2E/DX2                !
 ! A4    A(1,2,3)              121.1593         estimate D2E/DX2                !
 ! A5    A(1,2,14)             119.4893         estimate D2E/DX2                !
 ! A6    A(3,2,14)             119.3493         estimate D2E/DX2                !
 ! A7    A(2,3,4)              118.0856         estimate D2E/DX2                !
 ! A8    A(2,3,17)             123.0831         estimate D2E/DX2                !
 ! A9    A(4,3,17)             118.8171         estimate D2E/DX2                !
 ! A10   A(3,4,5)              120.7489         estimate D2E/DX2                !
 ! A11   A(3,4,29)             121.4828         estimate D2E/DX2                !
 ! A12   A(5,4,29)             117.7091         estimate D2E/DX2                !
 ! A13   A(4,5,6)              120.6072         estimate D2E/DX2                !
 ! A14   A(4,5,15)             117.9401         estimate D2E/DX2                !
 ! A15   A(6,5,15)             121.4245         estimate D2E/DX2                !
 ! A16   A(1,6,5)              119.291          estimate D2E/DX2                !
 ! A17   A(1,6,31)             120.5192         estimate D2E/DX2                !
 ! A18   A(5,6,31)             120.1898         estimate D2E/DX2                !
 ! A19   A(8,7,13)             120.7494         estimate D2E/DX2                !
 ! A20   A(8,7,29)             121.483          estimate D2E/DX2                !
 ! A21   A(13,7,29)            117.7084         estimate D2E/DX2                !
 ! A22   A(7,8,9)              118.0858         estimate D2E/DX2                !
 ! A23   A(7,8,17)             118.8174         estimate D2E/DX2                !
 ! A24   A(9,8,17)             123.0826         estimate D2E/DX2                !
 ! A25   A(8,9,10)             119.3494         estimate D2E/DX2                !
 ! A26   A(8,9,11)             121.1587         estimate D2E/DX2                !
 ! A27   A(10,9,11)            119.4896         estimate D2E/DX2                !
 ! A28   A(9,11,12)            120.0907         estimate D2E/DX2                !
 ! A29   A(9,11,16)            119.4989         estimate D2E/DX2                !
 ! A30   A(12,11,16)           120.4096         estimate D2E/DX2                !
 ! A31   A(11,12,13)           119.291          estimate D2E/DX2                !
 ! A32   A(11,12,30)           120.5195         estimate D2E/DX2                !
 ! A33   A(13,12,30)           120.1895         estimate D2E/DX2                !
 ! A34   A(7,13,12)            120.6067         estimate D2E/DX2                !
 ! A35   A(7,13,27)            117.9405         estimate D2E/DX2                !
 ! A36   A(12,13,27)           121.4246         estimate D2E/DX2                !
 ! A37   A(3,17,8)             118.3174         estimate D2E/DX2                !
 ! A38   A(3,17,18)            119.6452         estimate D2E/DX2                !
 ! A39   A(8,17,18)            119.6454         estimate D2E/DX2                !
 ! A40   A(17,18,19)           120.0609         estimate D2E/DX2                !
 ! A41   A(17,18,20)           119.5827         estimate D2E/DX2                !
 ! A42   A(19,18,20)           120.3564         estimate D2E/DX2                !
 ! A43   A(18,19,21)           119.2761         estimate D2E/DX2                !
 ! A44   A(18,19,33)           119.6688         estimate D2E/DX2                !
 ! A45   A(21,19,33)           121.0551         estimate D2E/DX2                !
 ! A46   A(18,20,22)           120.2604         estimate D2E/DX2                !
 ! A47   A(18,20,23)           118.9835         estimate D2E/DX2                !
 ! A48   A(22,20,23)           120.7561         estimate D2E/DX2                !
 ! A49   A(19,21,24)           120.5334         estimate D2E/DX2                !
 ! A50   A(19,21,32)           119.7052         estimate D2E/DX2                !
 ! A51   A(24,21,32)           119.7615         estimate D2E/DX2                !
 ! A52   A(20,22,24)           119.5516         estimate D2E/DX2                !
 ! A53   A(20,22,25)           119.9959         estimate D2E/DX2                !
 ! A54   A(24,22,25)           120.4526         estimate D2E/DX2                !
 ! A55   A(21,24,22)           120.0222         estimate D2E/DX2                !
 ! A56   A(21,24,26)           120.3155         estimate D2E/DX2                !
 ! A57   A(22,24,26)           119.6624         estimate D2E/DX2                !
 ! A58   A(4,29,7)             115.6694         estimate D2E/DX2                !
 ! D1    D(6,1,2,3)             -0.3832         estimate D2E/DX2                !
 ! D2    D(6,1,2,14)          -179.8397         estimate D2E/DX2                !
 ! D3    D(28,1,2,3)           179.3049         estimate D2E/DX2                !
 ! D4    D(28,1,2,14)           -0.1516         estimate D2E/DX2                !
 ! D5    D(2,1,6,5)             -0.0773         estimate D2E/DX2                !
 ! D6    D(2,1,6,31)           179.8308         estimate D2E/DX2                !
 ! D7    D(28,1,6,5)          -179.7625         estimate D2E/DX2                !
 ! D8    D(28,1,6,31)            0.1456         estimate D2E/DX2                !
 ! D9    D(1,2,3,4)             -0.1596         estimate D2E/DX2                !
 ! D10   D(1,2,3,17)          -178.7726         estimate D2E/DX2                !
 ! D11   D(14,2,3,4)           179.2977         estimate D2E/DX2                !
 ! D12   D(14,2,3,17)            0.6847         estimate D2E/DX2                !
 ! D13   D(2,3,4,5)              1.177          estimate D2E/DX2                !
 ! D14   D(2,3,4,29)          -175.9614         estimate D2E/DX2                !
 ! D15   D(17,3,4,5)           179.8506         estimate D2E/DX2                !
 ! D16   D(17,3,4,29)            2.7121         estimate D2E/DX2                !
 ! D17   D(2,3,17,8)          -165.2787         estimate D2E/DX2                !
 ! D18   D(2,3,17,18)           -2.8854         estimate D2E/DX2                !
 ! D19   D(4,3,17,8)            16.1179         estimate D2E/DX2                !
 ! D20   D(4,3,17,18)          178.5113         estimate D2E/DX2                !
 ! D21   D(3,4,5,6)             -1.6636         estimate D2E/DX2                !
 ! D22   D(3,4,5,15)          -179.7631         estimate D2E/DX2                !
 ! D23   D(29,4,5,6)           175.5801         estimate D2E/DX2                !
 ! D24   D(29,4,5,15)           -2.5195         estimate D2E/DX2                !
 ! D25   D(3,4,29,7)           -20.7941         estimate D2E/DX2                !
 ! D26   D(5,4,29,7)           161.9836         estimate D2E/DX2                !
 ! D27   D(4,5,6,1)              1.0942         estimate D2E/DX2                !
 ! D28   D(4,5,6,31)          -178.8142         estimate D2E/DX2                !
 ! D29   D(15,5,6,1)           179.1266         estimate D2E/DX2                !
 ! D30   D(15,5,6,31)           -0.7818         estimate D2E/DX2                !
 ! D31   D(13,7,8,9)            -1.1782         estimate D2E/DX2                !
 ! D32   D(13,7,8,17)         -179.8506         estimate D2E/DX2                !
 ! D33   D(29,7,8,9)           175.9596         estimate D2E/DX2                !
 ! D34   D(29,7,8,17)           -2.7128         estimate D2E/DX2                !
 ! D35   D(8,7,13,12)            1.664          estimate D2E/DX2                !
 ! D36   D(8,7,13,27)          179.7632         estimate D2E/DX2                !
 ! D37   D(29,7,13,12)        -175.579          estimate D2E/DX2                !
 ! D38   D(29,7,13,27)           2.5202         estimate D2E/DX2                !
 ! D39   D(8,7,29,4)            20.7945         estimate D2E/DX2                !
 ! D40   D(13,7,29,4)         -161.9839         estimate D2E/DX2                !
 ! D41   D(7,8,9,10)          -179.2965         estimate D2E/DX2                !
 ! D42   D(7,8,9,11)             0.1608         estimate D2E/DX2                !
 ! D43   D(17,8,9,10)           -0.6848         estimate D2E/DX2                !
 ! D44   D(17,8,9,11)          178.7725         estimate D2E/DX2                !
 ! D45   D(7,8,17,3)           -16.1177         estimate D2E/DX2                !
 ! D46   D(7,8,17,18)         -178.511          estimate D2E/DX2                !
 ! D47   D(9,8,17,3)           165.2802         estimate D2E/DX2                !
 ! D48   D(9,8,17,18)            2.8869         estimate D2E/DX2                !
 ! D49   D(8,9,11,12)            0.3828         estimate D2E/DX2                !
 ! D50   D(8,9,11,16)         -179.3051         estimate D2E/DX2                !
 ! D51   D(10,9,11,12)         179.8394         estimate D2E/DX2                !
 ! D52   D(10,9,11,16)           0.1514         estimate D2E/DX2                !
 ! D53   D(9,11,12,13)           0.0768         estimate D2E/DX2                !
 ! D54   D(9,11,12,30)        -179.8309         estimate D2E/DX2                !
 ! D55   D(16,11,12,13)        179.7619         estimate D2E/DX2                !
 ! D56   D(16,11,12,30)         -0.1458         estimate D2E/DX2                !
 ! D57   D(11,12,13,7)          -1.0938         estimate D2E/DX2                !
 ! D58   D(11,12,13,27)       -179.1259         estimate D2E/DX2                !
 ! D59   D(30,12,13,7)         178.8142         estimate D2E/DX2                !
 ! D60   D(30,12,13,27)          0.7821         estimate D2E/DX2                !
 ! D61   D(3,17,18,19)         -81.0847         estimate D2E/DX2                !
 ! D62   D(3,17,18,20)          98.9152         estimate D2E/DX2                !
 ! D63   D(8,17,18,19)          81.0736         estimate D2E/DX2                !
 ! D64   D(8,17,18,20)         -98.9265         estimate D2E/DX2                !
 ! D65   D(17,18,19,21)        180.0            estimate D2E/DX2                !
 ! D66   D(17,18,19,33)          0.0001         estimate D2E/DX2                !
 ! D67   D(20,18,19,21)          0.0001         estimate D2E/DX2                !
 ! D68   D(20,18,19,33)       -179.9997         estimate D2E/DX2                !
 ! D69   D(17,18,20,22)       -179.9999         estimate D2E/DX2                !
 ! D70   D(17,18,20,23)          0.0002         estimate D2E/DX2                !
 ! D71   D(19,18,20,22)          0.0            estimate D2E/DX2                !
 ! D72   D(19,18,20,23)       -179.9999         estimate D2E/DX2                !
 ! D73   D(18,19,21,24)         -0.0002         estimate D2E/DX2                !
 ! D74   D(18,19,21,32)        180.0            estimate D2E/DX2                !
 ! D75   D(33,19,21,24)        179.9997         estimate D2E/DX2                !
 ! D76   D(33,19,21,32)         -0.0002         estimate D2E/DX2                !
 ! D77   D(18,20,22,24)         -0.0001         estimate D2E/DX2                !
 ! D78   D(18,20,22,25)        180.0            estimate D2E/DX2                !
 ! D79   D(23,20,22,24)        179.9998         estimate D2E/DX2                !
 ! D80   D(23,20,22,25)         -0.0001         estimate D2E/DX2                !
 ! D81   D(19,21,24,22)          0.0001         estimate D2E/DX2                !
 ! D82   D(19,21,24,26)       -179.9999         estimate D2E/DX2                !
 ! D83   D(32,21,24,22)        180.0            estimate D2E/DX2                !
 ! D84   D(32,21,24,26)          0.0            estimate D2E/DX2                !
 ! D85   D(20,22,24,21)          0.0            estimate D2E/DX2                !
 ! D86   D(20,22,24,26)       -180.0            estimate D2E/DX2                !
 ! D87   D(25,22,24,21)        180.0            estimate D2E/DX2                !
 ! D88   D(25,22,24,26)          0.0            estimate D2E/DX2                !
 --------------------------------------------------------------------------------
 Trust Radius=3.00D-01 FncErr=1.00D-07 GrdErr=1.00D-06
 Number of steps in this run=    192 maximum allowed number of steps=    198.
 GradGradGradGradGradGradGradGradGradGradGradGradGradGradGradGradGradGrad

 Leave Link  103 at Tue Nov 23 14:58:01 2021, MaxMem=  5242880000 cpu:         0.2
 (Enter /opt/nce/packages/global/g09/l202.exe)
                          Input orientation:                          
 ---------------------------------------------------------------------
 Center     Atomic      Atomic             Coordinates (Angstroms)
 Number     Number       Type             X           Y           Z
 ---------------------------------------------------------------------
      1          6           0        0.653030   -3.617610   -0.240102
      2          6           0       -0.085488   -2.441520   -0.120082
      3          6           0        0.545410   -1.205099    0.049946
      4          6           0        1.942085   -1.180337    0.099940
      5          6           0        2.675378   -2.344495   -0.040075
      6          6           0        2.032561   -3.575891   -0.200095
      7          6           0        1.941960    1.180544    0.100016
      8          6           0        0.545284    1.205160    0.050030
      9          6           0       -0.085744    2.441514   -0.119880
     10          1           0       -1.164808    2.485599   -0.149861
     11          6           0        0.652652    3.617681   -0.239818
     12          6           0        2.032187    3.576107   -0.199838
     13          6           0        2.675133    2.344778   -0.039918
     14          1           0       -1.164548   -2.485716   -0.150090
     15          1           0        3.755191   -2.273328    0.009923
     16          1           0        0.133286    4.566702   -0.359751
     17          7           0       -0.158429   -0.000008    0.199964
     18          6           0       -1.583908   -0.000080    0.119979
     19          6           0       -2.212617    0.000046   -1.121994
     20          6           0       -2.332593   -0.000278    1.281968
     21          6           0       -3.597431   -0.000027   -1.180683
     22          6           0       -3.717405   -0.000353    1.220686
     23          1           0       -1.817756   -0.000372    2.241240
     24          6           0       -4.350045   -0.000226   -0.019992
     25          1           0       -4.296610   -0.000508    2.128816
     26          1           0       -5.432244   -0.000284   -0.069980
     27          1           0        3.754953    2.273722    0.010068
     28          1           0        0.133764   -4.566686   -0.360123
     29          8           0        2.641043    0.000140    0.349931
     30          1           0        2.613817    4.487776   -0.289789
     31          1           0        2.614288   -4.487498   -0.290108
     32          1           0       -4.096653    0.000071   -2.148803
     33          1           0       -1.617802    0.000196   -2.021279
 ---------------------------------------------------------------------
                    Distance matrix (angstroms):
                    1          2          3          4          5
     1  C    0.000000
     2  C    1.393916   0.000000
     3  C    2.432266   1.398456   0.000000
     4  C    2.778055   2.397925   1.397789   0.000000
     5  C    2.398067   2.763729   2.417249   1.382963   0.000000
     6  C    1.380741   2.404024   2.809767   2.415965   1.398269
     7  C    4.979890   4.156722   2.764806   2.360881   3.603252
     8  C    4.832690   3.704738   2.410259   2.764804   4.140709
     9  C    6.105180   4.883034   3.704724   4.156707   5.525943
    10  H    6.368818   5.044038   4.072594   4.811889   6.171620
    11  C    7.235291   6.105170   4.832667   4.979864   6.299116
    12  C    7.324839   6.379870   5.013265   4.766733   5.957579
    13  C    6.299130   5.525948   4.140703   3.603242   4.689273
    14  H    2.143100   1.080382   2.145682   3.379008   3.844097
    15  H    3.390134   3.846558   3.383106   2.118982   1.083310
    16  H    8.201671   7.015731   5.800981   6.042477   7.370825
    17  N    3.733520   2.463479   1.403616   2.411502   3.685743
    18  C    4.268498   2.874634   2.447646   3.718338   4.864506
    19  C    4.698628   3.389653   3.229943   4.488650   5.528102
    20  C    4.931099   3.602067   3.354456   4.589401   5.685325
    21  C    5.660214   4.406757   4.486622   5.806838   6.793059
    22  C    5.858255   4.576874   4.581881   5.888825   6.924752
    23  H    5.034506   3.812584   3.440594   4.484851   5.557658
    24  C    6.177756   4.914914   5.042032   6.402964   7.406252
    25  H    6.572225   5.361868   5.405358   6.665557   7.668571
    26  H    7.081282   5.877920   6.099042   7.470082   8.439772
    27  H    6.662755   6.082716   4.733387   3.901934   4.742987
    28  H    1.088479   2.149889   3.411433   3.866399   3.391219
    29  O    4.169946   3.690066   2.436036   1.394476   2.377098
    30  H    8.339331   7.438427   6.066511   5.721068   6.837110
    31  H    2.146098   3.391714   3.894873   3.397250   2.158405
    32  H    6.268193   5.115322   5.275953   6.551074   7.470216
    33  H    4.627936   3.453189   3.228342   4.308831   5.277702
                    6          7          8          9         10
     6  C    0.000000
     7  C    4.766755   0.000000
     8  C    5.013283   1.397787   0.000000
     9  C    6.379876   2.397912   1.398441   0.000000
    10  H    6.853273   3.378996   2.145669   1.080380   0.000000
    11  C    7.324835   2.778028   2.432241   1.393909   2.143097
    12  C    7.151998   2.415942   2.809752   2.404023   3.378237
    13  C    5.957590   1.382955   2.417246   2.763728   3.844095
    14  H    3.378237   4.811903   4.072608   5.044039   4.971315
    15  H    2.169846   3.901942   4.733391   6.082710   6.846847
    16  H    8.362688   3.866362   3.411397   2.149869   2.461725
    17  N    4.212769   2.411499   1.403610   2.463455   2.704333
    18  C    5.095853   3.718335   2.447643   2.874615   2.535164
    19  C    5.626612   4.488585   3.229854   3.389482   2.867215
    20  C    5.834046   4.589461   3.354538   3.602202   3.097328
    21  C    6.741303   5.806788   4.486560   4.406628   3.627476
    22  C    6.918468   5.888874   4.581944   4.576985   3.817605
    23  H    5.793910   4.484960   3.440736   3.812815   3.510521
    24  C    7.318161   6.402964   5.042034   4.914909   4.042515
    25  H    7.633190   6.665633   5.405453   5.362042   4.602313
    26  H    8.277995   7.470083   6.099044   5.877919   4.939332
    27  H    6.101539   2.118979   3.383105   3.846556   4.926918
    28  H    2.147723   6.042512   5.801015   7.015751   7.173927
    29  O    3.668893   1.394463   2.436025   3.690040   4.572942
    30  H    8.085087   3.397223   3.894852   3.391709   4.278586
    31  H    1.085143   5.721094   6.066533   7.438438   7.932548
    32  H    7.358820   6.550996   5.275859   5.115131   4.332359
    33  H    5.424966   4.308714   3.228188   3.452905   3.143984
                   11         12         13         14         15
    11  C    0.000000
    12  C    1.380740   0.000000
    13  C    2.398056   1.398258   0.000000
    14  H    6.368809   6.853268   6.171625   0.000000
    15  H    6.662740   6.101527   4.742986   4.926920   0.000000
    16  H    1.088469   2.147714   3.391198   7.173906   7.748604
    17  N    3.733488   4.212747   3.685734   2.704359   4.529958
    18  C    4.268472   5.095835   4.864500   2.535190   5.803942
    19  C    4.698434   5.626450   5.527998   2.867413   6.485692
    20  C    4.931242   5.834174   5.685419   3.097180   6.621629
    21  C    5.660057   6.741171   6.792975   3.627629   7.787586
    22  C    5.858382   6.918581   6.924832   3.817478   7.903926
    23  H    5.034766   5.794146   5.557829   3.510281   6.418944
    24  C    6.177746   7.318155   7.406252   4.042521   8.418001
    25  H    6.572436   7.633379   7.668701   4.602117   8.630580
    26  H    7.081276   8.277993   8.439774   4.939334   9.464781
    27  H    3.390124   2.169836   1.083309   6.846853   4.547050
    28  H    8.201682   8.362702   7.370849   2.461740   4.302460
    29  O    4.169905   3.668854   2.377072   4.572967   2.554523
    30  H    2.146097   1.085138   2.158387   7.932537   6.863315
    31  H    8.339333   8.085092   6.837126   4.278591   2.508830
    32  H    6.267952   7.358612   7.470082   4.332578   8.454578
    33  H    4.627609   5.424685   5.277513   3.144288   6.177681
                   16         17         18         19         20
    16  H    0.000000
    17  N    4.610121   0.000000
    18  C    4.902489   1.427721   0.000000
    19  C    5.190243   2.442798   1.392039   0.000000
    20  C    5.443630   2.428523   1.382298   2.406954   0.000000
    21  C    5.953754   3.705796   2.397081   1.386057   2.768477
    22  C    6.179287   3.702456   2.400701   2.784338   1.386167
    23  H    5.606236   2.630622   2.134112   3.386334   1.088696
    24  C    6.408785   4.197383   2.769676   2.404788   2.401086
    25  H    6.832009   4.565634   3.375526   3.861450   2.138811
    26  H    7.205307   5.280719   3.853021   3.387142   3.381656
    27  H    4.302441   4.529952   5.803938   6.485604   6.621708
    28  H    9.133388   4.610165   4.902528   5.190471   5.443479
    29  O    5.257945   2.803486   4.231204   5.071940   5.060212
    30  H    2.482772   5.297680   6.158706   6.642797   6.861488
    31  H    9.388224   5.297707   6.158729   6.642974   6.861355
    32  H    6.476667   4.585446   3.385448   2.145677   3.857732
    33  H    5.165265   2.657760   2.141526   1.078201   3.379699
                   21         22         23         24         25
    21  C    0.000000
    22  C    2.404364   0.000000
    23  H    3.857046   2.156431   0.000000
    24  C    1.383341   1.392665   3.394946   0.000000
    25  H    3.382549   1.077116   2.481402   2.149472   0.000000
    26  H    2.144808   2.146274   4.290252   1.083353   2.474746
    27  H    7.787514   7.903996   6.419090   8.418001   8.630694
    28  H    5.953949   6.179147   5.605956   6.408806   6.831765
    29  O    6.423499   6.417794   4.843340   7.000868   7.162085
    30  H    7.714510   7.906277   6.796206   8.289169   8.587686
    31  H    7.714660   7.906156   6.795957   8.289180   8.587478
    32  H    1.089256   3.390765   4.946297   2.143839   4.282290
    33  H    2.150705   3.862469   4.267206   3.386783   4.939565
                   26         27         28         29         30
    26  H    0.000000
    27  H    9.464782   0.000000
    28  H    7.205321   7.748628   0.000000
    29  O    8.084200   2.554501   5.257996   0.000000
    30  H    9.215753   2.508813   9.388232   4.533085   0.000000
    31  H    9.215759   6.863331   2.482775   4.533129   8.975274
    32  H    2.470892   8.454462   6.476965   7.186113   8.284071
    33  H    4.284569   6.177523   5.165640   4.874464   6.406484
                   31         32         33
    31  H    0.000000
    32  H    8.284308   0.000000
    33  H    6.406788   2.482129   0.000000
 Symmetry turned off by external request.
 Stoichiometry    C18H13NO
 Framework group  C1[X(C18H13NO)]
 Deg. of freedom    93
 Full point group                 C1      NOp   1
 Rotational constants (GHZ):      0.4342578      0.3601337      0.2124210
 Leave Link  202 at Tue Nov 23 14:58:01 2021, MaxMem=  5242880000 cpu:         0.1
 (Enter /opt/nce/packages/global/g09/l301.exe)
 Standard basis: def2TZVP (5D, 7F)
 Ernie: Thresh=  0.10000D-02 Tol=  0.10000D-05 Strict=F.
   698 basis functions,  1124 primitive gaussians,   798 cartesian basis functions
    68 alpha electrons       68 beta electrons
       nuclear repulsion energy      1433.0798489103 Hartrees.
 IExCor= 4134 DFT=T Ex+Corr=M06L ExCW=0 ScaHFX=  0.000000
 ScaDFX=  1.000000  1.000000  1.000000  1.000000 ScalE2=  1.000000  1.000000
 IRadAn=      5 IRanWt=     -1 IRanGd=            0 ICorTp=0 IEmpDi=  4
 NAtoms=   33 NActive=   33 NUniq=   33 SFac= 1.00D+00 NAtFMM=   60 NAOKFM=F Big=F
 Integral buffers will be    131072 words long.
 Raffenetti 2 integral format.
 Two-electron integral symmetry is turned off.
 ------------------------------------------------------------------------------
 Polarizable Continuum Model (PCM)
 =================================
 Model                : PCM (using non-symmetric T matrix).
 Atomic radii         : SMD-Coulomb.
 Polarization charges : Total charges.
 Charge compensation  : None.
 Solution method      : On-the-fly selection.
 Cavity type          : VdW (van der Waals Surface) (Alpha=1.000).
 Cavity algorithm     : GePol (No added spheres)
                        Default sphere list used, NSphG=   33.
                        Lebedev-Laikov grids with approx.  5.0 points / Ang**2.
                        Smoothing algorithm: York/Karplus (Gamma=1.0000).
                        Polarization charges: spherical gaussians, with
                                              point-specific exponents (IZeta= 3).
                        Self-potential: point-specific (ISelfS= 7).
                        Self-field    : sphere-specific E.n sum rule (ISelfD= 2).
 1st derivatives      : Analytical E(r).r(x)/FMM algorithm (CHGder, D1EAlg=3).
                        Cavity 1st derivative terms included.
 Solvent              : n,n-DiMethylAcetamide, Eps=  37.781000 Eps(inf)=   2.067844
 ------------------------------------------------------------------------------
 GePol: Number of generator spheres                  =      33
 GePol: Total number of spheres                      =      33
 GePol: Number of exposed spheres                    =      33 (100.00%)
 GePol: Number of points                             =    2586
 GePol: Average weight of points                     =       0.11
 GePol: Minimum weight of points                     =   0.67D-08
 GePol: Maximum weight of points                     =    0.17992
 GePol: Number of points with low weight             =     117
 GePol: Fraction of low-weight points (<1% of avg)   =       4.52%
 GePol: Cavity surface area                          =    281.172 Ang**2
 GePol: Cavity volume                                =    275.472 Ang**3
 ------------------------------------------------------------------------------
 Atomic radii for non-electrostatic terms: SMD-CDS.
 ------------------------------------------------------------------------------
 PCM non-electrostatic energy =        -0.0048558287 Hartrees.
 Nuclear repulsion after PCM non-electrostatic terms =     1433.0749930816 Hartrees.
 Leave Link  301 at Tue Nov 23 14:58:01 2021, MaxMem=  5242880000 cpu:         1.5
 (Enter /opt/nce/packages/global/g09/l302.exe)
 NPDir=0 NMtPBC=     1 NCelOv=     1 NCel=       1 NClECP=     1 NCelD=      1
         NCelK=      1 NCelE2=     1 NClLst=     1 CellRange=     0.0.
 One-electron integrals computed using PRISM.
   1 Symmetry operations used in ECPInt.
 ECPInt:  NShTT=   37128 NPrTT=  114960 LenC2=   33635 LenP2D=   75065.
 LDataN:  DoStor=T MaxTD1= 6 Len=  172
 NBasis=   698 RedAO= T EigKep=  5.76D-06  NBF=   698
 NBsUse=   698 1.00D-06 EigRej= -1.00D+00 NBFU=   698
 Precomputing XC quadrature grid using
 IXCGrd= 4 IRadAn=           5 IRanWt=          -1 IRanGd=           0 AccXCQ= 0.00D+00.
 Generated NRdTot=       0 NPtTot=           0 NUsed=           0 NTot=          32
 NSgBfM=   785   785   785   785   785 MxSgAt=    33 MxSgA2=    33.
 Leave Link  302 at Tue Nov 23 14:58:02 2021, MaxMem=  5242880000 cpu:        12.9
 (Enter /opt/nce/packages/global/g09/l303.exe)
 DipDrv:  MaxL=1.
 Leave Link  303 at Tue Nov 23 14:58:02 2021, MaxMem=  5242880000 cpu:         2.1
 (Enter /opt/nce/packages/global/g09/l401.exe)
 ExpMin= 9.52D-02 ExpMax= 2.70D+04 ExpMxC= 9.22D+02 IAcc=3 IRadAn=         5 AccDes= 0.00D+00
 Harris functional with IExCor= 1009 and IRadAn=       5 diagonalized for initial guess.
 HarFok:  IExCor= 1009 AccDes= 0.00D+00 IRadAn=         5 IDoV= 1 UseB2=F ITyADJ=14
 ICtDFT=  3500011 ScaDFX=  1.000000  1.000000  1.000000  1.000000
 FoFCou: FMM=F IPFlag=           0 FMFlag=      100000 FMFlg1=           0
         NFxFlg=           0 DoJE=T BraDBF=F KetDBF=T FulRan=T
         wScrn=  0.000000 ICntrl=     500 IOpCl=  0 I1Cent=   200000004 NGrid=           0
         NMat0=    1 NMatS0=      1 NMatT0=    0 NMatD0=    1 NMtDS0=    0 NMtDT0=    0
 Symmetry not used in FoFCou.
 Harris En= -823.309332617018    
 JPrj=0 DoOrth=F DoCkMO=F.
 Leave Link  401 at Tue Nov 23 14:58:08 2021, MaxMem=  5242880000 cpu:        66.3
 (Enter /opt/nce/packages/global/g09/l502.exe)
 Closed shell SCF:
 Using DIIS extrapolation, IDIIS=  1040.
 Two-electron integral symmetry not used.
 IVT=     1943392 IEndB=     1943392 NGot=  5242880000 MDV=  5241590851
 LenX=  5241590851 LenY=  5240953249
 Requested convergence on RMS density matrix=1.00D-08 within 128 cycles.
 Requested convergence on MAX density matrix=1.00D-06.
 Requested convergence on             energy=1.00D-06.
 No special actions if energy rises.
 Fock matrices will be formed incrementally for  20 cycles.

 Cycle   1  Pass 1  IDiag  1:
 FoFJK:  IHMeth= 1 ICntrl=     500 DoSepK=F KAlg= 0 I1Cent=   0 FoldK=F
 IRaf= 820000000 NMat=   1 IRICut=       1 DoRegI=T DoRafI=F ISym2E= 0.
 FoFCou: FMM=F IPFlag=           0 FMFlag=      100000 FMFlg1=           0
         NFxFlg=           0 DoJE=T BraDBF=F KetDBF=F FulRan=T
         wScrn=  0.000000 ICntrl=     500 IOpCl=  0 I1Cent=           0 NGrid=           0
         NMat0=    1 NMatS0=      1 NMatT0=    0 NMatD0=    1 NMtDS0=    0 NMtDT0=    0
 Symmetry not used in FoFCou.
 Inv3:  Mode=1 IEnd=    20062188.
 Iteration    1 A*A^-1 deviation from unit magnitude is 6.44D-15 for   2586.
 Iteration    1 A*A^-1 deviation from orthogonality  is 2.81D-15 for   1067    105.
 Iteration    1 A^-1*A deviation from unit magnitude is 6.22D-15 for   2586.
 Iteration    1 A^-1*A deviation from orthogonality  is 2.56D-13 for   1532   1530.
 E= -823.463318878698    
 DIIS: error= 2.24D-02 at cycle   1 NSaved=   1.
 NSaved= 1 IEnMin= 1 EnMin= -823.463318878698     IErMin= 1 ErrMin= 2.24D-02
 ErrMax= 2.24D-02  0.00D+00 EMaxC= 1.00D-01 BMatC= 5.17D-01 BMatP= 5.17D-01
 IDIUse=3 WtCom= 7.76D-01 WtEn= 2.24D-01
 Coeff-Com:  0.100D+01
 Coeff-En:   0.100D+01
 Coeff:      0.100D+01
 Gap=     0.173 Goal=   None    Shift=    0.000
 GapD=    0.173 DampG=1.000 DampE=0.500 DampFc=0.5000 IDamp=-1.
 Damping current iteration by 5.00D-01
 RMSDP=3.43D-03 MaxDP=2.16D-01              OVMax= 3.26D-01

 Cycle   2  Pass 1  IDiag  1:
 RMSU=  1.72D-03    CP:  9.94D-01
 E= -823.589286748302     Delta-E=       -0.125967869604 Rises=F Damp=T
 DIIS: error= 1.20D-02 at cycle   2 NSaved=   2.
 NSaved= 2 IEnMin= 2 EnMin= -823.589286748302     IErMin= 2 ErrMin= 1.20D-02
 ErrMax= 1.20D-02  0.00D+00 EMaxC= 1.00D-01 BMatC= 9.00D-02 BMatP= 5.17D-01
 IDIUse=3 WtCom= 8.80D-01 WtEn= 1.20D-01
 Coeff-Com:  0.146D+00 0.854D+00
 Coeff-En:   0.327D+00 0.673D+00
 Coeff:      0.168D+00 0.832D+00
 Gap=     0.142 Goal=   None    Shift=    0.000
 RMSDP=1.66D-03 MaxDP=5.76D-02 DE=-1.26D-01 OVMax= 4.15D-01

 Cycle   3  Pass 1  IDiag  1:
 RMSU=  1.64D-03    CP:  9.59D-01  9.43D-01
 E= -823.775980413513     Delta-E=       -0.186693665210 Rises=F Damp=F
 DIIS: error= 1.67D-02 at cycle   3 NSaved=   3.
 NSaved= 3 IEnMin= 3 EnMin= -823.775980413513     IErMin= 2 ErrMin= 1.20D-02
 ErrMax= 1.67D-02  0.00D+00 EMaxC= 1.00D-01 BMatC= 1.15D-01 BMatP= 9.00D-02
 IDIUse=2 WtCom= 0.00D+00 WtEn= 1.00D+00
 Coeff-En:   0.000D+00 0.124D+00 0.876D+00
 Coeff:      0.000D+00 0.124D+00 0.876D+00
 Gap=     0.164 Goal=   None    Shift=    0.000
 RMSDP=1.81D-03 MaxDP=8.84D-02 DE=-1.87D-01 OVMax= 3.90D-01

 Cycle   4  Pass 1  IDiag  1:
 RMSU=  1.51D-03    CP:  9.27D-01  9.76D-01  4.03D-01
 E= -823.416729495976     Delta-E=        0.359250917536 Rises=F Damp=F
 DIIS: error= 3.74D-02 at cycle   4 NSaved=   4.
 NSaved= 4 IEnMin= 3 EnMin= -823.775980413513     IErMin= 2 ErrMin= 1.20D-02
 ErrMax= 3.74D-02  0.00D+00 EMaxC= 1.00D-01 BMatC= 4.41D-01 BMatP= 9.00D-02
 IDIUse=2 WtCom= 0.00D+00 WtEn= 1.00D+00
 Coeff-En:   0.000D+00 0.000D+00 0.724D+00 0.276D+00
 Coeff:      0.000D+00 0.000D+00 0.724D+00 0.276D+00
 Gap=     0.148 Goal=   None    Shift=    0.000
 RMSDP=7.86D-04 MaxDP=3.69D-02 DE= 3.59D-01 OVMax= 1.96D-01

 Cycle   5  Pass 1  IDiag  1:
 RMSU=  2.69D-04    CP:  9.39D-01  8.77D-01  6.54D-01  6.11D-01
 E= -823.878351025350     Delta-E=       -0.461621529374 Rises=F Damp=F
 DIIS: error= 8.00D-03 at cycle   5 NSaved=   5.
 NSaved= 5 IEnMin= 5 EnMin= -823.878351025350     IErMin= 5 ErrMin= 8.00D-03
 ErrMax= 8.00D-03  0.00D+00 EMaxC= 1.00D-01 BMatC= 2.59D-02 BMatP= 9.00D-02
 IDIUse=3 WtCom= 9.20D-01 WtEn= 8.00D-02
 Coeff-Com: -0.638D-02 0.179D-01 0.258D+00-0.721D-01 0.803D+00
 Coeff-En:   0.000D+00 0.000D+00 0.243D+00 0.000D+00 0.757D+00
 Coeff:     -0.587D-02 0.165D-01 0.256D+00-0.663D-01 0.799D+00
 Gap=     0.119 Goal=   None    Shift=    0.000
 RMSDP=3.65D-04 MaxDP=2.11D-02 DE=-4.62D-01 OVMax= 8.17D-02

 Cycle   6  Pass 1  IDiag  1:
 RMSU=  9.22D-05    CP:  9.47D-01  8.92D-01  7.57D-01  4.09D-01  9.15D-01
 E= -823.906106268413     Delta-E=       -0.027755243063 Rises=F Damp=F
 DIIS: error= 9.75D-04 at cycle   6 NSaved=   6.
 NSaved= 6 IEnMin= 6 EnMin= -823.906106268413     IErMin= 6 ErrMin= 9.75D-04
 ErrMax= 9.75D-04  0.00D+00 EMaxC= 1.00D-01 BMatC= 7.83D-04 BMatP= 2.59D-02
 IDIUse=3 WtCom= 9.90D-01 WtEn= 9.75D-03
 Coeff-Com: -0.617D-02 0.119D-01 0.128D+00-0.692D-01 0.536D+00 0.399D+00
 Coeff-En:   0.000D+00 0.000D+00 0.000D+00 0.000D+00 0.000D+00 0.100D+01
 Coeff:     -0.611D-02 0.118D-01 0.127D+00-0.685D-01 0.531D+00 0.405D+00
 Gap=     0.119 Goal=   None    Shift=    0.000
 RMSDP=6.31D-05 MaxDP=5.11D-03 DE=-2.78D-02 OVMax= 9.69D-03

 Cycle   7  Pass 1  IDiag  1:
 RMSU=  3.90D-05    CP:  9.46D-01  8.92D-01  7.49D-01  4.26D-01  9.91D-01
                    CP:  6.36D-01
 E= -823.906780226472     Delta-E=       -0.000673958059 Rises=F Damp=F
 DIIS: error= 1.80D-04 at cycle   7 NSaved=   7.
 NSaved= 7 IEnMin= 7 EnMin= -823.906780226472     IErMin= 7 ErrMin= 1.80D-04
 ErrMax= 1.80D-04  0.00D+00 EMaxC= 1.00D-01 BMatC= 2.56D-05 BMatP= 7.83D-04
 IDIUse=3 WtCom= 9.98D-01 WtEn= 1.80D-03
 Coeff-Com: -0.232D-02 0.413D-02 0.473D-01-0.261D-01 0.196D+00 0.205D+00
 Coeff-Com:  0.576D+00
 Coeff-En:   0.000D+00 0.000D+00 0.000D+00 0.000D+00 0.000D+00 0.000D+00
 Coeff-En:   0.100D+01
 Coeff:     -0.232D-02 0.412D-02 0.473D-01-0.261D-01 0.195D+00 0.205D+00
 Coeff:      0.576D+00
 Gap=     0.119 Goal=   None    Shift=    0.000
 RMSDP=1.78D-05 MaxDP=1.20D-03 DE=-6.74D-04 OVMax= 2.44D-03

 Cycle   8  Pass 1  IDiag  1:
 RMSU=  1.16D-05    CP:  9.46D-01  8.91D-01  7.51D-01  4.22D-01  9.76D-01
                    CP:  7.36D-01  8.68D-01
 E= -823.906797539245     Delta-E=       -0.000017312773 Rises=F Damp=F
 DIIS: error= 8.63D-05 at cycle   8 NSaved=   8.
 NSaved= 8 IEnMin= 8 EnMin= -823.906797539245     IErMin= 8 ErrMin= 8.63D-05
 ErrMax= 8.63D-05  0.00D+00 EMaxC= 1.00D-01 BMatC= 7.01D-06 BMatP= 2.56D-05
 IDIUse=1 WtCom= 1.00D+00 WtEn= 0.00D+00
 Coeff-Com: -0.132D-03-0.867D-04 0.236D-02-0.148D-02 0.575D-02 0.505D-01
 Coeff-Com:  0.396D+00 0.547D+00
 Coeff:     -0.132D-03-0.867D-04 0.236D-02-0.148D-02 0.575D-02 0.505D-01
 Coeff:      0.396D+00 0.547D+00
 Gap=     0.119 Goal=   None    Shift=    0.000
 RMSDP=6.17D-06 MaxDP=4.13D-04 DE=-1.73D-05 OVMax= 9.11D-04

 Cycle   9  Pass 1  IDiag  1:
 RMSU=  4.39D-06    CP:  9.46D-01  8.90D-01  7.51D-01  4.22D-01  9.83D-01
                    CP:  7.48D-01  9.47D-01  1.08D+00
 E= -823.906803233236     Delta-E=       -0.000005693991 Rises=F Damp=F
 DIIS: error= 2.81D-05 at cycle   9 NSaved=   9.
 NSaved= 9 IEnMin= 9 EnMin= -823.906803233236     IErMin= 9 ErrMin= 2.81D-05
 ErrMax= 2.81D-05  0.00D+00 EMaxC= 1.00D-01 BMatC= 3.16D-07 BMatP= 7.01D-06
 IDIUse=1 WtCom= 1.00D+00 WtEn= 0.00D+00
 Coeff-Com:  0.642D-04-0.327D-03-0.120D-02 0.769D-03-0.807D-02 0.164D-01
 Coeff-Com:  0.182D+00 0.292D+00 0.518D+00
 Coeff:      0.642D-04-0.327D-03-0.120D-02 0.769D-03-0.807D-02 0.164D-01
 Coeff:      0.182D+00 0.292D+00 0.518D+00
 Gap=     0.119 Goal=   None    Shift=    0.000
 RMSDP=1.88D-06 MaxDP=1.11D-04 DE=-5.69D-06 OVMax= 2.20D-04

 Cycle  10  Pass 1  IDiag  1:
 RMSU=  1.17D-06    CP:  9.46D-01  8.90D-01  7.51D-01  4.22D-01  9.82D-01
                    CP:  7.54D-01  9.49D-01  1.18D+00  1.06D+00
 E= -823.906803512866     Delta-E=       -0.000000279630 Rises=F Damp=F
 DIIS: error= 7.04D-06 at cycle  10 NSaved=  10.
 NSaved=10 IEnMin=10 EnMin= -823.906803512866     IErMin=10 ErrMin= 7.04D-06
 ErrMax= 7.04D-06  0.00D+00 EMaxC= 1.00D-01 BMatC= 4.11D-08 BMatP= 3.16D-07
 IDIUse=1 WtCom= 1.00D+00 WtEn= 0.00D+00
 Coeff-Com:  0.212D-04-0.924D-04-0.923D-03 0.524D-03-0.466D-02 0.133D-02
 Coeff-Com:  0.345D-01 0.634D-01 0.282D+00 0.624D+00
 Coeff:      0.212D-04-0.924D-04-0.923D-03 0.524D-03-0.466D-02 0.133D-02
 Coeff:      0.345D-01 0.634D-01 0.282D+00 0.624D+00
 Gap=     0.119 Goal=   None    Shift=    0.000
 RMSDP=9.96D-07 MaxDP=7.70D-05 DE=-2.80D-07 OVMax= 6.39D-05

 Cycle  11  Pass 1  IDiag  1:
 RMSU=  4.10D-07    CP:  9.46D-01  8.90D-01  7.51D-01  4.22D-01  9.82D-01
                    CP:  7.57D-01  9.53D-01  1.23D+00  1.16D+00  1.09D+00
 E= -823.906803549849     Delta-E=       -0.000000036983 Rises=F Damp=F
 DIIS: error= 2.26D-06 at cycle  11 NSaved=  11.
 NSaved=11 IEnMin=11 EnMin= -823.906803549849     IErMin=11 ErrMin= 2.26D-06
 ErrMax= 2.26D-06  0.00D+00 EMaxC= 1.00D-01 BMatC= 2.87D-09 BMatP= 4.11D-08
 IDIUse=1 WtCom= 1.00D+00 WtEn= 0.00D+00
 Coeff-Com: -0.616D-05 0.763D-05-0.250D-03 0.128D-03-0.982D-03-0.107D-02
 Coeff-Com: -0.539D-02-0.579D-02 0.561D-01 0.260D+00 0.698D+00
 Coeff:     -0.616D-05 0.763D-05-0.250D-03 0.128D-03-0.982D-03-0.107D-02
 Coeff:     -0.539D-02-0.579D-02 0.561D-01 0.260D+00 0.698D+00
 Gap=     0.119 Goal=   None    Shift=    0.000
 RMSDP=4.08D-07 MaxDP=3.41D-05 DE=-3.70D-08 OVMax= 2.34D-05

 Cycle  12  Pass 1  IDiag  1:
 RMSU=  1.31D-07    CP:  9.46D-01  8.89D-01  7.51D-01  4.22D-01  9.82D-01
                    CP:  7.58D-01  9.54D-01  1.25D+00  1.20D+00  1.18D+00
                    CP:  1.14D+00
 E= -823.906803551759     Delta-E=       -0.000000001911 Rises=F Damp=F
 DIIS: error= 1.06D-06 at cycle  12 NSaved=  12.
 NSaved=12 IEnMin=12 EnMin= -823.906803551759     IErMin=12 ErrMin= 1.06D-06
 ErrMax= 1.06D-06  0.00D+00 EMaxC= 1.00D-01 BMatC= 8.15D-10 BMatP= 2.87D-09
 IDIUse=1 WtCom= 1.00D+00 WtEn= 0.00D+00
 Coeff-Com: -0.887D-05 0.192D-04-0.355D-04 0.132D-04-0.166D-04-0.760D-03
 Coeff-Com: -0.695D-02-0.104D-01 0.164D-02 0.896D-01 0.426D+00 0.501D+00
 Coeff:     -0.887D-05 0.192D-04-0.355D-04 0.132D-04-0.166D-04-0.760D-03
 Coeff:     -0.695D-02-0.104D-01 0.164D-02 0.896D-01 0.426D+00 0.501D+00
 Gap=     0.119 Goal=   None    Shift=    0.000
 RMSDP=1.29D-07 MaxDP=9.81D-06 DE=-1.91D-09 OVMax= 1.05D-05

 Cycle  13  Pass 1  IDiag  1:
 RMSU=  5.24D-08    CP:  9.46D-01  8.89D-01  7.51D-01  4.22D-01  9.82D-01
                    CP:  7.58D-01  9.54D-01  1.26D+00  1.21D+00  1.20D+00
                    CP:  1.21D+00  1.02D+00
 E= -823.906803552552     Delta-E=       -0.000000000793 Rises=F Damp=F
 DIIS: error= 3.13D-07 at cycle  13 NSaved=  13.
 NSaved=13 IEnMin=13 EnMin= -823.906803552552     IErMin=13 ErrMin= 3.13D-07
 ErrMax= 3.13D-07  0.00D+00 EMaxC= 1.00D-01 BMatC= 5.79D-11 BMatP= 8.15D-10
 IDIUse=1 WtCom= 1.00D+00 WtEn= 0.00D+00
 Coeff-Com: -0.442D-05 0.970D-05 0.866D-05-0.806D-05 0.105D-03-0.285D-03
 Coeff-Com: -0.293D-02-0.458D-02-0.618D-02 0.151D-01 0.129D+00 0.253D+00
 Coeff-Com:  0.617D+00
 Coeff:     -0.442D-05 0.970D-05 0.866D-05-0.806D-05 0.105D-03-0.285D-03
 Coeff:     -0.293D-02-0.458D-02-0.618D-02 0.151D-01 0.129D+00 0.253D+00
 Coeff:      0.617D+00
 Gap=     0.119 Goal=   None    Shift=    0.000
 RMSDP=4.64D-08 MaxDP=4.05D-06 DE=-7.93D-10 OVMax= 2.83D-06

 Cycle  14  Pass 1  IDiag  1:
 RMSU=  1.55D-08    CP:  9.46D-01  8.89D-01  7.51D-01  4.22D-01  9.82D-01
                    CP:  7.58D-01  9.55D-01  1.26D+00  1.21D+00  1.21D+00
                    CP:  1.23D+00  1.11D+00  1.03D+00
 E= -823.906803552627     Delta-E=       -0.000000000074 Rises=F Damp=F
 DIIS: error= 1.40D-07 at cycle  14 NSaved=  14.
 NSaved=14 IEnMin=14 EnMin= -823.906803552627     IErMin=14 ErrMin= 1.40D-07
 ErrMax= 1.40D-07  0.00D+00 EMaxC= 1.00D-01 BMatC= 9.50D-12 BMatP= 5.79D-11
 IDIUse=1 WtCom= 1.00D+00 WtEn= 0.00D+00
 Coeff-Com: -0.126D-05 0.300D-05 0.108D-04-0.707D-05 0.609D-04-0.408D-04
 Coeff-Com: -0.482D-03-0.799D-03-0.372D-02-0.663D-02-0.142D-02 0.556D-01
 Coeff-Com:  0.335D+00 0.622D+00
 Coeff:     -0.126D-05 0.300D-05 0.108D-04-0.707D-05 0.609D-04-0.408D-04
 Coeff:     -0.482D-03-0.799D-03-0.372D-02-0.663D-02-0.142D-02 0.556D-01
 Coeff:      0.335D+00 0.622D+00
 Gap=     0.119 Goal=   None    Shift=    0.000
 RMSDP=2.15D-08 MaxDP=1.54D-06 DE=-7.41D-11 OVMax= 1.01D-06

 Cycle  15  Pass 1  IDiag  1:
 RMSU=  7.82D-09    CP:  9.46D-01  8.89D-01  7.51D-01  4.22D-01  9.82D-01
                    CP:  7.58D-01  9.55D-01  1.26D+00  1.22D+00  1.22D+00
                    CP:  1.25D+00  1.15D+00  1.10D+00  1.09D+00
 E= -823.906803552606     Delta-E=        0.000000000020 Rises=F Damp=F
 DIIS: error= 3.13D-08 at cycle  15 NSaved=  15.
 NSaved=15 IEnMin=14 EnMin= -823.906803552627     IErMin=15 ErrMin= 3.13D-08
 ErrMax= 3.13D-08  0.00D+00 EMaxC= 1.00D-01 BMatC= 5.77D-13 BMatP= 9.50D-12
 IDIUse=1 WtCom= 1.00D+00 WtEn= 0.00D+00
 Coeff-Com: -0.980D-07 0.180D-06 0.365D-05-0.167D-05 0.117D-04 0.940D-05
 Coeff-Com:  0.103D-03 0.159D-03-0.776D-03-0.386D-02-0.135D-01-0.454D-02
 Coeff-Com:  0.569D-01 0.238D+00 0.727D+00
 Coeff:     -0.980D-07 0.180D-06 0.365D-05-0.167D-05 0.117D-04 0.940D-05
 Coeff:      0.103D-03 0.159D-03-0.776D-03-0.386D-02-0.135D-01-0.454D-02
 Coeff:      0.569D-01 0.238D+00 0.727D+00
 Gap=     0.119 Goal=   None    Shift=    0.000
 RMSDP=7.06D-09 MaxDP=4.41D-07 DE= 2.05D-11 OVMax= 3.01D-07

 Error on total polarization charges =  0.04954
 SCF Done:  E(RM06L) =  -823.906803553     A.U. after   15 cycles
            NFock= 15  Conv=0.71D-08     -V/T= 2.0044
 KE= 8.203121005920D+02 PE=-4.782046539134D+03 EE= 1.704752641907D+03
 SMD-CDS (non-electrostatic) energy       (kcal/mol) =      -3.05
 (included in total energy above)
 Leave Link  502 at Tue Nov 23 15:05:12 2021, MaxMem=  5242880000 cpu:      5035.2
 (Enter /opt/nce/packages/global/g09/l601.exe)
 Copying SCF densities to generalized density rwf, IOpCl= 0 IROHF=0.

 **********************************************************************

            Population analysis using the SCF density.

 **********************************************************************

 Alpha  occ. eigenvalues --  -19.01342 -14.21596 -10.11197 -10.11196 -10.09932
 Alpha  occ. eigenvalues --  -10.09932 -10.09099 -10.05364 -10.05327 -10.05295
 Alpha  occ. eigenvalues --  -10.05270 -10.05186 -10.04900 -10.04900 -10.04845
 Alpha  occ. eigenvalues --  -10.04845 -10.04609 -10.04608 -10.04453 -10.04453
 Alpha  occ. eigenvalues --   -1.05310  -0.94166  -0.83122  -0.82596  -0.80192
 Alpha  occ. eigenvalues --   -0.72923  -0.72746  -0.72460  -0.71854  -0.69960
 Alpha  occ. eigenvalues --   -0.67227  -0.60936  -0.60668  -0.57865  -0.56668
 Alpha  occ. eigenvalues --   -0.55605  -0.53132  -0.52943  -0.49808  -0.46448
 Alpha  occ. eigenvalues --   -0.45970  -0.44065  -0.43445  -0.43198  -0.43074
 Alpha  occ. eigenvalues --   -0.41321  -0.40116  -0.40051  -0.39578  -0.39365
 Alpha  occ. eigenvalues --   -0.38757  -0.35592  -0.34736  -0.34610  -0.34456
 Alpha  occ. eigenvalues --   -0.33712  -0.32934  -0.32192  -0.32077  -0.31369
 Alpha  occ. eigenvalues --   -0.29751  -0.29314  -0.24516  -0.23977  -0.23954
 Alpha  occ. eigenvalues --   -0.23530  -0.21375  -0.16341
 Alpha virt. eigenvalues --   -0.04433  -0.03917  -0.03506  -0.02821  -0.02478
 Alpha virt. eigenvalues --    0.00433   0.04945   0.05662   0.06822   0.08362
 Alpha virt. eigenvalues --    0.08810   0.09288   0.10055   0.10137   0.10976
 Alpha virt. eigenvalues --    0.11161   0.11859   0.12274   0.12317   0.12516
 Alpha virt. eigenvalues --    0.12612   0.13853   0.14508   0.14915   0.15489
 Alpha virt. eigenvalues --    0.17955   0.18801   0.19752   0.19792   0.20595
 Alpha virt. eigenvalues --    0.20805   0.21242   0.21551   0.22280   0.22416
 Alpha virt. eigenvalues --    0.22673   0.22982   0.23090   0.23421   0.24019
 Alpha virt. eigenvalues --    0.24114   0.25068   0.25546   0.26015   0.26561
 Alpha virt. eigenvalues --    0.26584   0.27179   0.27306   0.27569   0.28348
 Alpha virt. eigenvalues --    0.29022   0.29193   0.31273   0.31330   0.31509
 Alpha virt. eigenvalues --    0.31593   0.32148   0.32469   0.33086   0.33122
 Alpha virt. eigenvalues --    0.34022   0.34161   0.34723   0.34833   0.35261
 Alpha virt. eigenvalues --    0.35577   0.35721   0.36969   0.37107   0.37866
 Alpha virt. eigenvalues --    0.37883   0.38590   0.38900   0.39763   0.39910
 Alpha virt. eigenvalues --    0.40385   0.41098   0.41176   0.41950   0.42053
 Alpha virt. eigenvalues --    0.42705   0.43138   0.43262   0.43950   0.44142
 Alpha virt. eigenvalues --    0.44402   0.44824   0.45687   0.47155   0.47307
 Alpha virt. eigenvalues --    0.47509   0.47903   0.48302   0.49655   0.49724
 Alpha virt. eigenvalues --    0.49879   0.49997   0.50320   0.51687   0.52360
 Alpha virt. eigenvalues --    0.53242   0.54261   0.54635   0.55431   0.55935
 Alpha virt. eigenvalues --    0.56860   0.58410   0.59128   0.60562   0.61394
 Alpha virt. eigenvalues --    0.62736   0.63595   0.63774   0.64819   0.65088
 Alpha virt. eigenvalues --    0.65786   0.66277   0.66736   0.67103   0.67500
 Alpha virt. eigenvalues --    0.67842   0.68242   0.68299   0.69420   0.69775
 Alpha virt. eigenvalues --    0.70393   0.71315   0.71638   0.72367   0.72543
 Alpha virt. eigenvalues --    0.72869   0.74138   0.74832   0.75129   0.75448
 Alpha virt. eigenvalues --    0.76199   0.77203   0.77602   0.78658   0.79461
 Alpha virt. eigenvalues --    0.80023   0.80408   0.80632   0.82741   0.83205
 Alpha virt. eigenvalues --    0.83732   0.84828   0.85317   0.87363   0.87392
 Alpha virt. eigenvalues --    0.87613   0.88024   0.88373   0.89060   0.90550
 Alpha virt. eigenvalues --    0.91042   0.91046   0.91476   0.92996   0.93371
 Alpha virt. eigenvalues --    0.95055   0.96183   0.96392   1.00582   1.01227
 Alpha virt. eigenvalues --    1.01489   1.03193   1.04316   1.04488   1.05746
 Alpha virt. eigenvalues --    1.07386   1.08595   1.09340   1.10230   1.11182
 Alpha virt. eigenvalues --    1.12259   1.12848   1.13401   1.14696   1.14993
 Alpha virt. eigenvalues --    1.15426   1.16218   1.16886   1.18448   1.18745
 Alpha virt. eigenvalues --    1.19136   1.21306   1.22539   1.23105   1.23984
 Alpha virt. eigenvalues --    1.23994   1.24688   1.25693   1.26474   1.26916
 Alpha virt. eigenvalues --    1.27323   1.27827   1.28211   1.28880   1.31038
 Alpha virt. eigenvalues --    1.31158   1.32494   1.32881   1.34482   1.34979
 Alpha virt. eigenvalues --    1.35131   1.36670   1.38479   1.40720   1.41186
 Alpha virt. eigenvalues --    1.41619   1.42133   1.44033   1.44848   1.45556
 Alpha virt. eigenvalues --    1.46713   1.47133   1.47296   1.48016   1.48112
 Alpha virt. eigenvalues --    1.50846   1.50991   1.52104   1.52311   1.53459
 Alpha virt. eigenvalues --    1.53822   1.54615   1.54883   1.56540   1.57263
 Alpha virt. eigenvalues --    1.59071   1.59228   1.60621   1.60896   1.61565
 Alpha virt. eigenvalues --    1.62440   1.63210   1.63431   1.65125   1.65541
 Alpha virt. eigenvalues --    1.66053   1.67639   1.68110   1.69179   1.69522
 Alpha virt. eigenvalues --    1.70051   1.70057   1.70646   1.71230   1.71604
 Alpha virt. eigenvalues --    1.73987   1.74434   1.74866   1.75075   1.75210
 Alpha virt. eigenvalues --    1.76216   1.77129   1.78106   1.78353   1.79269
 Alpha virt. eigenvalues --    1.80203   1.81276   1.84618   1.86473   1.88095
 Alpha virt. eigenvalues --    1.89068   1.89768   1.90993   1.91452   1.93575
 Alpha virt. eigenvalues --    1.95327   1.95815   1.95857   1.96473   1.99280
 Alpha virt. eigenvalues --    1.99484   2.01052   2.02738   2.02884   2.04648
 Alpha virt. eigenvalues --    2.05678   2.06718   2.07225   2.08026   2.08432
 Alpha virt. eigenvalues --    2.10970   2.11119   2.12764   2.13079   2.13123
 Alpha virt. eigenvalues --    2.14905   2.16395   2.16640   2.18069   2.19451
 Alpha virt. eigenvalues --    2.19846   2.20869   2.21627   2.22177   2.23480
 Alpha virt. eigenvalues --    2.23750   2.24497   2.24904   2.25671   2.26236
 Alpha virt. eigenvalues --    2.28197   2.29091   2.30345   2.33368   2.36680
 Alpha virt. eigenvalues --    2.37559   2.39732   2.41371   2.43757   2.44130
 Alpha virt. eigenvalues --    2.44403   2.50121   2.50741   2.51560   2.52539
 Alpha virt. eigenvalues --    2.54002   2.54877   2.55043   2.56824   2.56960
 Alpha virt. eigenvalues --    2.58654   2.59327   2.60368   2.61748   2.62059
 Alpha virt. eigenvalues --    2.62763   2.64051   2.64162   2.65597   2.66128
 Alpha virt. eigenvalues --    2.67210   2.68443   2.68555   2.69756   2.70266
 Alpha virt. eigenvalues --    2.70852   2.71045   2.71945   2.72956   2.73774
 Alpha virt. eigenvalues --    2.74244   2.74724   2.75634   2.75703   2.76452
 Alpha virt. eigenvalues --    2.76507   2.76772   2.77123   2.77921   2.78369
 Alpha virt. eigenvalues --    2.78918   2.79954   2.80126   2.81236   2.81544
 Alpha virt. eigenvalues --    2.81957   2.82178   2.83727   2.83973   2.84355
 Alpha virt. eigenvalues --    2.85171   2.86159   2.86559   2.87153   2.88579
 Alpha virt. eigenvalues --    2.90348   2.91003   2.91966   2.92199   2.92341
 Alpha virt. eigenvalues --    2.92837   2.93055   2.94078   2.94222   2.94773
 Alpha virt. eigenvalues --    2.95952   2.96423   2.97053   2.98409   2.98791
 Alpha virt. eigenvalues --    2.99849   3.00789   3.01633   3.01681   3.04428
 Alpha virt. eigenvalues --    3.04882   3.06013   3.06619   3.07919   3.08125
 Alpha virt. eigenvalues --    3.09187   3.10530   3.11878   3.12610   3.13127
 Alpha virt. eigenvalues --    3.14667   3.15332   3.16486   3.16998   3.17143
 Alpha virt. eigenvalues --    3.19297   3.19314   3.19605   3.19674   3.20208
 Alpha virt. eigenvalues --    3.21277   3.21371   3.21927   3.22529   3.22937
 Alpha virt. eigenvalues --    3.22969   3.24375   3.24733   3.24757   3.25960
 Alpha virt. eigenvalues --    3.27906   3.28797   3.29535   3.30194   3.30843
 Alpha virt. eigenvalues --    3.32616   3.32904   3.33321   3.34517   3.34959
 Alpha virt. eigenvalues --    3.36302   3.36558   3.37620   3.37910   3.38192
 Alpha virt. eigenvalues --    3.40016   3.40532   3.40606   3.41223   3.41775
 Alpha virt. eigenvalues --    3.42473   3.43091   3.43899   3.44310   3.45419
 Alpha virt. eigenvalues --    3.46080   3.46278   3.47578   3.48198   3.48871
 Alpha virt. eigenvalues --    3.49213   3.50720   3.52174   3.52295   3.52653
 Alpha virt. eigenvalues --    3.53756   3.53879   3.54530   3.54873   3.55415
 Alpha virt. eigenvalues --    3.56081   3.56943   3.58111   3.58893   3.59003
 Alpha virt. eigenvalues --    3.60653   3.60737   3.61615   3.62547   3.64308
 Alpha virt. eigenvalues --    3.64789   3.66607   3.67681   3.67792   3.68098
 Alpha virt. eigenvalues --    3.70266   3.71196   3.72105   3.75488   3.76303
 Alpha virt. eigenvalues --    3.76574   3.77942   3.78165   3.82511   3.83850
 Alpha virt. eigenvalues --    3.84473   3.87319   3.88019   3.88747   3.90613
 Alpha virt. eigenvalues --    3.91585   3.92185   3.93605   3.94040   3.94320
 Alpha virt. eigenvalues --    3.96811   3.97794   3.98846   4.00898   4.05276
 Alpha virt. eigenvalues --    4.05754   4.09040   4.09385   4.11313   4.12776
 Alpha virt. eigenvalues --    4.14228   4.14925   4.16740   4.16775   4.17401
 Alpha virt. eigenvalues --    4.18420   4.20283   4.20732   4.21194   4.23391
 Alpha virt. eigenvalues --    4.27243   4.27586   4.28199   4.29482   4.30831
 Alpha virt. eigenvalues --    4.31012   4.31690   4.33391   4.33708   4.34578
 Alpha virt. eigenvalues --    4.34998   4.35387   4.35875   4.36364   4.37361
 Alpha virt. eigenvalues --    4.38535   4.38880   4.39782   4.41299   4.41846
 Alpha virt. eigenvalues --    4.43526   4.44225   4.49400   4.51464   4.52543
 Alpha virt. eigenvalues --    4.53766   4.55500   4.58219   4.61745   4.67628
 Alpha virt. eigenvalues --    4.68235   4.71433   4.73547   4.74389   4.77144
 Alpha virt. eigenvalues --    4.77280   4.79497   4.81668   4.82450   4.83833
 Alpha virt. eigenvalues --    4.84930   4.87305   4.88171   4.89072   4.94907
 Alpha virt. eigenvalues --    4.95710   4.97262   4.97990   5.01185   5.04318
 Alpha virt. eigenvalues --    5.06316   5.10132   5.10239   5.11810   5.13743
 Alpha virt. eigenvalues --    5.15422   5.18432   5.20583   5.21619   5.24921
 Alpha virt. eigenvalues --    5.25629   5.28529   5.34114   5.36189   5.38603
 Alpha virt. eigenvalues --    5.40424   5.43497   5.46423   5.49907   5.51541
 Alpha virt. eigenvalues --    5.55225   5.57302   5.60838   5.68114   5.69455
 Alpha virt. eigenvalues --    5.71124   5.71490   5.72838   5.79275   5.95871
 Alpha virt. eigenvalues --    5.97818   6.00899   6.02546   6.17029   6.19992
 Alpha virt. eigenvalues --    6.27501   6.30028   6.31293   6.57876   6.82747
 Alpha virt. eigenvalues --    6.88261   7.03405   7.07392   7.56684   7.65429
 Alpha virt. eigenvalues --   22.23611  22.38558  22.39022  22.69390  22.71440
 Alpha virt. eigenvalues --   22.71512  22.75311  22.80247  22.81028  22.87932
 Alpha virt. eigenvalues --   22.95264  22.96634  23.01076  23.02513  23.11375
 Alpha virt. eigenvalues --   23.37421  23.45100  23.59709  33.41859  44.63101
          Condensed to atoms (all electrons):
               1          2          3          4          5          6
     1  C    5.059645   0.347968   0.025255  -0.068196   0.054033   0.350211
     2  C    0.347968   5.288203   0.271782   0.041289  -0.070361   0.046565
     3  C    0.025255   0.271782   5.093202   0.269929   0.001757  -0.081891
     4  C   -0.068196   0.041289   0.269929   4.925114   0.395317   0.053015
     5  C    0.054033  -0.070361   0.001757   0.395317   5.157440   0.311635
     6  C    0.350211   0.046565  -0.081891   0.053015   0.311635   5.044892
     7  C    0.000014   0.004467   0.001722  -0.069680   0.006108  -0.001559
     8  C    0.000396   0.005777  -0.096107   0.001722   0.002736  -0.000510
     9  C    0.000001  -0.002124   0.005776   0.004467  -0.000782   0.000038
    10  H    0.000001  -0.000200  -0.000352   0.000040   0.000013  -0.000002
    11  C    0.000024   0.000001   0.000396   0.000014   0.000148  -0.000014
    12  C   -0.000014   0.000038  -0.000510  -0.001559  -0.000265   0.000025
    13  C    0.000148  -0.000782   0.002736   0.006110   0.002415  -0.000265
    14  H   -0.013058   0.432768  -0.061005   0.001145  -0.000344   0.004043
    15  H    0.011918  -0.006175   0.020080  -0.083716   0.463648  -0.056164
    16  H    0.000000   0.000000   0.000028  -0.000007   0.000000  -0.000000
    17  N    0.003758  -0.053694   0.382638  -0.026757  -0.002555   0.000909
    18  C   -0.006289  -0.003133  -0.050881   0.003219  -0.002413   0.000016
    19  C    0.000844  -0.045267   0.012118   0.005649   0.000090  -0.000205
    20  C   -0.000811  -0.028960   0.009027   0.002341   0.000570  -0.000209
    21  C    0.000351   0.002526  -0.005244  -0.000544  -0.000057   0.000052
    22  C    0.000150   0.004601  -0.003174  -0.000397   0.000028  -0.000014
    23  H   -0.000022  -0.001283   0.000487   0.000181   0.000024  -0.000008
    24  C   -0.000103  -0.002859   0.001704   0.000096   0.000008  -0.000006
    25  H   -0.000002   0.000090  -0.000036  -0.000001  -0.000000   0.000000
    26  H   -0.000000  -0.000020   0.000017   0.000000   0.000000  -0.000000
    27  H    0.000011  -0.000044   0.000214  -0.000399   0.000361  -0.000021
    28  H    0.469495  -0.067330   0.012732  -0.003519   0.011879  -0.068579
    29  O   -0.000476   0.003616  -0.086175   0.240038  -0.030980   0.003292
    30  H   -0.000000   0.000001  -0.000005   0.000017  -0.000003   0.000000
    31  H   -0.079494   0.016084  -0.005947   0.015546  -0.078528   0.484512
    32  H   -0.000002   0.000067  -0.000048  -0.000002   0.000000   0.000000
    33  H   -0.000178  -0.000947   0.003183   0.000536   0.000049  -0.000060
               7          8          9         10         11         12
     1  C    0.000014   0.000396   0.000001   0.000001   0.000024  -0.000014
     2  C    0.004467   0.005777  -0.002124  -0.000200   0.000001   0.000038
     3  C    0.001722  -0.096107   0.005776  -0.000352   0.000396  -0.000510
     4  C   -0.069680   0.001722   0.004467   0.000040   0.000014  -0.001559
     5  C    0.006108   0.002736  -0.000782   0.000013   0.000148  -0.000265
     6  C   -0.001559  -0.000510   0.000038  -0.000002  -0.000014   0.000025
     7  C    4.925120   0.269922   0.041314   0.001146  -0.068211   0.053028
     8  C    0.269922   5.093214   0.271760  -0.061003   0.025269  -0.081901
     9  C    0.041314   0.271760   5.288245   0.432770   0.347930   0.046590
    10  H    0.001146  -0.061003   0.432770   0.514339  -0.013058   0.004043
    11  C   -0.068211   0.025269   0.347930  -0.013058   5.059675   0.350183
    12  C    0.053028  -0.081901   0.046590   0.004043   0.350183   5.044908
    13  C    0.395293   0.001775  -0.070381  -0.000345   0.054054   0.311610
    14  H    0.000040  -0.000352  -0.000199  -0.000012   0.000001  -0.000002
    15  H   -0.000400   0.000214  -0.000044   0.000000   0.000011  -0.000021
    16  H   -0.003520   0.012734  -0.067337  -0.002432   0.469503  -0.068582
    17  N   -0.026752   0.382632  -0.053692  -0.003748   0.003757   0.000910
    18  C    0.003212  -0.050896  -0.003139   0.012538  -0.006288   0.000016
    19  C    0.005651   0.012130  -0.045271  -0.012807   0.000847  -0.000206
    20  C    0.002339   0.009019  -0.028945  -0.007382  -0.000811  -0.000208
    21  C   -0.000544  -0.005246   0.002525   0.001086   0.000351   0.000052
    22  C   -0.000397  -0.003174   0.004600   0.001669   0.000150  -0.000014
    23  H    0.000180   0.000486  -0.001282  -0.000073  -0.000022  -0.000008
    24  C    0.000096   0.001704  -0.002858  -0.001295  -0.000103  -0.000006
    25  H   -0.000001  -0.000036   0.000090   0.000008  -0.000002   0.000000
    26  H    0.000000   0.000017  -0.000020  -0.000005  -0.000000  -0.000000
    27  H   -0.083717   0.020080  -0.006175   0.000024   0.011919  -0.056165
    28  H   -0.000007   0.000028   0.000000   0.000000   0.000000  -0.000000
    29  O    0.240037  -0.086179   0.003616  -0.000067  -0.000476   0.003292
    30  H    0.015548  -0.005947   0.016086  -0.000100  -0.079498   0.484519
    31  H    0.000017  -0.000005   0.000001   0.000000  -0.000000   0.000000
    32  H   -0.000002  -0.000048   0.000067   0.000002  -0.000002   0.000000
    33  H    0.000536   0.003183  -0.000948  -0.000086  -0.000178  -0.000060
              13         14         15         16         17         18
     1  C    0.000148  -0.013058   0.011918   0.000000   0.003758  -0.006289
     2  C   -0.000782   0.432768  -0.006175   0.000000  -0.053694  -0.003133
     3  C    0.002736  -0.061005   0.020080   0.000028   0.382638  -0.050881
     4  C    0.006110   0.001145  -0.083716  -0.000007  -0.026757   0.003219
     5  C    0.002415  -0.000344   0.463648   0.000000  -0.002555  -0.002413
     6  C   -0.000265   0.004043  -0.056164  -0.000000   0.000909   0.000016
     7  C    0.395293   0.000040  -0.000400  -0.003520  -0.026752   0.003212
     8  C    0.001775  -0.000352   0.000214   0.012734   0.382632  -0.050896
     9  C   -0.070381  -0.000199  -0.000044  -0.067337  -0.053692  -0.003139
    10  H   -0.000345  -0.000012   0.000000  -0.002432  -0.003748   0.012538
    11  C    0.054054   0.000001   0.000011   0.469503   0.003757  -0.006288
    12  C    0.311610  -0.000002  -0.000021  -0.068582   0.000910   0.000016
    13  C    5.157468   0.000013   0.000361   0.011881  -0.002556  -0.002413
    14  H    0.000013   0.514339   0.000024   0.000000  -0.003749   0.012541
    15  H    0.000361   0.000024   0.551856   0.000000  -0.000035   0.000030
    16  H    0.011881   0.000000   0.000000   0.558114  -0.000151   0.000211
    17  N   -0.002556  -0.003749  -0.000035  -0.000151   6.755374  -0.020463
    18  C   -0.002413   0.012541   0.000030   0.000211  -0.020463   5.630164
    19  C    0.000090  -0.012801  -0.000005   0.000063  -0.079717   0.253693
    20  C    0.000569  -0.007386  -0.000002   0.000022  -0.050308   0.204241
    21  C   -0.000057   0.001087   0.000000  -0.000006   0.016672   0.102043
    22  C    0.000028   0.001669   0.000000   0.000002   0.011041   0.039328
    23  H    0.000024  -0.000073  -0.000000   0.000002  -0.001102  -0.071540
    24  C    0.000008  -0.001295  -0.000000   0.000001  -0.002401  -0.185121
    25  H   -0.000000   0.000008  -0.000000  -0.000000  -0.000420   0.019214
    26  H    0.000000  -0.000005  -0.000000   0.000000   0.000017  -0.004425
    27  H    0.463651   0.000000   0.000141  -0.000053  -0.000035   0.000030
    28  H    0.000000  -0.002432  -0.000053  -0.000000  -0.000151   0.000211
    29  O   -0.030979  -0.000067   0.003573   0.000015  -0.008803  -0.001836
    30  H   -0.078533   0.000000  -0.000000  -0.005059   0.000019  -0.000007
    31  H   -0.000003  -0.000100  -0.005199   0.000000   0.000019  -0.000007
    32  H    0.000000   0.000002   0.000000   0.000000  -0.000096   0.013141
    33  H    0.000049  -0.000086  -0.000000   0.000005  -0.016328  -0.066302
              19         20         21         22         23         24
     1  C    0.000844  -0.000811   0.000351   0.000150  -0.000022  -0.000103
     2  C   -0.045267  -0.028960   0.002526   0.004601  -0.001283  -0.002859
     3  C    0.012118   0.009027  -0.005244  -0.003174   0.000487   0.001704
     4  C    0.005649   0.002341  -0.000544  -0.000397   0.000181   0.000096
     5  C    0.000090   0.000570  -0.000057   0.000028   0.000024   0.000008
     6  C   -0.000205  -0.000209   0.000052  -0.000014  -0.000008  -0.000006
     7  C    0.005651   0.002339  -0.000544  -0.000397   0.000180   0.000096
     8  C    0.012130   0.009019  -0.005246  -0.003174   0.000486   0.001704
     9  C   -0.045271  -0.028945   0.002525   0.004600  -0.001282  -0.002858
    10  H   -0.012807  -0.007382   0.001086   0.001669  -0.000073  -0.001295
    11  C    0.000847  -0.000811   0.000351   0.000150  -0.000022  -0.000103
    12  C   -0.000206  -0.000208   0.000052  -0.000014  -0.000008  -0.000006
    13  C    0.000090   0.000569  -0.000057   0.000028   0.000024   0.000008
    14  H   -0.012801  -0.007386   0.001087   0.001669  -0.000073  -0.001295
    15  H   -0.000005  -0.000002   0.000000   0.000000  -0.000000  -0.000000
    16  H    0.000063   0.000022  -0.000006   0.000002   0.000002   0.000001
    17  N   -0.079717  -0.050308   0.016672   0.011041  -0.001102  -0.002401
    18  C    0.253693   0.204241   0.102043   0.039328  -0.071540  -0.185121
    19  C    5.398702   0.204438   0.167065  -0.110327   0.014955   0.164672
    20  C    0.204438   5.248053  -0.152881   0.273134   0.473842   0.152957
    21  C    0.167065  -0.152881   5.162457   0.093643  -0.006295   0.224196
    22  C   -0.110327   0.273134   0.093643   5.029139  -0.054054   0.253720
    23  H    0.014955   0.473842  -0.006295  -0.054054   0.541087   0.013748
    24  C    0.164672   0.152957   0.224196   0.253720   0.013748   5.140997
    25  H   -0.006772  -0.075501   0.014916   0.481551  -0.005423  -0.077107
    26  H    0.013038   0.011200  -0.069286  -0.068925  -0.000041   0.473961
    27  H   -0.000005  -0.000002   0.000000   0.000000  -0.000000  -0.000000
    28  H    0.000063   0.000022  -0.000006   0.000002   0.000002   0.000001
    29  O    0.000095   0.000375  -0.000002  -0.000014   0.000058   0.000002
    30  H    0.000001   0.000001  -0.000000  -0.000000   0.000000   0.000000
    31  H    0.000001   0.000001  -0.000000  -0.000000   0.000000   0.000000
    32  H   -0.068748  -0.004492   0.470572   0.011316   0.000025  -0.067334
    33  H    0.486195   0.015928  -0.062178  -0.005576   0.000064   0.013621
              25         26         27         28         29         30
     1  C   -0.000002  -0.000000   0.000011   0.469495  -0.000476  -0.000000
     2  C    0.000090  -0.000020  -0.000044  -0.067330   0.003616   0.000001
     3  C   -0.000036   0.000017   0.000214   0.012732  -0.086175  -0.000005
     4  C   -0.000001   0.000000  -0.000399  -0.003519   0.240038   0.000017
     5  C   -0.000000   0.000000   0.000361   0.011879  -0.030980  -0.000003
     6  C    0.000000  -0.000000  -0.000021  -0.068579   0.003292   0.000000
     7  C   -0.000001   0.000000  -0.083717  -0.000007   0.240037   0.015548
     8  C   -0.000036   0.000017   0.020080   0.000028  -0.086179  -0.005947
     9  C    0.000090  -0.000020  -0.006175   0.000000   0.003616   0.016086
    10  H    0.000008  -0.000005   0.000024   0.000000  -0.000067  -0.000100
    11  C   -0.000002  -0.000000   0.011919   0.000000  -0.000476  -0.079498
    12  C    0.000000  -0.000000  -0.056165  -0.000000   0.003292   0.484519
    13  C   -0.000000   0.000000   0.463651   0.000000  -0.030979  -0.078533
    14  H    0.000008  -0.000005   0.000000  -0.002432  -0.000067   0.000000
    15  H   -0.000000  -0.000000   0.000141  -0.000053   0.003573  -0.000000
    16  H   -0.000000   0.000000  -0.000053  -0.000000   0.000015  -0.005059
    17  N   -0.000420   0.000017  -0.000035  -0.000151  -0.008803   0.000019
    18  C    0.019214  -0.004425   0.000030   0.000211  -0.001836  -0.000007
    19  C   -0.006772   0.013038  -0.000005   0.000063   0.000095   0.000001
[...]
 Alpha virt. eigenvalues --   22.74776  22.75650  22.81583  22.82904  22.86803
 Alpha virt. eigenvalues --   22.96490  23.00274  23.03936  23.04921  23.19572
 Alpha virt. eigenvalues --   23.37912  23.51465  23.65620  33.47533  44.72291
          Condensed to atoms (all electrons):
               1          2          3          4          5          6
     1  C    5.083291   0.334814   0.031676  -0.072671   0.060001   0.340199
     2  C    0.334814   5.326581   0.256685   0.028968  -0.076871   0.051476
     3  C    0.031676   0.256685   5.140320   0.239265   0.015028  -0.087568
     4  C   -0.072671   0.028968   0.239265   4.897431   0.420588   0.043234
     5  C    0.060001  -0.076871   0.015028   0.420588   5.135553   0.325316
     6  C    0.340199   0.051476  -0.087568   0.043234   0.325316   5.033846
     7  C   -0.001497   0.011650   0.023229  -0.092885  -0.003855   0.000258
     8  C    0.001263   0.001082  -0.107227   0.023229   0.007267  -0.001161
     9  C    0.000054  -0.004425   0.001082   0.011650  -0.000440   0.000022
    10  H   -0.000001  -0.000214  -0.000513   0.000091   0.000010  -0.000002
    11  C    0.000023   0.000054   0.001263  -0.001497   0.000053  -0.000010
    12  C   -0.000010   0.000022  -0.001161   0.000258  -0.000025   0.000005
    13  C    0.000053  -0.000440   0.007267  -0.003855  -0.000299  -0.000025
    14  H   -0.013597   0.432860  -0.061591   0.001562  -0.000566   0.004332
    15  H    0.011855  -0.006016   0.020446  -0.081008   0.460719  -0.055332
    16  H   -0.000000   0.000001   0.000038  -0.000018  -0.000000  -0.000000
    17  N    0.003884  -0.048040   0.391156  -0.027747  -0.003528   0.001174
    18  C   -0.006300  -0.011985  -0.058311   0.011415  -0.001319  -0.000503
    19  C   -0.000644  -0.041940   0.016353   0.004631   0.000165  -0.000111
    20  C   -0.000657  -0.041645   0.016580   0.004579   0.000154  -0.000105
    21  C    0.000352   0.004289  -0.004828  -0.000604   0.000027  -0.000011
    22  C    0.000347   0.004325  -0.004794  -0.000601   0.000026  -0.000011
    23  H   -0.000147  -0.001369   0.002140   0.000477  -0.000023   0.000001
    24  C   -0.000151  -0.003363   0.002049   0.000135  -0.000002   0.000002
    25  H   -0.000001   0.000096  -0.000052  -0.000001   0.000000   0.000000
    26  H   -0.000001  -0.000023   0.000018   0.000000  -0.000000  -0.000000
    27  H    0.000011  -0.000051   0.000210  -0.000334   0.000323  -0.000018
    28  H    0.474223  -0.070293   0.014355  -0.003539   0.012002  -0.070624
    29  O    0.000767   0.001013  -0.095277   0.241524  -0.021933   0.000512
    30  H   -0.000000   0.000001  -0.000009   0.000033  -0.000002   0.000000
    31  H   -0.082583   0.016755  -0.006512   0.017632  -0.083934   0.491315
    32  H   -0.000001   0.000096  -0.000052  -0.000001   0.000000   0.000000
    33  H   -0.000149  -0.001370   0.002141   0.000489  -0.000023   0.000002
               7          8          9         10         11         12
     1  C   -0.001497   0.001263   0.000054  -0.000001   0.000023  -0.000010
     2  C    0.011650   0.001082  -0.004425  -0.000214   0.000054   0.000022
     3  C    0.023229  -0.107227   0.001082  -0.000513   0.001263  -0.001161
     4  C   -0.092885   0.023229   0.011650   0.000091  -0.001497   0.000258
     5  C   -0.003855   0.007267  -0.000440   0.000010   0.000053  -0.000025
     6  C    0.000258  -0.001161   0.000022  -0.000002  -0.000010   0.000005
     7  C    4.897431   0.239265   0.028968   0.001562  -0.072671   0.043234
     8  C    0.239265   5.140322   0.256685  -0.061591   0.031676  -0.087568
     9  C    0.028968   0.256685   5.326580   0.432860   0.334813   0.051476
    10  H    0.001562  -0.061591   0.432860   0.515236  -0.013597   0.004332
    11  C   -0.072671   0.031676   0.334813  -0.013597   5.083292   0.340199
    12  C    0.043234  -0.087568   0.051476   0.004332   0.340199   5.033846
    13  C    0.420588   0.015028  -0.076871  -0.000566   0.060001   0.325317
    14  H    0.000091  -0.000513  -0.000214  -0.000010  -0.000001  -0.000002
    15  H   -0.000334   0.000210  -0.000051   0.000000   0.000011  -0.000018
    16  H   -0.003539   0.014355  -0.070293  -0.002641   0.474224  -0.070624
    17  N   -0.027746   0.391155  -0.048040  -0.005052   0.003884   0.001174
    18  C    0.011415  -0.058311  -0.011986   0.015090  -0.006300  -0.000503
    19  C    0.004635   0.016369  -0.041955  -0.009948  -0.000642  -0.000111
    20  C    0.004575   0.016564  -0.041629  -0.010011  -0.000658  -0.000105
    21  C   -0.000604  -0.004830   0.004288   0.001388   0.000352  -0.000011
    22  C   -0.000601  -0.004792   0.004326   0.001383   0.000347  -0.000011
    23  H    0.000476   0.002137  -0.001368  -0.000011  -0.000147   0.000001
    24  C    0.000135   0.002049  -0.003362  -0.001302  -0.000151   0.000002
    25  H   -0.000001  -0.000052   0.000096   0.000008  -0.000001   0.000000
    26  H    0.000000   0.000018  -0.000023  -0.000005  -0.000001  -0.000000
    27  H   -0.081008   0.020446  -0.006016   0.000024   0.011855  -0.055332
    28  H   -0.000018   0.000038   0.000001   0.000000  -0.000000  -0.000000
    29  O    0.241525  -0.095278   0.001013  -0.000079   0.000767   0.000512
    30  H    0.017632  -0.006512   0.016755  -0.000092  -0.082583   0.491315
    31  H    0.000033  -0.000009   0.000001   0.000000  -0.000000   0.000000
    32  H   -0.000001  -0.000052   0.000096   0.000008  -0.000001   0.000000
    33  H    0.000489   0.002143  -0.001372  -0.000007  -0.000149   0.000002
              13         14         15         16         17         18
     1  C    0.000053  -0.013597   0.011855  -0.000000   0.003884  -0.006300
     2  C   -0.000440   0.432860  -0.006016   0.000001  -0.048040  -0.011985
     3  C    0.007267  -0.061591   0.020446   0.000038   0.391156  -0.058311
     4  C   -0.003855   0.001562  -0.081008  -0.000018  -0.027747   0.011415
     5  C   -0.000299  -0.000566   0.460719  -0.000000  -0.003528  -0.001319
     6  C   -0.000025   0.004332  -0.055332  -0.000000   0.001174  -0.000503
     7  C    0.420588   0.000091  -0.000334  -0.003539  -0.027746   0.011415
     8  C    0.015028  -0.000513   0.000210   0.014355   0.391155  -0.058311
     9  C   -0.076871  -0.000214  -0.000051  -0.070293  -0.048040  -0.011986
    10  H   -0.000566  -0.000010   0.000000  -0.002641  -0.005052   0.015090
    11  C    0.060001  -0.000001   0.000011   0.474224   0.003884  -0.006300
    12  C    0.325317  -0.000002  -0.000018  -0.070624   0.001174  -0.000503
    13  C    5.135553   0.000010   0.000323   0.012002  -0.003528  -0.001319
    14  H    0.000010   0.515236   0.000024   0.000000  -0.005052   0.015090
    15  H    0.000323   0.000024   0.551844   0.000000  -0.000003   0.000043
    16  H    0.012002   0.000000   0.000000   0.561806  -0.000169   0.000273
    17  N   -0.003528  -0.005052  -0.000003  -0.000169   6.744028  -0.029785
    18  C   -0.001319   0.015090   0.000043   0.000273  -0.029785   5.563112
    19  C    0.000165  -0.009942  -0.000005   0.000028  -0.083750   0.311851
    20  C    0.000154  -0.010017  -0.000005   0.000028  -0.083741   0.311965
    21  C    0.000027   0.001388   0.000000   0.000003   0.017200   0.029262
    22  C    0.000026   0.001383   0.000000   0.000003   0.017243   0.029438
    23  H   -0.000023  -0.000011  -0.000001   0.000002  -0.011204  -0.061316
    24  C   -0.000002  -0.001302  -0.000000  -0.000000  -0.004112  -0.152011
    25  H    0.000000   0.000008   0.000000   0.000000  -0.000215   0.014774
    26  H   -0.000000  -0.000005  -0.000000   0.000000   0.000009  -0.003911
    27  H    0.460719   0.000000   0.000144  -0.000059  -0.000003   0.000043
    28  H   -0.000000  -0.002641  -0.000059  -0.000000  -0.000169   0.000273
    29  O   -0.021933  -0.000079   0.004314   0.000021  -0.008318  -0.002985
    30  H   -0.083934   0.000000  -0.000000  -0.005245   0.000018  -0.000013
    31  H   -0.000002  -0.000092  -0.005636   0.000000   0.000018  -0.000013
    32  H    0.000000   0.000008   0.000000   0.000000  -0.000214   0.014783
    33  H   -0.000023  -0.000007  -0.000001   0.000002  -0.011236  -0.061444
              19         20         21         22         23         24
     1  C   -0.000644  -0.000657   0.000352   0.000347  -0.000147  -0.000151
     2  C   -0.041940  -0.041645   0.004289   0.004325  -0.001369  -0.003363
     3  C    0.016353   0.016580  -0.004828  -0.004794   0.002140   0.002049
     4  C    0.004631   0.004579  -0.000604  -0.000601   0.000477   0.000135
     5  C    0.000165   0.000154   0.000027   0.000026  -0.000023  -0.000002
     6  C   -0.000111  -0.000105  -0.000011  -0.000011   0.000001   0.000002
     7  C    0.004635   0.004575  -0.000604  -0.000601   0.000476   0.000135
     8  C    0.016369   0.016564  -0.004830  -0.004792   0.002137   0.002049
     9  C   -0.041955  -0.041629   0.004288   0.004326  -0.001368  -0.003362
    10  H   -0.009948  -0.010011   0.001388   0.001383  -0.000011  -0.001302
    11  C   -0.000642  -0.000658   0.000352   0.000347  -0.000147  -0.000151
    12  C   -0.000111  -0.000105  -0.000011  -0.000011   0.000001   0.000002
    13  C    0.000165   0.000154   0.000027   0.000026  -0.000023  -0.000002
    14  H   -0.009942  -0.010017   0.001388   0.001383  -0.000011  -0.001302
    15  H   -0.000005  -0.000005   0.000000   0.000000  -0.000001  -0.000000
    16  H    0.000028   0.000028   0.000003   0.000003   0.000002  -0.000000
    17  N   -0.083750  -0.083741   0.017200   0.017243  -0.011204  -0.004112
    18  C    0.311851   0.311965   0.029262   0.029438  -0.061316  -0.152011
    19  C    5.278561   0.161566   0.246854  -0.103152   0.014297   0.131956
    20  C    0.161566   5.276752  -0.102874   0.246741   0.477703   0.131794
    21  C    0.246854  -0.102874   5.070968   0.069340  -0.005189   0.264070
    22  C   -0.103152   0.246741   0.069340   5.071309  -0.058491   0.264017
    23  H    0.014297   0.477703  -0.005189  -0.058491   0.533000   0.012774
    24  C    0.131956   0.131794   0.264070   0.264017   0.012774   5.113067
    25  H   -0.005163  -0.070613   0.012547   0.475127  -0.004600  -0.070860
    26  H    0.011490   0.011482  -0.068134  -0.068135  -0.000036   0.473302
    27  H   -0.000005  -0.000005   0.000000   0.000000  -0.000001  -0.000000
    28  H    0.000028   0.000028   0.000003   0.000003   0.000002  -0.000000
    29  O    0.000278   0.000279  -0.000008  -0.000008   0.000001   0.000002
    30  H    0.000001   0.000001  -0.000000  -0.000000   0.000000   0.000000
    31  H    0.000001   0.000001  -0.000000  -0.000000   0.000000   0.000000
    32  H   -0.070666  -0.005162   0.475165   0.012545   0.000018  -0.070862
    33  H    0.477791   0.014277  -0.058446  -0.005185   0.000024   0.012775
              25         26         27         28         29         30
     1  C   -0.000001  -0.000001   0.000011   0.474223   0.000767  -0.000000
     2  C    0.000096  -0.000023  -0.000051  -0.070293   0.001013   0.000001
     3  C   -0.000052   0.000018   0.000210   0.014355  -0.095277  -0.000009
     4  C   -0.000001   0.000000  -0.000334  -0.003539   0.241524   0.000033
     5  C    0.000000  -0.000000   0.000323   0.012002  -0.021933  -0.000002
     6  C    0.000000  -0.000000  -0.000018  -0.070624   0.000512   0.000000
     7  C   -0.000001   0.000000  -0.081008  -0.000018   0.241525   0.017632
     8  C   -0.000052   0.000018   0.020446   0.000038  -0.095278  -0.006512
     9  C    0.000096  -0.000023  -0.006016   0.000001   0.001013   0.016755
    10  H    0.000008  -0.000005   0.000024   0.000000  -0.000079  -0.000092
    11  C   -0.000001  -0.000001   0.011855  -0.000000   0.000767  -0.082583
    12  C    0.000000  -0.000000  -0.055332  -0.000000   0.000512   0.491315
    13  C    0.000000  -0.000000   0.460719  -0.000000  -0.021933  -0.083934
    14  H    0.000008  -0.000005   0.000000  -0.002641  -0.000079   0.000000
    15  H    0.000000  -0.000000   0.000144  -0.000059   0.004314  -0.000000
    16  H    0.000000   0.000000  -0.000059  -0.000000   0.000021  -0.005245
    17  N   -0.000215   0.000009  -0.000003  -0.000169  -0.008318   0.000018
    18  C    0.014774  -0.003911   0.000043   0.000273  -0.002985  -0.000013
    19  C   -0.005163   0.011490  -0.000005   0.000028   0.000278   0.000001
    20  C   -0.070613   0.011482  -0.000005   0.000028   0.000279   0.000001
    21  C    0.012547  -0.068134   0.000000   0.000003  -0.000008  -0.000000
    22  C    0.475127  -0.068135   0.000000   0.000003  -0.000008  -0.000000
    23  H   -0.004600  -0.000036  -0.000001   0.000002   0.000001   0.000000
    24  C   -0.070860   0.473302  -0.000000  -0.000000   0.000002   0.000000
    25  H    0.559032  -0.004952   0.000000   0.000000  -0.000000  -0.000000
    26  H   -0.004952   0.557156  -0.000000   0.000000   0.000000   0.000000
    27  H    0.000000  -0.000000   0.551843   0.000000   0.004314  -0.005636
    28  H    0.000000   0.000000   0.000000   0.561806   0.000021   0.000000
    29  O   -0.000000   0.000000   0.004314   0.000021   8.285639  -0.000136
    30  H   -0.000000   0.000000  -0.005636   0.000000  -0.000136   0.566976
    31  H   -0.000000   0.000000  -0.000000  -0.005245  -0.000136   0.000000
    32  H   -0.000058  -0.004954   0.000000   0.000000  -0.000000  -0.000000
    33  H    0.000018  -0.000036  -0.000001   0.000002   0.000001   0.000000
              31         32         33
     1  C   -0.082583  -0.000001  -0.000149
     2  C    0.016755   0.000096  -0.001370
     3  C   -0.006512  -0.000052   0.002141
     4  C    0.017632  -0.000001   0.000489
     5  C   -0.083934   0.000000  -0.000023
     6  C    0.491315   0.000000   0.000002
     7  C    0.000033  -0.000001   0.000489
     8  C   -0.000009  -0.000052   0.002143
     9  C    0.000001   0.000096  -0.001372
    10  H    0.000000   0.000008  -0.000007
    11  C   -0.000000  -0.000001  -0.000149
    12  C    0.000000   0.000000   0.000002
    13  C   -0.000002   0.000000  -0.000023
    14  H   -0.000092   0.000008  -0.000007
    15  H   -0.005636   0.000000  -0.000001
    16  H    0.000000   0.000000   0.000002
    17  N    0.000018  -0.000214  -0.011236
    18  C   -0.000013   0.014783  -0.061444
    19  C    0.000001  -0.070666   0.477791
    20  C    0.000001  -0.005162   0.014277
    21  C   -0.000000   0.475165  -0.058446
    22  C   -0.000000   0.012545  -0.005185
    23  H    0.000000   0.000018   0.000024
    24  C    0.000000  -0.070862   0.012775
    25  H   -0.000000  -0.000058   0.000018
    26  H    0.000000  -0.004954  -0.000036
    27  H   -0.000000   0.000000  -0.000001
    28  H   -0.005245   0.000000   0.000002
    29  O   -0.000136  -0.000000   0.000001
    30  H    0.000000  -0.000000   0.000000
    31  H    0.566976  -0.000000   0.000000
    32  H   -0.000000   0.559031  -0.004598
    33  H    0.000000  -0.004598   0.533026
 Mulliken charges:
               1
     1  C   -0.164404
     2  C   -0.162720
     3  C    0.246596
     4  C    0.337571
     5  C   -0.244413
     6  C   -0.076214
     7  C    0.337570
     8  C    0.246597
     9  C   -0.162719
    10  H    0.133650
    11  C   -0.164405
    12  C   -0.076214
    13  C   -0.244413
    14  H    0.133650
    15  H    0.098536
    16  H    0.089805
    17  N   -0.169292
    18  C    0.139490
    19  C   -0.308987
    20  C   -0.307996
    21  C    0.048014
    22  C    0.047850
    23  H    0.100885
    24  C   -0.100647
    25  H    0.094867
    26  H    0.096741
    27  H    0.098536
    28  H    0.089805
    29  O   -0.536337
    30  H    0.091429
    31  H    0.091429
    32  H    0.094873
    33  H    0.100865
 Sum of Mulliken charges =  -0.00000
 Mulliken charges with hydrogens summed into heavy atoms:
               1
     1  C   -0.074599
     2  C   -0.029070
     3  C    0.246596
     4  C    0.337571
     5  C   -0.145877
     6  C    0.015215
     7  C    0.337570
     8  C    0.246597
     9  C   -0.029069
    11  C   -0.074600
    12  C    0.015216
    13  C   -0.145877
    17  N   -0.169292
    18  C    0.139490
    19  C   -0.208122
    20  C   -0.207111
    21  C    0.142887
    22  C    0.142717
    24  C   -0.003906
    29  O   -0.536337
 Electronic spatial extent (au):  <R**2>=           5078.7378
 Charge=             -0.0000 electrons
 Dipole moment (field-independent basis, Debye):
    X=             -3.1639    Y=             -0.0000    Z=              0.0016  Tot=              3.1639
 Quadrupole moment (field-independent basis, Debye-Ang):
   XX=           -100.4912   YY=           -111.1043   ZZ=           -113.4842
   XY=              0.0000   XZ=              0.0149   YZ=             -0.0010
 Traceless Quadrupole moment (field-independent basis, Debye-Ang):
   XX=              7.8687   YY=             -2.7444   ZZ=             -5.1243
   XY=              0.0000   XZ=              0.0149   YZ=             -0.0010
 Octapole moment (field-independent basis, Debye-Ang**2):
  XXX=            -34.1715  YYY=              0.0003  ZZZ=              0.0177  XYY=             19.3129
  XXY=             -0.0003  XXZ=              0.0427  XZZ=            -21.1138  YZZ=             -0.0001
  YYZ=              0.0077  XYZ=              0.0034
 Hexadecapole moment (field-independent basis, Debye-Ang**3):
 XXXX=          -3186.7641 YYYY=          -2799.6710 ZZZZ=           -345.3778 XXXY=              0.0009
 XXXZ=              0.1657 YYYX=             -0.0005 YYYZ=              0.0066 ZZZX=             -0.0394
 ZZZY=             -0.0098 XXYY=          -1067.2184 XXZZ=           -628.0396 YYZZ=           -642.0617
 XXYZ=             -0.0117 YYXZ=              0.2030 ZZXY=              0.0007
 N-N= 1.435376385184D+03 E-N=-4.786726138422D+03  KE= 8.205156415017D+02
 Leave Link  601 at Tue Nov 23 20:09:57 2021, MaxMem=  5242880000 cpu:         2.7
 (Enter /opt/nce/packages/global/g09/l9999.exe)
 1\1\GINC-CN081\SP\RM06L TD-FC\Gen\C18H13N1O1\PNG4RJV\23-Nov-2021\0\\#p
  m06l chkbasis geom=allcheck Guess=Read int=ultrafine scrf=(SMD,solven
 t=n,n-DiMethylAcetamide) td=(NStates=30)\\Title\\0,1\C,0,0.6515068929,
 -3.6218234264,-0.0477188454\C,0,-0.0871708856,-2.4439478556,-0.0437825
 734\C,0,0.546296339,-1.2045228247,-0.0466370086\C,0,1.9463996429,-1.17
 96793414,-0.0535931246\C,0,2.6794870437,-2.3478434782,-0.0575938468\C,
 0,2.0335906377,-3.580321034,-0.0547014264\C,0,1.9462793841,1.179885585
 ,-0.0535178951\C,0,0.5461739941,1.2045854094,-0.0465554289\C,0,-0.0874
 202533,2.4439453147,-0.043598562\H,0,-1.1686812486,2.4829383246,-0.038
 2021358\C,0,0.6511359985,3.6218972286,-0.0474577144\C,0,2.0332240494,3
 .580536837,-0.0544595258\C,0,2.6792467877,2.348125482,-0.0574420002\H,
 0,-1.1684279582,-2.4830532555,-0.0384059139\H,0,3.7597627246,-2.277861
 5853,-0.0630362698\H,0,0.1305325328,4.5707185731,-0.0449927191\N,0,-0.
 1557272859,-0.0000046842,-0.0428558371\C,0,-1.5843350704,-0.0000787872
 ,-0.0390312091\C,0,-2.2767691163,0.0000654018,-1.2425683847\C,0,-2.270
 6447986,-0.0002968019,1.1679843666\C,0,-3.6635796169,-0.0000081153,-1.
 236169772\C,0,-3.6574978759,-0.0003751213,1.1685543575\H,0,-1.71232598
 39,-0.0004068541,2.0962208968\C,0,-4.3538288937,-0.0002296836,-0.03204
 61067\H,0,-4.1947933037,-0.0005468174,2.1084311648\H,0,-5.4364762585,-
 0.0002891376,-0.0292975731\H,0,3.7595296695,2.2782548602,-0.0628946119
 \H,0,0.1310010526,-4.5706985192,-0.0453305548\O,0,2.6493456187,0.00013
 92313,-0.0567205736\H,0,2.615199986,4.4924348323,-0.0575482813\H,0,2.6
 156595082,-4.4921595271,-0.0578479246\H,0,-4.2056114005,0.0001046334,-
 2.1733243477\H,0,-1.7231409125,0.0002351367,-2.1736146189\\Version=ES6
 4L-G09RevE.01\State=1-A\HF=-823.9086805\RMSD=4.786e-09\PG=C01 [X(C18H1
 3N1O1)]\\@


 There was a great rattling of the words for the fewness of ideas.
                   -- Charles Baxter in Gryphon
 Job cpu time:       0 days 21 hours 17 minutes 39.8 seconds.
 File lengths (MBytes):  RWF=   1908 Int=      0 D2E=      0 Chk=    439 Scr=      1
 Normal termination of Gaussian 09 at Tue Nov 23 20:09:58 2021.
