 Entering Gaussian System, Link 0=g09
 Input=/home/png4rjv/fotokatalizis/benchmark/OPCs/RESTART_2/POZ_4_PBE-D3_def2TZVP.gjf
 Output=/home/png4rjv/fotokatalizis/benchmark/OPCs/RESTART_2/POZ_4_PBE-D3_def2TZVP.log
 Initial command:
 /opt/nce/packages/global/g09/l1.exe "/home/png4rjv/fotokatalizis/benchmark/OPCs/RESTART_2/POZ_4_PBE-D3_def2TZVP/Gau-2819.inp" -scrdir="/home/png4rjv/fotokatalizis/benchmark/OPCs/RESTART_2/POZ_4_PBE-D3_def2TZVP/"
 Default is to use a total of  12 processors:
                               12 via shared-memory
                                1 via Linda
 Entering Link 1 = /opt/nce/packages/global/g09/l1.exe PID=      2820.
  
 Copyright (c) 1988,1990,1992,1993,1995,1998,2003,2009,2015,
            Gaussian, Inc.  All Rights Reserved.
  
 This is part of the Gaussian(R) 09 program.  It is based on
 the Gaussian(R) 03 system (copyright 2003, Gaussian, Inc.),
 the Gaussian(R) 98 system (copyright 1998, Gaussian, Inc.),
 the Gaussian(R) 94 system (copyright 1995, Gaussian, Inc.),
 the Gaussian 92(TM) system (copyright 1992, Gaussian, Inc.),
 the Gaussian 90(TM) system (copyright 1990, Gaussian, Inc.),
 the Gaussian 88(TM) system (copyright 1988, Gaussian, Inc.),
 the Gaussian 86(TM) system (copyright 1986, Carnegie Mellon
 University), and the Gaussian 82(TM) system (copyright 1983,
 Carnegie Mellon University). Gaussian is a federally registered
 trademark of Gaussian, Inc.
  
 This software contains proprietary and confidential information,
 including trade secrets, belonging to Gaussian, Inc.
  
 This software is provided under written license and may be
 used, copied, transmitted, or stored only in accord with that
 written license.
  
 The following legend is applicable only to US Government
 contracts under FAR:
  
                    RESTRICTED RIGHTS LEGEND
  
 Use, reproduction and disclosure by the US Government is
 subject to restrictions as set forth in subparagraphs (a)
 and (c) of the Commercial Computer Software - Restricted
 Rights clause in FAR 52.227-19.
  
 Gaussian, Inc.
 340 Quinnipiac St., Bldg. 40, Wallingford CT 06492
  
  
 ---------------------------------------------------------------
 Warning -- This program may not be used in any manner that
 competes with the business of Gaussian, Inc. or will provide
 assistance to any competitor of Gaussian, Inc.  The licensee
 of this program is prohibited from giving any competitor of
 Gaussian, Inc. access to this program.  By using this program,
 the user acknowledges that Gaussian, Inc. is engaged in the
 business of creating and licensing software in the field of
 computational chemistry and represents and warrants to the
 licensee that it is not a competitor of Gaussian, Inc. and that
 it will not use this program in any manner prohibited above.
 ---------------------------------------------------------------
  

 Cite this work as:
 Gaussian 09, Revision E.01,
 M. J. Frisch, G. W. Trucks, H. B. Schlegel, G. E. Scuseria, 
 M. A. Robb, J. R. Cheeseman, G. Scalmani, V. Barone, B. Mennucci, 
 G. A. Petersson, H. Nakatsuji, M. Caricato, X. Li, H. P. Hratchian, 
 A. F. Izmaylov, J. Bloino, G. Zheng, J. L. Sonnenberg, M. Hada, 
 M. Ehara, K. Toyota, R. Fukuda, J. Hasegawa, M. Ishida, T. Nakajima, 
 Y. Honda, O. Kitao, H. Nakai, T. Vreven, J. A. Montgomery, Jr., 
 J. E. Peralta, F. Ogliaro, M. Bearpark, J. J. Heyd, E. Brothers, 
 K. N. Kudin, V. N. Staroverov, T. Keith, R. Kobayashi, J. Normand, 
 K. Raghavachari, A. Rendell, J. C. Burant, S. S. Iyengar, J. Tomasi, 
 M. Cossi, N. Rega, J. M. Millam, M. Klene, J. E. Knox, J. B. Cross, 
 V. Bakken, C. Adamo, J. Jaramillo, R. Gomperts, R. E. Stratmann, 
 O. Yazyev, A. J. Austin, R. Cammi, C. Pomelli, J. W. Ochterski, 
 R. L. Martin, K. Morokuma, V. G. Zakrzewski, G. A. Voth, 
 P. Salvador, J. J. Dannenberg, S. Dapprich, A. D. Daniels, 
 O. Farkas, J. B. Foresman, J. V. Ortiz, J. Cioslowski, 
 and D. J. Fox, Gaussian, Inc., Wallingford CT, 2013.
 
 ******************************************
 Gaussian 09:  ES64L-G09RevE.01 30-Nov-2015
                23-Nov-2021 
 ******************************************
 %chk=cp.chk
 Default route:  MaxDisk=500GB
 ----------------------------------------------------------------------
 #p PBEPBE/def2TZVP opt=tight freq=noraman nosymm int=ultrafine scrf=(S
 MD,solvent=n,n-DiMethylAcetamide) EmpiricalDispersion=GD3BJ
 ----------------------------------------------------------------------
 1/7=10,14=-1,18=20,19=15,26=4,38=1/1,3;
 2/9=110,12=2,15=1,17=6,18=5,40=1/2;
 3/5=44,7=101,11=2,16=1,25=1,30=1,70=32201,71=1,72=147,74=1009,75=-5,124=41/1,2,3;
 4//1;
 5/5=2,38=5,53=147/2;
 6/7=2,8=2,9=2,10=2,28=1/1;
 7/30=1/1,2,3,16;
 1/7=10,14=-1,18=20,19=15,26=4/3(2);
 2/9=110,15=1/2;
 99//99;
 2/9=110,15=1/2;
 3/5=44,7=101,11=2,16=1,25=1,30=1,70=32205,71=1,72=147,74=1009,75=-5,124=41/1,2,3;
 4/5=5,16=3,69=1/1;
 5/5=2,38=5,53=147/2;
 7/30=1/1,2,3,16;
 1/7=10,14=-1,18=20,19=15,26=4/3(-5);
 2/9=110,15=1/2;
 6/7=2,8=2,9=2,10=2,19=2,28=1/1;
 99/9=1/99;
 Leave Link    1 at Tue Nov 23 14:58:24 2021, MaxMem=           0 cpu:         1.5
 (Enter /opt/nce/packages/global/g09/l101.exe)
 -----
 Title
 -----
 Symbolic Z-matrix:
 Charge =  0 Multiplicity = 1
 C                     0.65303  -3.61761  -0.2401 
 C                    -0.08549  -2.44152  -0.12008 
 C                     0.54541  -1.2051    0.04995 
 C                     1.94209  -1.18034   0.09994 
 C                     2.67538  -2.3445   -0.04008 
 C                     2.03256  -3.57589  -0.2001 
 C                     1.94196   1.18054   0.10002 
 C                     0.54528   1.20516   0.05003 
 C                    -0.08574   2.44151  -0.11988 
 H                    -1.16481   2.4856   -0.14986 
 C                     0.65265   3.61768  -0.23982 
 C                     2.03219   3.57611  -0.19984 
 C                     2.67513   2.34478  -0.03992 
 H                    -1.16455  -2.48572  -0.15009 
 H                     3.75519  -2.27333   0.00992 
 H                     0.13329   4.5667   -0.35975 
 N                    -0.15843  -0.00001   0.19996 
 C                    -1.58391  -0.00008   0.11998 
 C                    -2.21262   0.00005  -1.12199 
 C                    -2.33259  -0.00028   1.28197 
 C                    -3.59743  -0.00003  -1.18068 
 C                    -3.71741  -0.00035   1.22069 
 H                    -1.81776  -0.00037   2.24124 
 C                    -4.35004  -0.00023  -0.01999 
 H                    -4.29661  -0.00051   2.12882 
 H                    -5.43224  -0.00028  -0.06998 
 H                     3.75495   2.27372   0.01007 
 H                     0.13376  -4.56669  -0.36012 
 O                     2.64104   0.00014   0.34993 
 H                     2.61382   4.48778  -0.28979 
 H                     2.61429  -4.4875   -0.29011 
 H                    -4.09665   0.00007  -2.1488 
 H                    -1.6178    0.0002   -2.02128 
 
 NAtoms=     33 NQM=       33 NQMF=       0 NMMI=      0 NMMIF=      0
                NMic=       0 NMicF=      0.
                    Isotopes and Nuclear Properties:
 (Nuclear quadrupole moments (NQMom) in fm**2, nuclear magnetic moments (NMagM)
  in nuclear magnetons)

  Atom         1           2           3           4           5           6           7           8           9          10
 IAtWgt=          12          12          12          12          12          12          12          12          12           1
 AtmWgt=  12.0000000  12.0000000  12.0000000  12.0000000  12.0000000  12.0000000  12.0000000  12.0000000  12.0000000   1.0078250
 NucSpn=           0           0           0           0           0           0           0           0           0           1
 AtZEff=   0.0000000   0.0000000   0.0000000   0.0000000   0.0000000   0.0000000   0.0000000   0.0000000   0.0000000   0.0000000
 NQMom=    0.0000000   0.0000000   0.0000000   0.0000000   0.0000000   0.0000000   0.0000000   0.0000000   0.0000000   0.0000000
 NMagM=    0.0000000   0.0000000   0.0000000   0.0000000   0.0000000   0.0000000   0.0000000   0.0000000   0.0000000   2.7928460
 AtZNuc=   6.0000000   6.0000000   6.0000000   6.0000000   6.0000000   6.0000000   6.0000000   6.0000000   6.0000000   1.0000000

  Atom        11          12          13          14          15          16          17          18          19          20
 IAtWgt=          12          12          12           1           1           1          14          12          12          12
 AtmWgt=  12.0000000  12.0000000  12.0000000   1.0078250   1.0078250   1.0078250  14.0030740  12.0000000  12.0000000  12.0000000
 NucSpn=           0           0           0           1           1           1           2           0           0           0
 AtZEff=   0.0000000   0.0000000   0.0000000   0.0000000   0.0000000   0.0000000   0.0000000   0.0000000   0.0000000   0.0000000
 NQMom=    0.0000000   0.0000000   0.0000000   0.0000000   0.0000000   0.0000000   2.0440000   0.0000000   0.0000000   0.0000000
 NMagM=    0.0000000   0.0000000   0.0000000   2.7928460   2.7928460   2.7928460   0.4037610   0.0000000   0.0000000   0.0000000
 AtZNuc=   6.0000000   6.0000000   6.0000000   1.0000000   1.0000000   1.0000000   7.0000000   6.0000000   6.0000000   6.0000000

  Atom        21          22          23          24          25          26          27          28          29          30
 IAtWgt=          12          12           1          12           1           1           1           1          16           1
 AtmWgt=  12.0000000  12.0000000   1.0078250  12.0000000   1.0078250   1.0078250   1.0078250   1.0078250  15.9949146   1.0078250
 NucSpn=           0           0           1           0           1           1           1           1           0           1
 AtZEff=   0.0000000   0.0000000   0.0000000   0.0000000   0.0000000   0.0000000   0.0000000   0.0000000   0.0000000   0.0000000
 NQMom=    0.0000000   0.0000000   0.0000000   0.0000000   0.0000000   0.0000000   0.0000000   0.0000000   0.0000000   0.0000000
 NMagM=    0.0000000   0.0000000   2.7928460   0.0000000   2.7928460   2.7928460   2.7928460   2.7928460   0.0000000   2.7928460
 AtZNuc=   6.0000000   6.0000000   1.0000000   6.0000000   1.0000000   1.0000000   1.0000000   1.0000000   8.0000000   1.0000000

  Atom        31          32          33
 IAtWgt=           1           1           1
 AtmWgt=   1.0078250   1.0078250   1.0078250
 NucSpn=           1           1           1
 AtZEff=   0.0000000   0.0000000   0.0000000
 NQMom=    0.0000000   0.0000000   0.0000000
 NMagM=    2.7928460   2.7928460   2.7928460
 AtZNuc=   1.0000000   1.0000000   1.0000000
 Leave Link  101 at Tue Nov 23 14:58:24 2021, MaxMem=  5242880000 cpu:         4.2
 (Enter /opt/nce/packages/global/g09/l103.exe)

 GradGradGradGradGradGradGradGradGradGradGradGradGradGradGradGradGradGrad
 Berny optimization.
 Initialization pass.
                           ----------------------------
                           !    Initial Parameters    !
                           ! (Angstroms and Degrees)  !
 --------------------------                            --------------------------
 ! Name  Definition              Value          Derivative Info.                !
 --------------------------------------------------------------------------------
 ! R1    R(1,2)                  1.3939         estimate D2E/DX2                !
 ! R2    R(1,6)                  1.3807         estimate D2E/DX2                !
 ! R3    R(1,28)                 1.0885         estimate D2E/DX2                !
 ! R4    R(2,3)                  1.3985         estimate D2E/DX2                !
 ! R5    R(2,14)                 1.0804         estimate D2E/DX2                !
 ! R6    R(3,4)                  1.3978         estimate D2E/DX2                !
 ! R7    R(3,17)                 1.4036         estimate D2E/DX2                !
 ! R8    R(4,5)                  1.383          estimate D2E/DX2                !
 ! R9    R(4,29)                 1.3945         estimate D2E/DX2                !
 ! R10   R(5,6)                  1.3983         estimate D2E/DX2                !
 ! R11   R(5,15)                 1.0833         estimate D2E/DX2                !
 ! R12   R(6,31)                 1.0851         estimate D2E/DX2                !
 ! R13   R(7,8)                  1.3978         estimate D2E/DX2                !
 ! R14   R(7,13)                 1.383          estimate D2E/DX2                !
 ! R15   R(7,29)                 1.3945         estimate D2E/DX2                !
 ! R16   R(8,9)                  1.3984         estimate D2E/DX2                !
 ! R17   R(8,17)                 1.4036         estimate D2E/DX2                !
 ! R18   R(9,10)                 1.0804         estimate D2E/DX2                !
 ! R19   R(9,11)                 1.3939         estimate D2E/DX2                !
 ! R20   R(11,12)                1.3807         estimate D2E/DX2                !
 ! R21   R(11,16)                1.0885         estimate D2E/DX2                !
 ! R22   R(12,13)                1.3983         estimate D2E/DX2                !
 ! R23   R(12,30)                1.0851         estimate D2E/DX2                !
 ! R24   R(13,27)                1.0833         estimate D2E/DX2                !
 ! R25   R(17,18)                1.4277         estimate D2E/DX2                !
 ! R26   R(18,19)                1.392          estimate D2E/DX2                !
 ! R27   R(18,20)                1.3823         estimate D2E/DX2                !
 ! R28   R(19,21)                1.3861         estimate D2E/DX2                !
 ! R29   R(19,33)                1.0782         estimate D2E/DX2                !
 ! R30   R(20,22)                1.3862         estimate D2E/DX2                !
 ! R31   R(20,23)                1.0887         estimate D2E/DX2                !
 ! R32   R(21,24)                1.3833         estimate D2E/DX2                !
 ! R33   R(21,32)                1.0893         estimate D2E/DX2                !
 ! R34   R(22,24)                1.3927         estimate D2E/DX2                !
 ! R35   R(22,25)                1.0771         estimate D2E/DX2                !
 ! R36   R(24,26)                1.0834         estimate D2E/DX2                !
 ! A1    A(2,1,6)              120.0902         estimate D2E/DX2                !
 ! A2    A(2,1,28)             119.4995         estimate D2E/DX2                !
 ! A3    A(6,1,28)             120.4096         estimate D2E/DX2                !
 ! A4    A(1,2,3)              121.1593         estimate D2E/DX2                !
 ! A5    A(1,2,14)             119.4893         estimate D2E/DX2                !
 ! A6    A(3,2,14)             119.3493         estimate D2E/DX2                !
 ! A7    A(2,3,4)              118.0856         estimate D2E/DX2                !
 ! A8    A(2,3,17)             123.0831         estimate D2E/DX2                !
 ! A9    A(4,3,17)             118.8171         estimate D2E/DX2                !
 ! A10   A(3,4,5)              120.7489         estimate D2E/DX2                !
 ! A11   A(3,4,29)             121.4828         estimate D2E/DX2                !
 ! A12   A(5,4,29)             117.7091         estimate D2E/DX2                !
 ! A13   A(4,5,6)              120.6072         estimate D2E/DX2                !
 ! A14   A(4,5,15)             117.9401         estimate D2E/DX2                !
 ! A15   A(6,5,15)             121.4245         estimate D2E/DX2                !
 ! A16   A(1,6,5)              119.291          estimate D2E/DX2                !
 ! A17   A(1,6,31)             120.5192         estimate D2E/DX2                !
 ! A18   A(5,6,31)             120.1898         estimate D2E/DX2                !
 ! A19   A(8,7,13)             120.7494         estimate D2E/DX2                !
 ! A20   A(8,7,29)             121.483          estimate D2E/DX2                !
 ! A21   A(13,7,29)            117.7084         estimate D2E/DX2                !
 ! A22   A(7,8,9)              118.0858         estimate D2E/DX2                !
 ! A23   A(7,8,17)             118.8174         estimate D2E/DX2                !
 ! A24   A(9,8,17)             123.0826         estimate D2E/DX2                !
 ! A25   A(8,9,10)             119.3494         estimate D2E/DX2                !
 ! A26   A(8,9,11)             121.1587         estimate D2E/DX2                !
 ! A27   A(10,9,11)            119.4896         estimate D2E/DX2                !
 ! A28   A(9,11,12)            120.0907         estimate D2E/DX2                !
 ! A29   A(9,11,16)            119.4989         estimate D2E/DX2                !
 ! A30   A(12,11,16)           120.4096         estimate D2E/DX2                !
 ! A31   A(11,12,13)           119.291          estimate D2E/DX2                !
 ! A32   A(11,12,30)           120.5195         estimate D2E/DX2                !
 ! A33   A(13,12,30)           120.1895         estimate D2E/DX2                !
 ! A34   A(7,13,12)            120.6067         estimate D2E/DX2                !
 ! A35   A(7,13,27)            117.9405         estimate D2E/DX2                !
 ! A36   A(12,13,27)           121.4246         estimate D2E/DX2                !
 ! A37   A(3,17,8)             118.3174         estimate D2E/DX2                !
 ! A38   A(3,17,18)            119.6452         estimate D2E/DX2                !
 ! A39   A(8,17,18)            119.6454         estimate D2E/DX2                !
 ! A40   A(17,18,19)           120.0609         estimate D2E/DX2                !
 ! A41   A(17,18,20)           119.5827         estimate D2E/DX2                !
 ! A42   A(19,18,20)           120.3564         estimate D2E/DX2                !
 ! A43   A(18,19,21)           119.2761         estimate D2E/DX2                !
 ! A44   A(18,19,33)           119.6688         estimate D2E/DX2                !
 ! A45   A(21,19,33)           121.0551         estimate D2E/DX2                !
 ! A46   A(18,20,22)           120.2604         estimate D2E/DX2                !
 ! A47   A(18,20,23)           118.9835         estimate D2E/DX2                !
 ! A48   A(22,20,23)           120.7561         estimate D2E/DX2                !
 ! A49   A(19,21,24)           120.5334         estimate D2E/DX2                !
 ! A50   A(19,21,32)           119.7052         estimate D2E/DX2                !
 ! A51   A(24,21,32)           119.7615         estimate D2E/DX2                !
 ! A52   A(20,22,24)           119.5516         estimate D2E/DX2                !
 ! A53   A(20,22,25)           119.9959         estimate D2E/DX2                !
 ! A54   A(24,22,25)           120.4526         estimate D2E/DX2                !
 ! A55   A(21,24,22)           120.0222         estimate D2E/DX2                !
 ! A56   A(21,24,26)           120.3155         estimate D2E/DX2                !
 ! A57   A(22,24,26)           119.6624         estimate D2E/DX2                !
 ! A58   A(4,29,7)             115.6694         estimate D2E/DX2                !
 ! D1    D(6,1,2,3)             -0.3832         estimate D2E/DX2                !
 ! D2    D(6,1,2,14)          -179.8397         estimate D2E/DX2                !
 ! D3    D(28,1,2,3)           179.3049         estimate D2E/DX2                !
 ! D4    D(28,1,2,14)           -0.1516         estimate D2E/DX2                !
 ! D5    D(2,1,6,5)             -0.0773         estimate D2E/DX2                !
 ! D6    D(2,1,6,31)           179.8308         estimate D2E/DX2                !
 ! D7    D(28,1,6,5)          -179.7625         estimate D2E/DX2                !
 ! D8    D(28,1,6,31)            0.1456         estimate D2E/DX2                !
 ! D9    D(1,2,3,4)             -0.1596         estimate D2E/DX2                !
 ! D10   D(1,2,3,17)          -178.7726         estimate D2E/DX2                !
 ! D11   D(14,2,3,4)           179.2977         estimate D2E/DX2                !
 ! D12   D(14,2,3,17)            0.6847         estimate D2E/DX2                !
 ! D13   D(2,3,4,5)              1.177          estimate D2E/DX2                !
 ! D14   D(2,3,4,29)          -175.9614         estimate D2E/DX2                !
 ! D15   D(17,3,4,5)           179.8506         estimate D2E/DX2                !
 ! D16   D(17,3,4,29)            2.7121         estimate D2E/DX2                !
 ! D17   D(2,3,17,8)          -165.2787         estimate D2E/DX2                !
 ! D18   D(2,3,17,18)           -2.8854         estimate D2E/DX2                !
 ! D19   D(4,3,17,8)            16.1179         estimate D2E/DX2                !
 ! D20   D(4,3,17,18)          178.5113         estimate D2E/DX2                !
 ! D21   D(3,4,5,6)             -1.6636         estimate D2E/DX2                !
 ! D22   D(3,4,5,15)          -179.7631         estimate D2E/DX2                !
 ! D23   D(29,4,5,6)           175.5801         estimate D2E/DX2                !
 ! D24   D(29,4,5,15)           -2.5195         estimate D2E/DX2                !
 ! D25   D(3,4,29,7)           -20.7941         estimate D2E/DX2                !
 ! D26   D(5,4,29,7)           161.9836         estimate D2E/DX2                !
 ! D27   D(4,5,6,1)              1.0942         estimate D2E/DX2                !
 ! D28   D(4,5,6,31)          -178.8142         estimate D2E/DX2                !
 ! D29   D(15,5,6,1)           179.1266         estimate D2E/DX2                !
 ! D30   D(15,5,6,31)           -0.7818         estimate D2E/DX2                !
 ! D31   D(13,7,8,9)            -1.1782         estimate D2E/DX2                !
 ! D32   D(13,7,8,17)         -179.8506         estimate D2E/DX2                !
 ! D33   D(29,7,8,9)           175.9596         estimate D2E/DX2                !
 ! D34   D(29,7,8,17)           -2.7128         estimate D2E/DX2                !
 ! D35   D(8,7,13,12)            1.664          estimate D2E/DX2                !
 ! D36   D(8,7,13,27)          179.7632         estimate D2E/DX2                !
 ! D37   D(29,7,13,12)        -175.579          estimate D2E/DX2                !
 ! D38   D(29,7,13,27)           2.5202         estimate D2E/DX2                !
 ! D39   D(8,7,29,4)            20.7945         estimate D2E/DX2                !
 ! D40   D(13,7,29,4)         -161.9839         estimate D2E/DX2                !
 ! D41   D(7,8,9,10)          -179.2965         estimate D2E/DX2                !
 ! D42   D(7,8,9,11)             0.1608         estimate D2E/DX2                !
 ! D43   D(17,8,9,10)           -0.6848         estimate D2E/DX2                !
 ! D44   D(17,8,9,11)          178.7725         estimate D2E/DX2                !
 ! D45   D(7,8,17,3)           -16.1177         estimate D2E/DX2                !
 ! D46   D(7,8,17,18)         -178.511          estimate D2E/DX2                !
 ! D47   D(9,8,17,3)           165.2802         estimate D2E/DX2                !
 ! D48   D(9,8,17,18)            2.8869         estimate D2E/DX2                !
 ! D49   D(8,9,11,12)            0.3828         estimate D2E/DX2                !
 ! D50   D(8,9,11,16)         -179.3051         estimate D2E/DX2                !
 ! D51   D(10,9,11,12)         179.8394         estimate D2E/DX2                !
 ! D52   D(10,9,11,16)           0.1514         estimate D2E/DX2                !
 ! D53   D(9,11,12,13)           0.0768         estimate D2E/DX2                !
 ! D54   D(9,11,12,30)        -179.8309         estimate D2E/DX2                !
 ! D55   D(16,11,12,13)        179.7619         estimate D2E/DX2                !
 ! D56   D(16,11,12,30)         -0.1458         estimate D2E/DX2                !
 ! D57   D(11,12,13,7)          -1.0938         estimate D2E/DX2                !
 ! D58   D(11,12,13,27)       -179.1259         estimate D2E/DX2                !
 ! D59   D(30,12,13,7)         178.8142         estimate D2E/DX2                !
 ! D60   D(30,12,13,27)          0.7821         estimate D2E/DX2                !
 ! D61   D(3,17,18,19)         -81.0847         estimate D2E/DX2                !
 ! D62   D(3,17,18,20)          98.9152         estimate D2E/DX2                !
 ! D63   D(8,17,18,19)          81.0736         estimate D2E/DX2                !
 ! D64   D(8,17,18,20)         -98.9265         estimate D2E/DX2                !
 ! D65   D(17,18,19,21)        180.0            estimate D2E/DX2                !
 ! D66   D(17,18,19,33)          0.0001         estimate D2E/DX2                !
 ! D67   D(20,18,19,21)          0.0001         estimate D2E/DX2                !
 ! D68   D(20,18,19,33)       -179.9997         estimate D2E/DX2                !
 ! D69   D(17,18,20,22)       -179.9999         estimate D2E/DX2                !
 ! D70   D(17,18,20,23)          0.0002         estimate D2E/DX2                !
 ! D71   D(19,18,20,22)          0.0            estimate D2E/DX2                !
 ! D72   D(19,18,20,23)       -179.9999         estimate D2E/DX2                !
 ! D73   D(18,19,21,24)         -0.0002         estimate D2E/DX2                !
 ! D74   D(18,19,21,32)        180.0            estimate D2E/DX2                !
 ! D75   D(33,19,21,24)        179.9997         estimate D2E/DX2                !
 ! D76   D(33,19,21,32)         -0.0002         estimate D2E/DX2                !
 ! D77   D(18,20,22,24)         -0.0001         estimate D2E/DX2                !
 ! D78   D(18,20,22,25)        180.0            estimate D2E/DX2                !
 ! D79   D(23,20,22,24)        179.9998         estimate D2E/DX2                !
 ! D80   D(23,20,22,25)         -0.0001         estimate D2E/DX2                !
 ! D81   D(19,21,24,22)          0.0001         estimate D2E/DX2                !
 ! D82   D(19,21,24,26)       -179.9999         estimate D2E/DX2                !
 ! D83   D(32,21,24,22)        180.0            estimate D2E/DX2                !
 ! D84   D(32,21,24,26)          0.0            estimate D2E/DX2                !
 ! D85   D(20,22,24,21)          0.0            estimate D2E/DX2                !
 ! D86   D(20,22,24,26)       -180.0            estimate D2E/DX2                !
 ! D87   D(25,22,24,21)        180.0            estimate D2E/DX2                !
 ! D88   D(25,22,24,26)          0.0            estimate D2E/DX2                !
 --------------------------------------------------------------------------------
 Trust Radius=3.00D-01 FncErr=1.00D-07 GrdErr=1.00D-06
 Number of steps in this run=    192 maximum allowed number of steps=    198.
 GradGradGradGradGradGradGradGradGradGradGradGradGradGradGradGradGradGrad

 Leave Link  103 at Tue Nov 23 14:58:24 2021, MaxMem=  5242880000 cpu:         0.2
 (Enter /opt/nce/packages/global/g09/l202.exe)
                          Input orientation:                          
 ---------------------------------------------------------------------
 Center     Atomic      Atomic             Coordinates (Angstroms)
 Number     Number       Type             X           Y           Z
 ---------------------------------------------------------------------
      1          6           0        0.653030   -3.617610   -0.240102
      2          6           0       -0.085488   -2.441520   -0.120082
      3          6           0        0.545410   -1.205099    0.049946
      4          6           0        1.942085   -1.180337    0.099940
      5          6           0        2.675378   -2.344495   -0.040075
      6          6           0        2.032561   -3.575891   -0.200095
      7          6           0        1.941960    1.180544    0.100016
      8          6           0        0.545284    1.205160    0.050030
      9          6           0       -0.085744    2.441514   -0.119880
     10          1           0       -1.164808    2.485599   -0.149861
     11          6           0        0.652652    3.617681   -0.239818
     12          6           0        2.032187    3.576107   -0.199838
     13          6           0        2.675133    2.344778   -0.039918
     14          1           0       -1.164548   -2.485716   -0.150090
     15          1           0        3.755191   -2.273328    0.009923
     16          1           0        0.133286    4.566702   -0.359751
     17          7           0       -0.158429   -0.000008    0.199964
     18          6           0       -1.583908   -0.000080    0.119979
     19          6           0       -2.212617    0.000046   -1.121994
     20          6           0       -2.332593   -0.000278    1.281968
     21          6           0       -3.597431   -0.000027   -1.180683
     22          6           0       -3.717405   -0.000353    1.220686
     23          1           0       -1.817756   -0.000372    2.241240
     24          6           0       -4.350045   -0.000226   -0.019992
     25          1           0       -4.296610   -0.000508    2.128816
     26          1           0       -5.432244   -0.000284   -0.069980
     27          1           0        3.754953    2.273722    0.010068
     28          1           0        0.133764   -4.566686   -0.360123
     29          8           0        2.641043    0.000140    0.349931
     30          1           0        2.613817    4.487776   -0.289789
     31          1           0        2.614288   -4.487498   -0.290108
     32          1           0       -4.096653    0.000071   -2.148803
     33          1           0       -1.617802    0.000196   -2.021279
 ---------------------------------------------------------------------
                    Distance matrix (angstroms):
                    1          2          3          4          5
     1  C    0.000000
     2  C    1.393916   0.000000
     3  C    2.432266   1.398456   0.000000
     4  C    2.778055   2.397925   1.397789   0.000000
     5  C    2.398067   2.763729   2.417249   1.382963   0.000000
     6  C    1.380741   2.404024   2.809767   2.415965   1.398269
     7  C    4.979890   4.156722   2.764806   2.360881   3.603252
     8  C    4.832690   3.704738   2.410259   2.764804   4.140709
     9  C    6.105180   4.883034   3.704724   4.156707   5.525943
    10  H    6.368818   5.044038   4.072594   4.811889   6.171620
    11  C    7.235291   6.105170   4.832667   4.979864   6.299116
    12  C    7.324839   6.379870   5.013265   4.766733   5.957579
    13  C    6.299130   5.525948   4.140703   3.603242   4.689273
    14  H    2.143100   1.080382   2.145682   3.379008   3.844097
    15  H    3.390134   3.846558   3.383106   2.118982   1.083310
    16  H    8.201671   7.015731   5.800981   6.042477   7.370825
    17  N    3.733520   2.463479   1.403616   2.411502   3.685743
    18  C    4.268498   2.874634   2.447646   3.718338   4.864506
    19  C    4.698628   3.389653   3.229943   4.488650   5.528102
    20  C    4.931099   3.602067   3.354456   4.589401   5.685325
    21  C    5.660214   4.406757   4.486622   5.806838   6.793059
    22  C    5.858255   4.576874   4.581881   5.888825   6.924752
    23  H    5.034506   3.812584   3.440594   4.484851   5.557658
    24  C    6.177756   4.914914   5.042032   6.402964   7.406252
    25  H    6.572225   5.361868   5.405358   6.665557   7.668571
    26  H    7.081282   5.877920   6.099042   7.470082   8.439772
    27  H    6.662755   6.082716   4.733387   3.901934   4.742987
    28  H    1.088479   2.149889   3.411433   3.866399   3.391219
    29  O    4.169946   3.690066   2.436036   1.394476   2.377098
    30  H    8.339331   7.438427   6.066511   5.721068   6.837110
    31  H    2.146098   3.391714   3.894873   3.397250   2.158405
    32  H    6.268193   5.115322   5.275953   6.551074   7.470216
    33  H    4.627936   3.453189   3.228342   4.308831   5.277702
                    6          7          8          9         10
     6  C    0.000000
     7  C    4.766755   0.000000
     8  C    5.013283   1.397787   0.000000
     9  C    6.379876   2.397912   1.398441   0.000000
    10  H    6.853273   3.378996   2.145669   1.080380   0.000000
    11  C    7.324835   2.778028   2.432241   1.393909   2.143097
    12  C    7.151998   2.415942   2.809752   2.404023   3.378237
    13  C    5.957590   1.382955   2.417246   2.763728   3.844095
    14  H    3.378237   4.811903   4.072608   5.044039   4.971315
    15  H    2.169846   3.901942   4.733391   6.082710   6.846847
    16  H    8.362688   3.866362   3.411397   2.149869   2.461725
    17  N    4.212769   2.411499   1.403610   2.463455   2.704333
    18  C    5.095853   3.718335   2.447643   2.874615   2.535164
    19  C    5.626612   4.488585   3.229854   3.389482   2.867215
    20  C    5.834046   4.589461   3.354538   3.602202   3.097328
    21  C    6.741303   5.806788   4.486560   4.406628   3.627476
    22  C    6.918468   5.888874   4.581944   4.576985   3.817605
    23  H    5.793910   4.484960   3.440736   3.812815   3.510521
    24  C    7.318161   6.402964   5.042034   4.914909   4.042515
    25  H    7.633190   6.665633   5.405453   5.362042   4.602313
    26  H    8.277995   7.470083   6.099044   5.877919   4.939332
    27  H    6.101539   2.118979   3.383105   3.846556   4.926918
    28  H    2.147723   6.042512   5.801015   7.015751   7.173927
    29  O    3.668893   1.394463   2.436025   3.690040   4.572942
    30  H    8.085087   3.397223   3.894852   3.391709   4.278586
    31  H    1.085143   5.721094   6.066533   7.438438   7.932548
    32  H    7.358820   6.550996   5.275859   5.115131   4.332359
    33  H    5.424966   4.308714   3.228188   3.452905   3.143984
                   11         12         13         14         15
    11  C    0.000000
    12  C    1.380740   0.000000
    13  C    2.398056   1.398258   0.000000
    14  H    6.368809   6.853268   6.171625   0.000000
    15  H    6.662740   6.101527   4.742986   4.926920   0.000000
    16  H    1.088469   2.147714   3.391198   7.173906   7.748604
    17  N    3.733488   4.212747   3.685734   2.704359   4.529958
    18  C    4.268472   5.095835   4.864500   2.535190   5.803942
    19  C    4.698434   5.626450   5.527998   2.867413   6.485692
    20  C    4.931242   5.834174   5.685419   3.097180   6.621629
    21  C    5.660057   6.741171   6.792975   3.627629   7.787586
    22  C    5.858382   6.918581   6.924832   3.817478   7.903926
    23  H    5.034766   5.794146   5.557829   3.510281   6.418944
    24  C    6.177746   7.318155   7.406252   4.042521   8.418001
    25  H    6.572436   7.633379   7.668701   4.602117   8.630580
    26  H    7.081276   8.277993   8.439774   4.939334   9.464781
    27  H    3.390124   2.169836   1.083309   6.846853   4.547050
    28  H    8.201682   8.362702   7.370849   2.461740   4.302460
    29  O    4.169905   3.668854   2.377072   4.572967   2.554523
    30  H    2.146097   1.085138   2.158387   7.932537   6.863315
    31  H    8.339333   8.085092   6.837126   4.278591   2.508830
    32  H    6.267952   7.358612   7.470082   4.332578   8.454578
    33  H    4.627609   5.424685   5.277513   3.144288   6.177681
                   16         17         18         19         20
    16  H    0.000000
    17  N    4.610121   0.000000
    18  C    4.902489   1.427721   0.000000
    19  C    5.190243   2.442798   1.392039   0.000000
    20  C    5.443630   2.428523   1.382298   2.406954   0.000000
    21  C    5.953754   3.705796   2.397081   1.386057   2.768477
    22  C    6.179287   3.702456   2.400701   2.784338   1.386167
    23  H    5.606236   2.630622   2.134112   3.386334   1.088696
    24  C    6.408785   4.197383   2.769676   2.404788   2.401086
    25  H    6.832009   4.565634   3.375526   3.861450   2.138811
    26  H    7.205307   5.280719   3.853021   3.387142   3.381656
    27  H    4.302441   4.529952   5.803938   6.485604   6.621708
    28  H    9.133388   4.610165   4.902528   5.190471   5.443479
    29  O    5.257945   2.803486   4.231204   5.071940   5.060212
    30  H    2.482772   5.297680   6.158706   6.642797   6.861488
    31  H    9.388224   5.297707   6.158729   6.642974   6.861355
    32  H    6.476667   4.585446   3.385448   2.145677   3.857732
    33  H    5.165265   2.657760   2.141526   1.078201   3.379699
                   21         22         23         24         25
    21  C    0.000000
    22  C    2.404364   0.000000
    23  H    3.857046   2.156431   0.000000
    24  C    1.383341   1.392665   3.394946   0.000000
    25  H    3.382549   1.077116   2.481402   2.149472   0.000000
    26  H    2.144808   2.146274   4.290252   1.083353   2.474746
    27  H    7.787514   7.903996   6.419090   8.418001   8.630694
    28  H    5.953949   6.179147   5.605956   6.408806   6.831765
    29  O    6.423499   6.417794   4.843340   7.000868   7.162085
    30  H    7.714510   7.906277   6.796206   8.289169   8.587686
    31  H    7.714660   7.906156   6.795957   8.289180   8.587478
    32  H    1.089256   3.390765   4.946297   2.143839   4.282290
    33  H    2.150705   3.862469   4.267206   3.386783   4.939565
                   26         27         28         29         30
    26  H    0.000000
    27  H    9.464782   0.000000
    28  H    7.205321   7.748628   0.000000
    29  O    8.084200   2.554501   5.257996   0.000000
    30  H    9.215753   2.508813   9.388232   4.533085   0.000000
    31  H    9.215759   6.863331   2.482775   4.533129   8.975274
    32  H    2.470892   8.454462   6.476965   7.186113   8.284071
    33  H    4.284569   6.177523   5.165640   4.874464   6.406484
                   31         32         33
    31  H    0.000000
    32  H    8.284308   0.000000
    33  H    6.406788   2.482129   0.000000
 Symmetry turned off by external request.
 Stoichiometry    C18H13NO
 Framework group  C1[X(C18H13NO)]
 Deg. of freedom    93
 Full point group                 C1      NOp   1
 Rotational constants (GHZ):      0.4342578      0.3601337      0.2124210
 Leave Link  202 at Tue Nov 23 14:58:24 2021, MaxMem=  5242880000 cpu:         0.1
 (Enter /opt/nce/packages/global/g09/l301.exe)
 Standard basis: def2TZVP (5D, 7F)
 Ernie: Thresh=  0.10000D-02 Tol=  0.10000D-05 Strict=F.
   698 basis functions,  1124 primitive gaussians,   798 cartesian basis functions
    68 alpha electrons       68 beta electrons
       nuclear repulsion energy      1433.0798489103 Hartrees.
 IExCor= 1009 DFT=T Ex=PBE Corr=PBE ExCW=0 ScaHFX=  0.000000
 ScaDFX=  1.000000  1.000000  1.000000  1.000000 ScalE2=  1.000000  1.000000
 IRadAn=      5 IRanWt=     -1 IRanGd=            0 ICorTp=0 IEmpDi=141
 NAtoms=   33 NActive=   33 NUniq=   33 SFac= 1.00D+00 NAtFMM=   60 NAOKFM=F Big=F
 Integral buffers will be    131072 words long.
 Raffenetti 2 integral format.
 Two-electron integral symmetry is turned off.
 R6Disp:  Grimme-D3(BJ) Dispersion energy=       -0.0471088811 Hartrees.
 Nuclear repulsion after empirical dispersion term =     1433.0327400293 Hartrees.
 ------------------------------------------------------------------------------
 Polarizable Continuum Model (PCM)
 =================================
 Model                : PCM (using non-symmetric T matrix).
 Atomic radii         : SMD-Coulomb.
 Polarization charges : Total charges.
 Charge compensation  : None.
 Solution method      : On-the-fly selection.
 Cavity type          : VdW (van der Waals Surface) (Alpha=1.000).
 Cavity algorithm     : GePol (No added spheres)
                        Default sphere list used, NSphG=   33.
                        Lebedev-Laikov grids with approx.  5.0 points / Ang**2.
                        Smoothing algorithm: York/Karplus (Gamma=1.0000).
                        Polarization charges: spherical gaussians, with
                                              point-specific exponents (IZeta= 3).
                        Self-potential: point-specific (ISelfS= 7).
                        Self-field    : sphere-specific E.n sum rule (ISelfD= 2).
 1st derivatives      : Analytical E(r).r(x)/FMM algorithm (CHGder, D1EAlg=3).
                        Cavity 1st derivative terms included.
 Solvent              : n,n-DiMethylAcetamide, Eps=  37.781000 Eps(inf)=   2.067844
 ------------------------------------------------------------------------------
 GePol: Number of generator spheres                  =      33
 GePol: Total number of spheres                      =      33
 GePol: Number of exposed spheres                    =      33 (100.00%)
 GePol: Number of points                             =    2586
 GePol: Average weight of points                     =       0.11
 GePol: Minimum weight of points                     =   0.67D-08
 GePol: Maximum weight of points                     =    0.17992
 GePol: Number of points with low weight             =     117
 GePol: Fraction of low-weight points (<1% of avg)   =       4.52%
 GePol: Cavity surface area                          =    281.172 Ang**2
 GePol: Cavity volume                                =    275.472 Ang**3
 ------------------------------------------------------------------------------
 Atomic radii for non-electrostatic terms: SMD-CDS.
 ------------------------------------------------------------------------------
 PCM non-electrostatic energy =        -0.0048558287 Hartrees.
 Nuclear repulsion after PCM non-electrostatic terms =     1433.0278842006 Hartrees.
 Leave Link  301 at Tue Nov 23 14:58:24 2021, MaxMem=  5242880000 cpu:         1.6
 (Enter /opt/nce/packages/global/g09/l302.exe)
 NPDir=0 NMtPBC=     1 NCelOv=     1 NCel=       1 NClECP=     1 NCelD=      1
         NCelK=      1 NCelE2=     1 NClLst=     1 CellRange=     0.0.
 One-electron integrals computed using PRISM.
   1 Symmetry operations used in ECPInt.
 ECPInt:  NShTT=   37128 NPrTT=  114960 LenC2=   33635 LenP2D=   75065.
 LDataN:  DoStor=T MaxTD1= 6 Len=  172
 NBasis=   698 RedAO= T EigKep=  5.76D-06  NBF=   698
 NBsUse=   698 1.00D-06 EigRej= -1.00D+00 NBFU=   698
 Precomputing XC quadrature grid using
 IXCGrd= 4 IRadAn=           5 IRanWt=          -1 IRanGd=           0 AccXCQ= 0.00D+00.
 Generated NRdTot=       0 NPtTot=           0 NUsed=           0 NTot=          32
 NSgBfM=   785   785   785   785   785 MxSgAt=    33 MxSgA2=    33.
 Leave Link  302 at Tue Nov 23 14:58:26 2021, MaxMem=  5242880000 cpu:        13.3
 (Enter /opt/nce/packages/global/g09/l303.exe)
 DipDrv:  MaxL=1.
 Leave Link  303 at Tue Nov 23 14:58:26 2021, MaxMem=  5242880000 cpu:         1.5
 (Enter /opt/nce/packages/global/g09/l401.exe)
 ExpMin= 9.52D-02 ExpMax= 2.70D+04 ExpMxC= 9.22D+02 IAcc=3 IRadAn=         5 AccDes= 0.00D+00
 Harris functional with IExCor= 1009 and IRadAn=       5 diagonalized for initial guess.
 HarFok:  IExCor= 1009 AccDes= 0.00D+00 IRadAn=         5 IDoV= 1 UseB2=F ITyADJ=14
 ICtDFT=  3500011 ScaDFX=  1.000000  1.000000  1.000000  1.000000
 FoFCou: FMM=F IPFlag=           0 FMFlag=      100000 FMFlg1=           0
         NFxFlg=           0 DoJE=T BraDBF=F KetDBF=T FulRan=T
         wScrn=  0.000000 ICntrl=     500 IOpCl=  0 I1Cent=   200000004 NGrid=           0
         NMat0=    1 NMatS0=      1 NMatT0=    0 NMatD0=    1 NMtDS0=    0 NMtDT0=    0
 Symmetry not used in FoFCou.
 Harris En= -823.356441498068    
 JPrj=0 DoOrth=F DoCkMO=F.
 Leave Link  401 at Tue Nov 23 14:58:31 2021, MaxMem=  5242880000 cpu:        67.5
 (Enter /opt/nce/packages/global/g09/l502.exe)
 Closed shell SCF:
 Using DIIS extrapolation, IDIIS=  1040.
 Two-electron integral symmetry not used.
 IVT=     1943392 IEndB=     1943392 NGot=  5242880000 MDV=  5241590851
 LenX=  5241590851 LenY=  5240953249
 Requested convergence on RMS density matrix=1.00D-08 within 128 cycles.
 Requested convergence on MAX density matrix=1.00D-06.
 Requested convergence on             energy=1.00D-06.
 No special actions if energy rises.
 Fock matrices will be formed incrementally for  20 cycles.

 Cycle   1  Pass 1  IDiag  1:
 FoFJK:  IHMeth= 1 ICntrl=     500 DoSepK=F KAlg= 0 I1Cent=   0 FoldK=F
 IRaf= 820000000 NMat=   1 IRICut=       1 DoRegI=T DoRafI=F ISym2E= 0.
 FoFCou: FMM=F IPFlag=           0 FMFlag=      100000 FMFlg1=           0
         NFxFlg=           0 DoJE=T BraDBF=F KetDBF=F FulRan=T
         wScrn=  0.000000 ICntrl=     500 IOpCl=  0 I1Cent=           0 NGrid=           0
         NMat0=    1 NMatS0=      1 NMatT0=    0 NMatD0=    1 NMtDS0=    0 NMtDT0=    0
 Symmetry not used in FoFCou.
 Inv3:  Mode=1 IEnd=    20062188.
 Iteration    1 A*A^-1 deviation from unit magnitude is 6.22D-15 for   2586.
 Iteration    1 A*A^-1 deviation from orthogonality  is 3.06D-15 for   1067    105.
 Iteration    1 A^-1*A deviation from unit magnitude is 6.22D-15 for   2586.
 Iteration    1 A^-1*A deviation from orthogonality  is 2.64D-13 for   1532   1530.
 E= -822.643850154156    
 DIIS: error= 2.30D-02 at cycle   1 NSaved=   1.
 NSaved= 1 IEnMin= 1 EnMin= -822.643850154156     IErMin= 1 ErrMin= 2.30D-02
 ErrMax= 2.30D-02  0.00D+00 EMaxC= 1.00D-01 BMatC= 3.95D-01 BMatP= 3.95D-01
 IDIUse=3 WtCom= 7.70D-01 WtEn= 2.30D-01
 Coeff-Com:  0.100D+01
 Coeff-En:   0.100D+01
 Coeff:      0.100D+01
 Gap=     0.160 Goal=   None    Shift=    0.000
 GapD=    0.160 DampG=1.000 DampE=0.500 DampFc=0.5000 IDamp=-1.
 Damping current iteration by 5.00D-01
 RMSDP=3.77D-03 MaxDP=3.33D-01              OVMax= 3.39D-01

 Cycle   2  Pass 1  IDiag  1:
 RMSU=  1.88D-03    CP:  1.02D+00
 E= -822.711126880179     Delta-E=       -0.067276726023 Rises=F Damp=T
 DIIS: error= 1.33D-02 at cycle   2 NSaved=   2.
 NSaved= 2 IEnMin= 2 EnMin= -822.711126880179     IErMin= 2 ErrMin= 1.33D-02
 ErrMax= 1.33D-02  0.00D+00 EMaxC= 1.00D-01 BMatC= 8.38D-02 BMatP= 3.95D-01
 IDIUse=3 WtCom= 8.67D-01 WtEn= 1.33D-01
 Coeff-Com:  0.253D+00 0.747D+00
 Coeff-En:   0.421D+00 0.579D+00
 Coeff:      0.275D+00 0.725D+00
 Gap=     0.130 Goal=   None    Shift=    0.000
 RMSDP=2.54D-03 MaxDP=2.22D-01 DE=-6.73D-02 OVMax= 4.21D-01

 Cycle   3  Pass 1  IDiag  1:
 RMSU=  2.28D-03    CP:  1.06D+00  1.57D+00
 E= -822.930128030398     Delta-E=       -0.219001150219 Rises=F Damp=F
 DIIS: error= 1.51D-02 at cycle   3 NSaved=   3.
 NSaved= 3 IEnMin= 3 EnMin= -822.930128030398     IErMin= 2 ErrMin= 1.33D-02
 ErrMax= 1.51D-02  0.00D+00 EMaxC= 1.00D-01 BMatC= 1.01D-01 BMatP= 8.38D-02
 IDIUse=2 WtCom= 0.00D+00 WtEn= 1.00D+00
 Coeff-En:   0.000D+00 0.818D-01 0.918D+00
 Coeff:      0.000D+00 0.818D-01 0.918D+00
 Gap=     0.154 Goal=   None    Shift=    0.000
 RMSDP=3.73D-03 MaxDP=3.15D-01 DE=-2.19D-01 OVMax= 3.97D-01

 Cycle   4  Pass 1  IDiag  1:
 RMSU=  9.55D-04    CP:  9.67D-01  4.21D-01 -2.36D-01
 E= -822.466670855385     Delta-E=        0.463457175013 Rises=F Damp=F
 DIIS: error= 3.98D-02 at cycle   4 NSaved=   4.
 NSaved= 4 IEnMin= 3 EnMin= -822.930128030398     IErMin= 2 ErrMin= 1.33D-02
 ErrMax= 3.98D-02  0.00D+00 EMaxC= 1.00D-01 BMatC= 5.27D-01 BMatP= 8.38D-02
 IDIUse=2 WtCom= 0.00D+00 WtEn= 1.00D+00
 Coeff-En:   0.000D+00 0.000D+00 0.764D+00 0.236D+00
 Coeff:      0.000D+00 0.000D+00 0.764D+00 0.236D+00
 Gap=     0.138 Goal=   None    Shift=    0.000
 RMSDP=1.12D-03 MaxDP=6.83D-02 DE= 4.63D-01 OVMax= 2.02D-01

 Cycle   5  Pass 1  IDiag  1:
 RMSU=  3.29D-04    CP:  9.95D-01  6.61D-01  1.30D-01  5.25D-01
 E= -823.004232910365     Delta-E=       -0.537562054980 Rises=F Damp=F
 DIIS: error= 9.42D-03 at cycle   5 NSaved=   5.
 NSaved= 5 IEnMin= 5 EnMin= -823.004232910365     IErMin= 5 ErrMin= 9.42D-03
 ErrMax= 9.42D-03  0.00D+00 EMaxC= 1.00D-01 BMatC= 3.78D-02 BMatP= 8.38D-02
 IDIUse=3 WtCom= 9.06D-01 WtEn= 9.42D-02
 Coeff-Com: -0.380D-02 0.557D-01 0.294D+00-0.919D-01 0.746D+00
 Coeff-En:   0.000D+00 0.000D+00 0.327D+00 0.000D+00 0.673D+00
 Coeff:     -0.345D-02 0.504D-01 0.297D+00-0.832D-01 0.739D+00
 Gap=     0.108 Goal=   None    Shift=    0.000
 RMSDP=8.96D-04 MaxDP=7.91D-02 DE=-5.38D-01 OVMax= 9.87D-02

 Cycle   6  Pass 1  IDiag  1:
 RMSU=  7.81D-05    CP:  1.02D+00  9.56D-01  4.18D-01  3.22D-01  9.47D-01
 E= -823.045544578392     Delta-E=       -0.041311668027 Rises=F Damp=F
 DIIS: error= 1.01D-03 at cycle   6 NSaved=   6.
 NSaved= 6 IEnMin= 6 EnMin= -823.045544578392     IErMin= 6 ErrMin= 1.01D-03
 ErrMax= 1.01D-03  0.00D+00 EMaxC= 1.00D-01 BMatC= 7.26D-04 BMatP= 3.78D-02
 IDIUse=3 WtCom= 9.90D-01 WtEn= 1.01D-02
 Coeff-Com: -0.668D-02 0.307D-01 0.169D+00-0.752D-01 0.515D+00 0.366D+00
 Coeff-En:   0.000D+00 0.000D+00 0.000D+00 0.000D+00 0.000D+00 0.100D+01
 Coeff:     -0.662D-02 0.304D-01 0.168D+00-0.745D-01 0.510D+00 0.373D+00
 Gap=     0.108 Goal=   None    Shift=    0.000
 RMSDP=1.28D-04 MaxDP=1.30D-02 DE=-4.13D-02 OVMax= 9.88D-03

 Cycle   7  Pass 1  IDiag  1:
 RMSU=  3.42D-05    CP:  1.01D+00  9.16D-01  3.81D-01  3.19D-01  1.01D+00
                    CP:  4.48D-01
 E= -823.046180971865     Delta-E=       -0.000636393473 Rises=F Damp=F
 DIIS: error= 2.12D-04 at cycle   7 NSaved=   7.
 NSaved= 7 IEnMin= 7 EnMin= -823.046180971865     IErMin= 7 ErrMin= 2.12D-04
 ErrMax= 2.12D-04  0.00D+00 EMaxC= 1.00D-01 BMatC= 3.30D-05 BMatP= 7.26D-04
 IDIUse=3 WtCom= 9.98D-01 WtEn= 2.12D-03
 Coeff-Com: -0.291D-02 0.124D-01 0.724D-01-0.321D-01 0.218D+00 0.216D+00
 Coeff-Com:  0.517D+00
 Coeff-En:   0.000D+00 0.000D+00 0.000D+00 0.000D+00 0.000D+00 0.000D+00
 Coeff-En:   0.100D+01
 Coeff:     -0.290D-02 0.124D-01 0.723D-01-0.321D-01 0.217D+00 0.215D+00
 Coeff:      0.518D+00
 Gap=     0.108 Goal=   None    Shift=    0.000
 RMSDP=4.08D-05 MaxDP=3.97D-03 DE=-6.36D-04 OVMax= 2.72D-03

 Cycle   8  Pass 1  IDiag  1:
 RMSU=  7.51D-06    CP:  1.01D+00  9.29D-01  3.93D-01  3.20D-01  9.93D-01
                    CP:  5.45D-01  6.49D-01
 E= -823.046202497746     Delta-E=       -0.000021525881 Rises=F Damp=F
 DIIS: error= 9.26D-05 at cycle   8 NSaved=   8.
 NSaved= 8 IEnMin= 8 EnMin= -823.046202497746     IErMin= 8 ErrMin= 9.26D-05
 ErrMax= 9.26D-05  0.00D+00 EMaxC= 1.00D-01 BMatC= 8.94D-06 BMatP= 3.30D-05
 IDIUse=1 WtCom= 1.00D+00 WtEn= 0.00D+00
 Coeff-Com: -0.362D-03 0.117D-02 0.114D-01-0.461D-02 0.296D-01 0.698D-01
 Coeff-Com:  0.380D+00 0.513D+00
 Coeff:     -0.362D-03 0.117D-02 0.114D-01-0.461D-02 0.296D-01 0.698D-01
 Coeff:      0.380D+00 0.513D+00
 Gap=     0.107 Goal=   None    Shift=    0.000
 RMSDP=9.35D-06 MaxDP=8.73D-04 DE=-2.15D-05 OVMax= 9.49D-04

 Cycle   9  Pass 1  IDiag  1:
 RMSU=  2.53D-06    CP:  1.01D+00  9.26D-01  3.91D-01  3.20D-01  1.00D+00
                    CP:  5.31D-01  7.50D-01  6.40D-01
 E= -823.046209263576     Delta-E=       -0.000006765830 Rises=F Damp=F
 DIIS: error= 3.24D-05 at cycle   9 NSaved=   9.
 NSaved= 9 IEnMin= 9 EnMin= -823.046209263576     IErMin= 9 ErrMin= 3.24D-05
 ErrMax= 3.24D-05  0.00D+00 EMaxC= 1.00D-01 BMatC= 3.97D-07 BMatP= 8.94D-06
 IDIUse=1 WtCom= 1.00D+00 WtEn= 0.00D+00
 Coeff-Com:  0.182D-04-0.848D-04 0.262D-02-0.739D-03 0.420D-02 0.273D-01
 Coeff-Com:  0.187D+00 0.287D+00 0.493D+00
 Coeff:      0.182D-04-0.848D-04 0.262D-02-0.739D-03 0.420D-02 0.273D-01
 Coeff:      0.187D+00 0.287D+00 0.493D+00
 Gap=     0.107 Goal=   None    Shift=    0.000
 RMSDP=1.69D-06 MaxDP=1.47D-04 DE=-6.77D-06 OVMax= 2.64D-04

 Cycle  10  Pass 1  IDiag  1:
 RMSU=  6.98D-07    CP:  1.01D+00  9.27D-01  3.91D-01  3.20D-01  9.99D-01
                    CP:  5.31D-01  7.46D-01  6.66D-01  7.02D-01
 E= -823.046209628508     Delta-E=       -0.000000364932 Rises=F Damp=F
 DIIS: error= 8.58D-06 at cycle  10 NSaved=  10.
 NSaved=10 IEnMin=10 EnMin= -823.046209628508     IErMin=10 ErrMin= 8.58D-06
 ErrMax= 8.58D-06  0.00D+00 EMaxC= 1.00D-01 BMatC= 6.02D-08 BMatP= 3.97D-07
 IDIUse=1 WtCom= 1.00D+00 WtEn= 0.00D+00
 Coeff-Com:  0.619D-04-0.115D-03 0.312D-03-0.515D-05-0.830D-03 0.912D-02
 Coeff-Com:  0.742D-01 0.119D+00 0.319D+00 0.479D+00
 Coeff:      0.619D-04-0.115D-03 0.312D-03-0.515D-05-0.830D-03 0.912D-02
 Coeff:      0.742D-01 0.119D+00 0.319D+00 0.479D+00
 Gap=     0.107 Goal=   None    Shift=    0.000
 RMSDP=3.30D-07 MaxDP=2.09D-05 DE=-3.65D-07 OVMax= 7.80D-05

 Cycle  11  Pass 1  IDiag  1:
 RMSU=  2.13D-07    CP:  1.01D+00  9.27D-01  3.91D-01  3.20D-01  9.99D-01
                    CP:  5.31D-01  7.49D-01  6.61D-01  7.20D-01  7.27D-01
 E= -823.046209684553     Delta-E=       -0.000000056045 Rises=F Damp=F
 DIIS: error= 1.19D-06 at cycle  11 NSaved=  11.
 NSaved=11 IEnMin=11 EnMin= -823.046209684553     IErMin=11 ErrMin= 1.19D-06
 ErrMax= 1.19D-06  0.00D+00 EMaxC= 1.00D-01 BMatC= 8.64D-10 BMatP= 6.02D-08
 IDIUse=1 WtCom= 1.00D+00 WtEn= 0.00D+00
 Coeff-Com:  0.290D-04-0.479D-04 0.269D-04 0.322D-04-0.534D-03 0.252D-02
 Coeff-Com:  0.218D-01 0.351D-01 0.107D+00 0.190D+00 0.644D+00
 Coeff:      0.290D-04-0.479D-04 0.269D-04 0.322D-04-0.534D-03 0.252D-02
 Coeff:      0.218D-01 0.351D-01 0.107D+00 0.190D+00 0.644D+00
 Gap=     0.107 Goal=   None    Shift=    0.000
 RMSDP=6.28D-08 MaxDP=4.28D-06 DE=-5.60D-08 OVMax= 1.09D-05

 Cycle  12  Pass 1  IDiag  1:
 RMSU=  4.91D-08    CP:  1.01D+00  9.27D-01  3.91D-01  3.20D-01  9.99D-01
                    CP:  5.31D-01  7.49D-01  6.61D-01  7.25D-01  7.27D-01
                    CP:  9.33D-01
 E= -823.046209685278     Delta-E=       -0.000000000725 Rises=F Damp=F
 DIIS: error= 5.25D-07 at cycle  12 NSaved=  12.
 NSaved=12 IEnMin=12 EnMin= -823.046209685278     IErMin=12 ErrMin= 5.25D-07
 ErrMax= 5.25D-07  0.00D+00 EMaxC= 1.00D-01 BMatC= 1.77D-10 BMatP= 8.64D-10
 IDIUse=1 WtCom= 1.00D+00 WtEn= 0.00D+00
 Coeff-Com:  0.121D-04-0.194D-04 0.408D-05 0.162D-04-0.213D-03 0.778D-03
 Coeff-Com:  0.687D-02 0.110D-01 0.368D-01 0.724D-01 0.387D+00 0.486D+00
 Coeff:      0.121D-04-0.194D-04 0.408D-05 0.162D-04-0.213D-03 0.778D-03
 Coeff:      0.687D-02 0.110D-01 0.368D-01 0.724D-01 0.387D+00 0.486D+00
 Gap=     0.107 Goal=   None    Shift=    0.000
 RMSDP=4.27D-08 MaxDP=3.62D-06 DE=-7.25D-10 OVMax= 5.73D-06

 Cycle  13  Pass 1  IDiag  1:
 RMSU=  1.67D-08    CP:  1.01D+00  9.27D-01  3.91D-01  3.20D-01  9.99D-01
                    CP:  5.31D-01  7.49D-01  6.61D-01  7.27D-01  7.31D-01
                    CP:  9.36D-01  7.67D-01
 E= -823.046209685445     Delta-E=       -0.000000000166 Rises=F Damp=F
 DIIS: error= 1.58D-07 at cycle  13 NSaved=  13.
 NSaved=13 IEnMin=13 EnMin= -823.046209685445     IErMin=13 ErrMin= 1.58D-07
 ErrMax= 1.58D-07  0.00D+00 EMaxC= 1.00D-01 BMatC= 1.44D-11 BMatP= 1.77D-10
 IDIUse=1 WtCom= 1.00D+00 WtEn= 0.00D+00
 Coeff-Com:  0.436D-05-0.768D-05-0.207D-05 0.730D-05-0.779D-04 0.221D-03
 Coeff-Com:  0.200D-02 0.314D-02 0.116D-01 0.246D-01 0.163D+00 0.277D+00
 Coeff-Com:  0.518D+00
 Coeff:      0.436D-05-0.768D-05-0.207D-05 0.730D-05-0.779D-04 0.221D-03
 Coeff:      0.200D-02 0.314D-02 0.116D-01 0.246D-01 0.163D+00 0.277D+00
 Coeff:      0.518D+00
 Gap=     0.107 Goal=   None    Shift=    0.000
 RMSDP=7.41D-09 MaxDP=3.43D-07 DE=-1.66D-10 OVMax= 1.80D-06

 Error on total polarization charges =  0.05844
 SCF Done:  E(RPBE-PBE) =  -823.046209685     A.U. after   13 cycles
            NFock= 13  Conv=0.74D-08     -V/T= 2.0042
 KE= 8.196164979213D+02 PE=-4.781381444704D+03 EE= 1.705690852897D+03
 SMD-CDS (non-electrostatic) energy       (kcal/mol) =      -3.05
 (included in total energy above)
 Leave Link  502 at Tue Nov 23 15:03:41 2021, MaxMem=  5242880000 cpu:      3688.6
 (Enter /opt/nce/packages/global/g09/l601.exe)
 Copying SCF densities to generalized density rwf, IOpCl= 0 IROHF=0.

 **********************************************************************

            Population analysis using the SCF density.

 **********************************************************************

 Alpha  occ. eigenvalues --  -18.80182 -14.03121  -9.94679  -9.94677  -9.93431
 Alpha  occ. eigenvalues --   -9.93429  -9.92605  -9.88884  -9.88844  -9.88766
 Alpha  occ. eigenvalues --   -9.88743  -9.88675  -9.88441  -9.88441  -9.88396
 Alpha  occ. eigenvalues --   -9.88395  -9.88081  -9.88081  -9.87956  -9.87956
 Alpha  occ. eigenvalues --   -0.99808  -0.89815  -0.79439  -0.78830  -0.76529
 Alpha  occ. eigenvalues --   -0.69723  -0.69487  -0.69150  -0.68357  -0.66490
 Alpha  occ. eigenvalues --   -0.63965  -0.58776  -0.58594  -0.55506  -0.54302
 Alpha  occ. eigenvalues --   -0.53386  -0.52269  -0.50753  -0.48679  -0.45189
 Alpha  occ. eigenvalues --   -0.44513  -0.42899  -0.42111  -0.42042  -0.41970
 Alpha  occ. eigenvalues --   -0.40329  -0.39069  -0.38883  -0.38480  -0.38195
 Alpha  occ. eigenvalues --   -0.37682  -0.34595  -0.34091  -0.33831  -0.33567
 Alpha  occ. eigenvalues --   -0.32706  -0.31975  -0.31332  -0.31162  -0.30560
 Alpha  occ. eigenvalues --   -0.29060  -0.28711  -0.24339  -0.23784  -0.23736
 Alpha  occ. eigenvalues --   -0.23266  -0.21094  -0.16189
 Alpha virt. eigenvalues --   -0.05443  -0.04993  -0.04491  -0.03862  -0.03374
 Alpha virt. eigenvalues --   -0.00671   0.02899   0.03425   0.04708   0.05267
 Alpha virt. eigenvalues --    0.06137   0.06917   0.07649   0.07798   0.08592
 Alpha virt. eigenvalues --    0.08922   0.09823   0.09842   0.10014   0.10127
 Alpha virt. eigenvalues --    0.10285   0.11552   0.11806   0.12452   0.13073
 Alpha virt. eigenvalues --    0.15376   0.15920   0.16393   0.16971   0.16981
 Alpha virt. eigenvalues --    0.17868   0.17908   0.18352   0.18487   0.18801
 Alpha virt. eigenvalues --    0.18884   0.19533   0.19778   0.20236   0.20736
 Alpha virt. eigenvalues --    0.21290   0.21677   0.22161   0.22194   0.23270
 Alpha virt. eigenvalues --    0.23317   0.24589   0.24797   0.24835   0.25373
 Alpha virt. eigenvalues --    0.25400   0.25713   0.27464   0.28117   0.28377
 Alpha virt. eigenvalues --    0.28798   0.29493   0.29656   0.30382   0.30702
 Alpha virt. eigenvalues --    0.30891   0.31501   0.31708   0.32299   0.32789
 Alpha virt. eigenvalues --    0.33959   0.33978   0.34133   0.34487   0.35226
 Alpha virt. eigenvalues --    0.35920   0.36449   0.36855   0.37745   0.38934
 Alpha virt. eigenvalues --    0.39366   0.39805   0.40086   0.40114   0.40174
 Alpha virt. eigenvalues --    0.40733   0.41203   0.41770   0.42189   0.42259
 Alpha virt. eigenvalues --    0.42367   0.43188   0.43886   0.44427   0.44598
 Alpha virt. eigenvalues --    0.45100   0.45273   0.45276   0.46151   0.46571
 Alpha virt. eigenvalues --    0.46720   0.46785   0.47637   0.49148   0.49260
 Alpha virt. eigenvalues --    0.50344   0.51161   0.52046   0.52572   0.52957
 Alpha virt. eigenvalues --    0.54205   0.55231   0.56568   0.57054   0.58635
 Alpha virt. eigenvalues --    0.59672   0.60139   0.60897   0.61674   0.62086
 Alpha virt. eigenvalues --    0.62586   0.63293   0.63348   0.64111   0.64202
 Alpha virt. eigenvalues --    0.64397   0.64507   0.65253   0.66217   0.66341
 Alpha virt. eigenvalues --    0.67474   0.68290   0.68754   0.68791   0.69241
 Alpha virt. eigenvalues --    0.69458   0.71039   0.71607   0.71769   0.72401
 Alpha virt. eigenvalues --    0.72792   0.74260   0.74606   0.75914   0.75960
 Alpha virt. eigenvalues --    0.76298   0.76456   0.76933   0.78888   0.79970
 Alpha virt. eigenvalues --    0.81078   0.81585   0.81686   0.82398   0.82909
 Alpha virt. eigenvalues --    0.83825   0.84165   0.85361   0.85783   0.86119
 Alpha virt. eigenvalues --    0.87311   0.87401   0.87727   0.88590   0.88980
 Alpha virt. eigenvalues --    0.89933   0.91632   0.91666   0.95545   0.95615
 Alpha virt. eigenvalues --    0.96077   0.97603   0.98601   0.99239   1.00039
 Alpha virt. eigenvalues --    1.01695   1.02549   1.03247   1.04731   1.05362
 Alpha virt. eigenvalues --    1.06657   1.07101   1.07480   1.08486   1.08633
 Alpha virt. eigenvalues --    1.09364   1.10139   1.10820   1.12390   1.13111
 Alpha virt. eigenvalues --    1.13374   1.14712   1.16623   1.17077   1.17793
 Alpha virt. eigenvalues --    1.19019   1.19047   1.20560   1.20614   1.20885
 Alpha virt. eigenvalues --    1.21339   1.21579   1.22028   1.22565   1.24256
 Alpha virt. eigenvalues --    1.24803   1.26412   1.26560   1.27923   1.28053
 Alpha virt. eigenvalues --    1.28730   1.30314   1.32415   1.33136   1.34279
 Alpha virt. eigenvalues --    1.34867   1.35284   1.35355   1.38148   1.38692
 Alpha virt. eigenvalues --    1.39790   1.40485   1.40851   1.41327   1.41767
 Alpha virt. eigenvalues --    1.42745   1.42949   1.43921   1.44743   1.45297
 Alpha virt. eigenvalues --    1.46088   1.46977   1.49077   1.50009   1.50275
 Alpha virt. eigenvalues --    1.51205   1.52158   1.52832   1.53638   1.54271
 Alpha virt. eigenvalues --    1.55080   1.55491   1.56776   1.56786   1.58071
 Alpha virt. eigenvalues --    1.58866   1.59055   1.60253   1.60644   1.61492
 Alpha virt. eigenvalues --    1.61564   1.62283   1.63203   1.63324   1.63961
 Alpha virt. eigenvalues --    1.65033   1.65535   1.65619   1.66268   1.66526
 Alpha virt. eigenvalues --    1.68253   1.68615   1.69373   1.69806   1.71375
 Alpha virt. eigenvalues --    1.71874   1.72365   1.76322   1.78331   1.78665
 Alpha virt. eigenvalues --    1.79650   1.80913   1.80945   1.82066   1.84808
 Alpha virt. eigenvalues --    1.86558   1.86981   1.87244   1.87274   1.89841
 Alpha virt. eigenvalues --    1.90364   1.91508   1.93074   1.93920   1.95695
 Alpha virt. eigenvalues --    1.95841   1.97505   1.97942   1.98308   1.98665
 Alpha virt. eigenvalues --    2.01361   2.01472   2.03195   2.03214   2.03651
 Alpha virt. eigenvalues --    2.05937   2.06614   2.06717   2.08247   2.09603
 Alpha virt. eigenvalues --    2.09721   2.10994   2.11189   2.11646   2.12826
 Alpha virt. eigenvalues --    2.14103   2.14692   2.16613   2.16677   2.17684
 Alpha virt. eigenvalues --    2.18035   2.20273   2.20481   2.22587   2.26920
 Alpha virt. eigenvalues --    2.28001   2.28962   2.30393   2.31815   2.32187
 Alpha virt. eigenvalues --    2.32862   2.38379   2.38703   2.39646   2.41811
 Alpha virt. eigenvalues --    2.42503   2.43186   2.43767   2.45419   2.46026
 Alpha virt. eigenvalues --    2.47613   2.48534   2.49852   2.51142   2.51696
 Alpha virt. eigenvalues --    2.52063   2.52508   2.52672   2.53930   2.54334
 Alpha virt. eigenvalues --    2.55210   2.56280   2.56596   2.57428   2.58716
 Alpha virt. eigenvalues --    2.58725   2.59291   2.60051   2.60384   2.61144
 Alpha virt. eigenvalues --    2.61679   2.62264   2.62935   2.63851   2.64129
 Alpha virt. eigenvalues --    2.64293   2.64827   2.65065   2.65925   2.65976
 Alpha virt. eigenvalues --    2.66756   2.66791   2.67058   2.68551   2.69382
 Alpha virt. eigenvalues --    2.69592   2.70391   2.70737   2.71710   2.72188
 Alpha virt. eigenvalues --    2.72965   2.73634   2.73725   2.74448   2.76738
 Alpha virt. eigenvalues --    2.77447   2.77898   2.78721   2.79150   2.79574
 Alpha virt. eigenvalues --    2.80619   2.80854   2.81066   2.81741   2.82427
 Alpha virt. eigenvalues --    2.83074   2.84303   2.85480   2.85578   2.86666
 Alpha virt. eigenvalues --    2.87386   2.88438   2.89018   2.89058   2.91767
 Alpha virt. eigenvalues --    2.92091   2.92695   2.93085   2.94952   2.95261
 Alpha virt. eigenvalues --    2.95838   2.97758   2.99135   3.00864   3.01030
 Alpha virt. eigenvalues --    3.02802   3.03489   3.03945   3.04326   3.04645
 Alpha virt. eigenvalues --    3.06177   3.06979   3.07465   3.07573   3.07773
 Alpha virt. eigenvalues --    3.08353   3.09058   3.09271   3.10142   3.10706
 Alpha virt. eigenvalues --    3.10782   3.11285   3.12528   3.12589   3.13811
 Alpha virt. eigenvalues --    3.15535   3.15884   3.16362   3.17808   3.17812
 Alpha virt. eigenvalues --    3.19335   3.20452   3.20579   3.21153   3.22237
 Alpha virt. eigenvalues --    3.22475   3.23258   3.24404   3.24607   3.25366
 Alpha virt. eigenvalues --    3.26654   3.27416   3.27745   3.28482   3.28662
 Alpha virt. eigenvalues --    3.29028   3.29833   3.30500   3.31557   3.31612
 Alpha virt. eigenvalues --    3.32350   3.32485   3.33255   3.33999   3.35058
 Alpha virt. eigenvalues --    3.35337   3.36672   3.37989   3.38303   3.38846
 Alpha virt. eigenvalues --    3.39962   3.40222   3.40292   3.41257   3.41985
 Alpha virt. eigenvalues --    3.42192   3.43448   3.43634   3.43847   3.45005
 Alpha virt. eigenvalues --    3.45223   3.45624   3.47017   3.47239   3.49068
 Alpha virt. eigenvalues --    3.49101   3.50975   3.52643   3.54449   3.54544
 Alpha virt. eigenvalues --    3.55355   3.55855   3.57193   3.60918   3.60997
 Alpha virt. eigenvalues --    3.61913   3.62215   3.63382   3.66518   3.68618
 Alpha virt. eigenvalues --    3.69167   3.71168   3.73198   3.74531   3.74967
 Alpha virt. eigenvalues --    3.77612   3.79738   3.80908   3.81989   3.84009
 Alpha virt. eigenvalues --    3.84292   3.84922   3.86816   3.90120   3.90179
 Alpha virt. eigenvalues --    3.91583   3.92670   3.96657   3.97387   3.97585
 Alpha virt. eigenvalues --    4.00173   4.00634   4.01340   4.03164   4.03250
 Alpha virt. eigenvalues --    4.04680   4.04760   4.05986   4.06622   4.06955
 Alpha virt. eigenvalues --    4.08911   4.09640   4.09947   4.11451   4.12442
 Alpha virt. eigenvalues --    4.13277   4.14251   4.14907   4.15683   4.15738
 Alpha virt. eigenvalues --    4.16262   4.16522   4.17354   4.19049   4.19973
 Alpha virt. eigenvalues --    4.21526   4.21699   4.23219   4.24388   4.24829
 Alpha virt. eigenvalues --    4.26098   4.27398   4.33188   4.34163   4.35505
 Alpha virt. eigenvalues --    4.36575   4.37977   4.41023   4.43646   4.47333
 Alpha virt. eigenvalues --    4.51014   4.53274   4.54470   4.55268   4.56377
 Alpha virt. eigenvalues --    4.58108   4.59254   4.61561   4.63750   4.65084
 Alpha virt. eigenvalues --    4.66840   4.69245   4.69280   4.72762   4.72829
 Alpha virt. eigenvalues --    4.76284   4.77106   4.79490   4.81738   4.83642
 Alpha virt. eigenvalues --    4.84998   4.88891   4.90544   4.93077   4.93961
 Alpha virt. eigenvalues --    4.98109   5.01663   5.02797   5.05517   5.06411
 Alpha virt. eigenvalues --    5.08416   5.09021   5.16662   5.18139   5.18748
 Alpha virt. eigenvalues --    5.20035   5.21838   5.24057   5.27094   5.28896
 Alpha virt. eigenvalues --    5.32937   5.34211   5.37462   5.45310   5.45622
 Alpha virt. eigenvalues --    5.47205   5.47925   5.48670   5.57296   5.72733
 Alpha virt. eigenvalues --    5.73224   5.76174   5.78702   5.92141   5.96607
 Alpha virt. eigenvalues --    6.02493   6.05964   6.07330   6.32745   6.54563
 Alpha virt. eigenvalues --    6.61250   6.74285   6.78221   7.27272   7.33572
 Alpha virt. eigenvalues --   21.88583  22.03329  22.03727  22.33634  22.35674
 Alpha virt. eigenvalues --   22.35754  22.39469  22.44320  22.45096  22.51873
 Alpha virt. eigenvalues --   22.58964  22.60407  22.64811  22.66271  22.74779
 Alpha virt. eigenvalues --   23.00437  23.07833  23.22282  32.93263  44.03217
          Condensed to atoms (all electrons):
               1          2          3          4          5          6
     1  C    5.183701   0.263447   0.139215  -0.211300   0.135950   0.321579
     2  C    0.263447   5.428128   0.129015   0.222831  -0.218669   0.115254
     3  C    0.139215   0.129015   5.515646  -0.041444   0.187952  -0.191904
     4  C   -0.211300   0.222831  -0.041444   5.434244   0.137151   0.163533
     5  C    0.135950  -0.218669   0.187952   0.137151   5.414002   0.238707
     6  C    0.321579   0.115254  -0.191904   0.163533   0.238707   5.160101
     7  C   -0.001716   0.013641  -0.064501  -0.001229  -0.011933   0.000235
     8  C    0.001876   0.001137  -0.029257  -0.064498   0.015437  -0.002206
     9  C   -0.000190   0.001842   0.001137   0.013641  -0.001753   0.000174
    10  H    0.000007  -0.000000  -0.001400  -0.000033   0.000023  -0.000003
    11  C    0.000030  -0.000190   0.001876  -0.001716   0.000304  -0.000025
    12  C   -0.000025   0.000174  -0.002206   0.000235  -0.000511   0.000045
    13  C    0.000304  -0.001753   0.015437  -0.011934   0.004413  -0.000511
    14  H   -0.044757   0.438189  -0.055874   0.007289  -0.002005   0.010798
    15  H    0.023523  -0.011613   0.034650  -0.122260   0.481094  -0.073368
    16  H   -0.000000  -0.000001   0.000059  -0.000010   0.000000  -0.000000
    17  N    0.006974  -0.099014   0.420228  -0.067715   0.004193   0.000669
    18  C   -0.005773  -0.023700  -0.081623  -0.000944   0.001387  -0.000322
    19  C    0.001260  -0.001469   0.010357   0.000109  -0.000119  -0.000096
    20  C    0.000265   0.000734   0.007533   0.002249   0.000301  -0.000200
    21  C    0.000042  -0.003044  -0.005400  -0.000576  -0.000090   0.000091
    22  C    0.000131  -0.000836  -0.002552  -0.000505   0.000043  -0.000021
    23  H    0.000069  -0.000445   0.002129  -0.000004   0.000052  -0.000020
    24  C   -0.000010   0.000362   0.001377   0.000114   0.000005  -0.000004
    25  H   -0.000003   0.000035  -0.000046  -0.000001  -0.000000   0.000000
    26  H   -0.000000  -0.000012   0.000014   0.000001   0.000000  -0.000000
    27  H    0.000024  -0.000098   0.001432  -0.001762   0.000650  -0.000053
    28  H    0.446501  -0.067864   0.017718  -0.005326   0.017687  -0.064083
    29  O   -0.000781   0.009364  -0.075325   0.334164  -0.047335   0.003673
    30  H   -0.000000   0.000001  -0.000031   0.000057  -0.000004   0.000000
    31  H   -0.074903   0.022544  -0.010363   0.026048  -0.079024   0.459447
    32  H   -0.000004  -0.000028  -0.000029  -0.000002   0.000000  -0.000000
    33  H    0.000232   0.002192   0.003713   0.000494   0.000144  -0.000126
               7          8          9         10         11         12
     1  C   -0.001716   0.001876  -0.000190   0.000007   0.000030  -0.000025
     2  C    0.013641   0.001137   0.001842  -0.000000  -0.000190   0.000174
     3  C   -0.064501  -0.029257   0.001137  -0.001400   0.001876  -0.002206
     4  C   -0.001229  -0.064498   0.013641  -0.000033  -0.001716   0.000235
     5  C   -0.011933   0.015437  -0.001753   0.000023   0.000304  -0.000511
     6  C    0.000235  -0.002206   0.000174  -0.000003  -0.000025   0.000045
     7  C    5.434259  -0.041451   0.222853   0.007290  -0.211316   0.163547
     8  C   -0.041451   5.515675   0.128976  -0.055877   0.139227  -0.191919
     9  C    0.222853   0.128976   5.428180   0.438194   0.263421   0.115282
    10  H    0.007290  -0.055877   0.438194   0.499427  -0.044757   0.010799
    11  C   -0.211316   0.139227   0.263421  -0.044757   5.183725   0.321553
    12  C    0.163547  -0.191919   0.115282   0.010799   0.321553   5.160127
    13  C    0.137122   0.187973  -0.218703  -0.002005   0.135976   0.238678
    14  H   -0.000033  -0.001400  -0.000000  -0.000005   0.000007  -0.000003
    15  H   -0.001763   0.001432  -0.000098   0.000000   0.000024  -0.000053
    16  H   -0.005327   0.017720  -0.067868  -0.008354   0.446506  -0.064086
    17  N   -0.067714   0.420220  -0.099018  -0.007572   0.006974   0.000669
    18  C   -0.000945  -0.081628  -0.023689   0.003019  -0.005775  -0.000321
    19  C    0.000110   0.010365  -0.001474   0.001376   0.001263  -0.000096
    20  C    0.002250   0.007529   0.000731   0.002617   0.000266  -0.000200
    21  C   -0.000576  -0.005403  -0.003043  -0.000269   0.000042   0.000091
    22  C   -0.000505  -0.002553  -0.000835   0.000005   0.000131  -0.000021
    23  H   -0.000004   0.002131  -0.000445   0.000089   0.000069  -0.000020
    24  C    0.000114   0.001378   0.000362   0.000982  -0.000010  -0.000004
    25  H   -0.000001  -0.000046   0.000035  -0.000020  -0.000003   0.000000
    26  H    0.000001   0.000014  -0.000012   0.000009  -0.000000  -0.000000
    27  H   -0.122262   0.034650  -0.011614   0.000018   0.023525  -0.073370
    28  H   -0.000010   0.000059  -0.000001   0.000000  -0.000000  -0.000000
    29  O    0.334163  -0.075326   0.009365  -0.000092  -0.000782   0.003673
    30  H    0.026050  -0.010364   0.022545  -0.000195  -0.074905   0.459451
    31  H    0.000057  -0.000031   0.000001   0.000000  -0.000000   0.000000
    32  H   -0.000002  -0.000029  -0.000028   0.000004  -0.000004  -0.000000
    33  H    0.000494   0.003713   0.002192  -0.000249   0.000232  -0.000126
              13         14         15         16         17         18
     1  C    0.000304  -0.044757   0.023523  -0.000000   0.006974  -0.005773
     2  C   -0.001753   0.438189  -0.011613  -0.000001  -0.099014  -0.023700
     3  C    0.015437  -0.055874   0.034650   0.000059   0.420228  -0.081623
     4  C   -0.011934   0.007289  -0.122260  -0.000010  -0.067715  -0.000944
     5  C    0.004413  -0.002005   0.481094   0.000000   0.004193   0.001387
     6  C   -0.000511   0.010798  -0.073368  -0.000000   0.000669  -0.000322
     7  C    0.137122  -0.000033  -0.001763  -0.005327  -0.067714  -0.000945
     8  C    0.187973  -0.001400   0.001432   0.017720   0.420220  -0.081628
     9  C   -0.218703  -0.000000  -0.000098  -0.067868  -0.099018  -0.023689
    10  H   -0.002005  -0.000005   0.000000  -0.008354  -0.007572   0.003019
    11  C    0.135976   0.000007   0.000024   0.446506   0.006974  -0.005775
    12  C    0.238678  -0.000003  -0.000053  -0.064086   0.000669  -0.000321
    13  C    5.414046   0.000023   0.000650   0.017688   0.004192   0.001386
    14  H    0.000023   0.499426   0.000018   0.000000  -0.007572   0.003015
    15  H    0.000650   0.000018   0.540007   0.000000   0.000022   0.000097
    16  H    0.017688   0.000000   0.000000   0.532098  -0.000139  -0.000013
    17  N    0.004192  -0.007572   0.000022  -0.000139   6.282561   0.106061
    18  C    0.001386   0.003015   0.000097  -0.000013   0.106061   5.574280
    19  C   -0.000118   0.001382   0.000001   0.000014  -0.040679   0.315618
    20  C    0.000301   0.002619  -0.000000   0.000023  -0.028626   0.316709
    21  C   -0.000090  -0.000271   0.000000  -0.000018   0.018678   0.095028
    22  C    0.000043   0.000004   0.000000   0.000003   0.010710   0.025220
    23  H    0.000052   0.000089   0.000000   0.000004   0.005826  -0.093298
    24  C    0.000005   0.000982  -0.000000   0.000000   0.001286  -0.169765
    25  H   -0.000000  -0.000020  -0.000000  -0.000000  -0.000513   0.022149
    26  H    0.000000   0.000009   0.000000   0.000000  -0.000003  -0.003916
    27  H    0.481097   0.000000   0.000321  -0.000163   0.000022   0.000097
    28  H    0.000000  -0.008353  -0.000163  -0.000000  -0.000139  -0.000013
    29  O   -0.047336  -0.000092   0.007902   0.000016  -0.007364  -0.004518
    30  H   -0.079027   0.000000  -0.000001  -0.009369   0.000008  -0.000018
    31  H   -0.000004  -0.000195  -0.011407   0.000000   0.000008  -0.000018
    32  H    0.000000   0.000004  -0.000000   0.000000  -0.000348   0.016677
    33  H    0.000144  -0.000248  -0.000000   0.000011  -0.006111  -0.070969
              19         20         21         22         23         24
     1  C    0.001260   0.000265   0.000042   0.000131   0.000069  -0.000010
     2  C   -0.001469   0.000734  -0.003044  -0.000836  -0.000445   0.000362
     3  C    0.010357   0.007533  -0.005400  -0.002552   0.002129   0.001377
     4  C    0.000109   0.002249  -0.000576  -0.000505  -0.000004   0.000114
     5  C   -0.000119   0.000301  -0.000090   0.000043   0.000052   0.000005
     6  C   -0.000096  -0.000200   0.000091  -0.000021  -0.000020  -0.000004
     7  C    0.000110   0.002250  -0.000576  -0.000505  -0.000004   0.000114
     8  C    0.010365   0.007529  -0.005403  -0.002553   0.002131   0.001378
     9  C   -0.001474   0.000731  -0.003043  -0.000835  -0.000445   0.000362
    10  H    0.001376   0.002617  -0.000269   0.000005   0.000089   0.000982
    11  C    0.001263   0.000266   0.000042   0.000131   0.000069  -0.000010
    12  C   -0.000096  -0.000200   0.000091  -0.000021  -0.000020  -0.000004
    13  C   -0.000118   0.000301  -0.000090   0.000043   0.000052   0.000005
    14  H    0.001382   0.002619  -0.000271   0.000004   0.000089   0.000982
    15  H    0.000001  -0.000000   0.000000   0.000000   0.000000  -0.000000
    16  H    0.000014   0.000023  -0.000018   0.000003   0.000004   0.000000
    17  N   -0.040679  -0.028626   0.018678   0.010710   0.005826   0.001286
    18  C    0.315618   0.316709   0.095028   0.025220  -0.093298  -0.169765
    19  C    5.203046   0.085877   0.228927  -0.113389   0.014578   0.097854
    20  C    0.085877   5.056435  -0.134636   0.386437   0.461234   0.063393
    21  C    0.228927  -0.134636   5.197986   0.060457  -0.006236   0.337362
    22  C   -0.113389   0.386437   0.060457   5.049252  -0.054791   0.366246
    23  H    0.014578   0.461234  -0.006236  -0.054791   0.525175   0.017324
    24  C    0.097854   0.063393   0.337362   0.366246   0.017324   5.075324
    25  H   -0.005698  -0.060643   0.015966   0.443111  -0.010821  -0.067214
    26  H    0.015248   0.013120  -0.058072  -0.057493  -0.000189   0.436235
    27  H    0.000001  -0.000000   0.000000   0.000000   0.000000  -0.000000
    28  H    0.000014   0.000023  -0.000018   0.000003   0.000004   0.000000
    29  O    0.000093   0.000315  -0.000001  -0.000017   0.000067   0.000003
    30  H    0.000001   0.000001  -0.000000  -0.000000  -0.000000   0.000000
    31  H    0.000001   0.000001  -0.000000  -0.000000  -0.000000   0.000000
    32  H   -0.058061  -0.002896   0.436343   0.013381   0.000070  -0.060600
    33  H    0.458170   0.014197  -0.067920  -0.003643  -0.000169   0.014738
              25         26         27         28         29         30
     1  C   -0.000003  -0.000000   0.000024   0.446501  -0.000781  -0.000000
     2  C    0.000035  -0.000012  -0.000098  -0.067864   0.009364   0.000001
     3  C   -0.000046   0.000014   0.001432   0.017718  -0.075325  -0.000031
     4  C   -0.000001   0.000001  -0.001762  -0.005326   0.334164   0.000057
     5  C   -0.000000   0.000000   0.000650   0.017687  -0.047335  -0.000004
     6  C    0.000000  -0.000000  -0.000053  -0.064083   0.003673   0.000000
     7  C   -0.000001   0.000001  -0.122262  -0.000010   0.334163   0.026050
     8  C   -0.000046   0.000014   0.034650   0.000059  -0.075326  -0.010364
     9  C    0.000035  -0.000012  -0.011614  -0.000001   0.009365   0.022545
    10  H   -0.000020   0.000009   0.000018   0.000000  -0.000092  -0.000195
    11  C   -0.000003  -0.000000   0.023525  -0.000000  -0.000782  -0.074905
    12  C    0.000000  -0.000000  -0.073370  -0.000000   0.003673   0.459451
    13  C   -0.000000   0.000000   0.481097   0.000000  -0.047336  -0.079027
    14  H   -0.000020   0.000009   0.000000  -0.008353  -0.000092   0.000000
    15  H   -0.000000   0.000000   0.000321  -0.000163   0.007902  -0.000001
    16  H   -0.000000   0.000000  -0.000163  -0.000000   0.000016  -0.009369
    17  N   -0.000513  -0.000003   0.000022  -0.000139  -0.007364   0.000008
    18  C    0.022149  -0.003916   0.000097  -0.000013  -0.004518  -0.000018
    19  C   -0.005698   0.015248   0.000001   0.000014   0.000093   0.000001
    20  C   -0.060643   0.013120  -0.000000   0.000023   0.000315   0.000001
    21  C    0.015966  -0.058072   0.000000  -0.000018  -0.000001  -0.000000
    22  C    0.443111  -0.057493   0.000000   0.000003  -0.000017  -0.000000
    23  H   -0.010821  -0.000189   0.000000   0.000004   0.000067  -0.000000
    24  C   -0.067214   0.436235  -0.000000   0.000000   0.000003   0.000000
    25  H    0.527508  -0.008510  -0.000000  -0.000000  -0.000000   0.000000
    26  H   -0.008510   0.526827   0.000000   0.000000   0.000000   0.000000
    27  H   -0.000000   0.000000   0.540007   0.000000   0.007903  -0.011407
    28  H   -0.000000   0.000000   0.000000   0.532096   0.000016   0.000000
    29  O   -0.000000   0.000000   0.007903   0.000016   7.740776  -0.000133
    30  H    0.000000   0.000000  -0.011407   0.000000  -0.000133   0.535853
    31  H    0.000000   0.000000  -0.000001  -0.009369  -0.000133   0.000000
    32  H   -0.000281  -0.008945  -0.000000   0.000000  -0.000000   0.000000
    33  H    0.000034  -0.000171  -0.000000   0.000011  -0.000052  -0.000000
              31         32         33
     1  C   -0.074903  -0.000004   0.000232
     2  C    0.022544  -0.000028   0.002192
     3  C   -0.010363  -0.000029   0.003713
     4  C    0.026048  -0.000002   0.000494
     5  C   -0.079024   0.000000   0.000144
     6  C    0.459447  -0.000000  -0.000126
     7  C    0.000057  -0.000002   0.000494
     8  C   -0.000031  -0.000029   0.003713
     9  C    0.000001  -0.000028   0.002192
    10  H    0.000000   0.000004  -0.000249
    11  C   -0.000000  -0.000004   0.000232
    12  C    0.000000  -0.000000  -0.000126
    13  C   -0.000004   0.000000   0.000144
    14  H   -0.000195   0.000004  -0.000248
    15  H   -0.011407  -0.000000  -0.000000
    16  H    0.000000   0.000000   0.000011
[...]
 Alpha virt. eigenvalues --   22.54271  22.57387  22.61563  22.61988  22.76999
 Alpha virt. eigenvalues --   22.93924  23.05735  23.20759  32.96538  44.09470
          Condensed to atoms (all electrons):
               1          2          3          4          5          6
     1  C    5.179917   0.288088   0.118156  -0.196544   0.106671   0.345621
     2  C    0.288088   5.379717   0.167471   0.201990  -0.185906   0.092558
     3  C    0.118156   0.167471   5.500445  -0.025243   0.177933  -0.179996
     4  C   -0.196544   0.201990  -0.025243   5.403402   0.175753   0.134409
     5  C    0.106671  -0.185906   0.177933   0.175753   5.327945   0.307247
     6  C    0.345621   0.092558  -0.179996   0.134409   0.307247   5.104773
     7  C   -0.001472   0.012494  -0.065256  -0.006453  -0.013454   0.000659
     8  C    0.000923   0.007268  -0.032456  -0.065256   0.013875  -0.001322
     9  C   -0.000251   0.001633   0.007268   0.012494  -0.001807   0.000210
    10  H    0.000003   0.000048  -0.001483  -0.000112   0.000014  -0.000001
    11  C    0.000031  -0.000251   0.000923  -0.001472   0.000259  -0.000021
    12  C   -0.000021   0.000210  -0.001322   0.000659  -0.000336   0.000020
    13  C    0.000259  -0.001807   0.013875  -0.013454   0.002708  -0.000336
    14  H   -0.044077   0.433567  -0.052228   0.006764  -0.001698   0.010068
    15  H    0.022460  -0.010786   0.033487  -0.121242   0.479005  -0.071126
    16  H    0.000000  -0.000002   0.000044  -0.000013  -0.000000   0.000000
    17  N    0.008352  -0.100998   0.425464  -0.064839   0.006137  -0.000579
    18  C   -0.005336  -0.035811  -0.082096   0.001168   0.002647  -0.000899
    19  C    0.000102   0.001094   0.007205   0.001672  -0.000204   0.000057
    20  C    0.000105   0.001113   0.007219   0.001676  -0.000207   0.000059
    21  C    0.000188  -0.002328  -0.002701  -0.000519   0.000035  -0.000015
    22  C    0.000185  -0.002324  -0.002694  -0.000516   0.000034  -0.000015
    23  H    0.000048   0.000632   0.002452   0.000224  -0.000006  -0.000003
    24  C   -0.000050   0.000574   0.000795   0.000109  -0.000009   0.000008
    25  H   -0.000003   0.000004  -0.000025  -0.000001   0.000000  -0.000000
    26  H   -0.000001  -0.000011   0.000011   0.000001  -0.000000   0.000000
    27  H    0.000020  -0.000090   0.001379  -0.001791   0.000526  -0.000041
    28  H    0.444893  -0.066716   0.017200  -0.004672   0.015634  -0.061854
    29  O   -0.000261   0.008493  -0.076445   0.333622  -0.046648   0.002159
    30  H   -0.000000   0.000001  -0.000027   0.000054  -0.000004   0.000000
    31  H   -0.074160   0.021249  -0.009837   0.025796  -0.078264   0.458047
    32  H   -0.000003   0.000004  -0.000025  -0.000001   0.000000  -0.000000
    33  H    0.000047   0.000626   0.002454   0.000229  -0.000006  -0.000002
               7          8          9         10         11         12
     1  C   -0.001472   0.000923  -0.000251   0.000003   0.000031  -0.000021
     2  C    0.012494   0.007268   0.001633   0.000048  -0.000251   0.000210
     3  C   -0.065256  -0.032456   0.007268  -0.001483   0.000923  -0.001322
     4  C   -0.006453  -0.065256   0.012494  -0.000112  -0.001472   0.000659
     5  C   -0.013454   0.013875  -0.001807   0.000014   0.000259  -0.000336
     6  C    0.000659  -0.001322   0.000210  -0.000001  -0.000021   0.000020
     7  C    5.403402  -0.025243   0.201990   0.006764  -0.196544   0.134409
     8  C   -0.025243   5.500445   0.167471  -0.052228   0.118156  -0.179996
     9  C    0.201990   0.167471   5.379716   0.433567   0.288088   0.092558
    10  H    0.006764  -0.052228   0.433567   0.498336  -0.044077   0.010068
    11  C   -0.196544   0.118156   0.288088  -0.044077   5.179917   0.345621
    12  C    0.134409  -0.179996   0.092558   0.010068   0.345621   5.104774
    13  C    0.175753   0.177933  -0.185906  -0.001698   0.106671   0.307247
    14  H   -0.000112  -0.001483   0.000048  -0.000001   0.000003  -0.000001
    15  H   -0.001791   0.001379  -0.000090   0.000000   0.000020  -0.000041
    16  H   -0.004672   0.017200  -0.066716  -0.008205   0.444893  -0.061854
    17  N   -0.064839   0.425464  -0.100998  -0.008143   0.008352  -0.000579
    18  C    0.001168  -0.082096  -0.035811   0.003802  -0.005337  -0.000899
    19  C    0.001672   0.007204   0.001094   0.002541   0.000102   0.000057
    20  C    0.001676   0.007220   0.001113   0.002528   0.000105   0.000059
    21  C   -0.000519  -0.002701  -0.002327  -0.000247   0.000188  -0.000015
    22  C   -0.000516  -0.002694  -0.002324  -0.000237   0.000185  -0.000015
    23  H    0.000224   0.002452   0.000632   0.000006   0.000048  -0.000003
    24  C    0.000109   0.000795   0.000574   0.001112  -0.000050   0.000008
    25  H   -0.000001  -0.000025   0.000004  -0.000011  -0.000003  -0.000000
    26  H    0.000001   0.000011  -0.000011   0.000010  -0.000001   0.000000
    27  H   -0.121242   0.033487  -0.010786   0.000020   0.022460  -0.071126
    28  H   -0.000013   0.000044  -0.000002  -0.000000   0.000000   0.000000
    29  O    0.333622  -0.076445   0.008493  -0.000092  -0.000261   0.002159
    30  H    0.025796  -0.009837   0.021249  -0.000183  -0.074160   0.458047
    31  H    0.000054  -0.000027   0.000001   0.000000  -0.000000   0.000000
    32  H   -0.000001  -0.000025   0.000004  -0.000011  -0.000003  -0.000000
    33  H    0.000229   0.002455   0.000626   0.000008   0.000047  -0.000002
              13         14         15         16         17         18
     1  C    0.000259  -0.044077   0.022460   0.000000   0.008352  -0.005336
     2  C   -0.001807   0.433567  -0.010786  -0.000002  -0.100998  -0.035811
     3  C    0.013875  -0.052228   0.033487   0.000044   0.425464  -0.082096
     4  C   -0.013454   0.006764  -0.121242  -0.000013  -0.064839   0.001168
     5  C    0.002708  -0.001698   0.479005  -0.000000   0.006137   0.002647
     6  C   -0.000336   0.010068  -0.071126   0.000000  -0.000579  -0.000899
     7  C    0.175753  -0.000112  -0.001791  -0.004672  -0.064839   0.001168
     8  C    0.177933  -0.001483   0.001379   0.017200   0.425464  -0.082096
     9  C   -0.185906   0.000048  -0.000090  -0.066716  -0.100998  -0.035811
    10  H   -0.001698  -0.000001   0.000000  -0.008205  -0.008143   0.003802
    11  C    0.106671   0.000003   0.000020   0.444893   0.008352  -0.005337
    12  C    0.307247  -0.000001  -0.000041  -0.061854  -0.000579  -0.000899
    13  C    5.327945   0.000014   0.000526   0.015634   0.006137   0.002647
    14  H    0.000014   0.498336   0.000020  -0.000000  -0.008143   0.003802
    15  H    0.000526   0.000020   0.540111   0.000000   0.000057   0.000109
    16  H    0.015634  -0.000000   0.000000   0.531455  -0.000106   0.000044
    17  N    0.006137  -0.008143   0.000057  -0.000106   6.242342   0.102178
    18  C    0.002647   0.003802   0.000109   0.000044   0.102178   5.478597
    19  C   -0.000204   0.002541  -0.000001  -0.000014  -0.040431   0.412542
    20  C   -0.000207   0.002529  -0.000001  -0.000014  -0.040410   0.412022
    21  C    0.000035  -0.000247   0.000000   0.000004   0.013747   0.010136
    22  C    0.000034  -0.000237   0.000000   0.000003   0.013755   0.010253
    23  H   -0.000006   0.000006  -0.000000   0.000002  -0.000386  -0.070239
    24  C   -0.000009   0.001112  -0.000000  -0.000004   0.001330  -0.124899
    25  H    0.000000  -0.000011  -0.000000   0.000000  -0.000401   0.016784
    26  H   -0.000000   0.000010   0.000000  -0.000000  -0.000006  -0.003021
    27  H    0.479005   0.000000   0.000289  -0.000174   0.000057   0.000109
    28  H   -0.000000  -0.008205  -0.000174  -0.000000  -0.000106   0.000044
    29  O   -0.046648  -0.000092   0.008591   0.000018  -0.006716  -0.005040
    30  H   -0.078264   0.000000  -0.000001  -0.008890   0.000004  -0.000020
    31  H   -0.000004  -0.000183  -0.011400   0.000000   0.000004  -0.000020
    32  H    0.000000  -0.000011  -0.000000   0.000000  -0.000401   0.016790
    33  H   -0.000006   0.000008  -0.000000   0.000002  -0.000395  -0.070256
              19         20         21         22         23         24
     1  C    0.000102   0.000105   0.000188   0.000185   0.000048  -0.000050
     2  C    0.001094   0.001113  -0.002328  -0.002324   0.000632   0.000574
     3  C    0.007205   0.007219  -0.002701  -0.002694   0.002452   0.000795
     4  C    0.001672   0.001676  -0.000519  -0.000516   0.000224   0.000109
     5  C   -0.000204  -0.000207   0.000035   0.000034  -0.000006  -0.000009
     6  C    0.000057   0.000059  -0.000015  -0.000015  -0.000003   0.000008
     7  C    0.001672   0.001676  -0.000519  -0.000516   0.000224   0.000109
     8  C    0.007204   0.007220  -0.002701  -0.002694   0.002452   0.000795
     9  C    0.001094   0.001113  -0.002327  -0.002324   0.000632   0.000574
    10  H    0.002541   0.002528  -0.000247  -0.000237   0.000006   0.001112
    11  C    0.000102   0.000105   0.000188   0.000185   0.000048  -0.000050
    12  C    0.000057   0.000059  -0.000015  -0.000015  -0.000003   0.000008
    13  C   -0.000204  -0.000207   0.000035   0.000034  -0.000006  -0.000009
    14  H    0.002541   0.002529  -0.000247  -0.000237   0.000006   0.001112
    15  H   -0.000001  -0.000001   0.000000   0.000000  -0.000000  -0.000000
    16  H   -0.000014  -0.000014   0.000004   0.000003   0.000002  -0.000004
    17  N   -0.040431  -0.040410   0.013747   0.013755  -0.000386   0.001330
    18  C    0.412542   0.412022   0.010136   0.010253  -0.070239  -0.124899
    19  C    5.057156   0.020283   0.353245  -0.079564   0.010707   0.042199
    20  C    0.020283   5.057718  -0.079595   0.352786   0.449349   0.042355
    21  C    0.353245  -0.079595   5.081943   0.026945  -0.003267   0.386970
    22  C   -0.079564   0.352786   0.026945   5.082323  -0.055575   0.386861
    23  H    0.010707   0.449349  -0.003267  -0.055575   0.516027   0.013320
    24  C    0.042199   0.042355   0.386970   0.386861   0.013320   5.040695
    25  H   -0.003471  -0.055751   0.013256   0.434998  -0.009267  -0.060712
    26  H    0.012617   0.012620  -0.055106  -0.055105  -0.000197   0.432003
    27  H   -0.000001  -0.000001   0.000000   0.000000  -0.000000  -0.000000
    28  H   -0.000014  -0.000014   0.000004   0.000003   0.000002  -0.000004
    29  O    0.000200   0.000200  -0.000008  -0.000008  -0.000003   0.000002
    30  H    0.000001   0.000001  -0.000000  -0.000000  -0.000000   0.000000
    31  H    0.000001   0.000001  -0.000000  -0.000000  -0.000000   0.000000
    32  H   -0.055766  -0.003477   0.435015   0.013262   0.000055  -0.060724
    33  H    0.449356   0.010718  -0.055584  -0.003273  -0.000244   0.013325
              25         26         27         28         29         30
     1  C   -0.000003  -0.000001   0.000020   0.444893  -0.000261  -0.000000
     2  C    0.000004  -0.000011  -0.000090  -0.066716   0.008493   0.000001
     3  C   -0.000025   0.000011   0.001379   0.017200  -0.076445  -0.000027
     4  C   -0.000001   0.000001  -0.001791  -0.004672   0.333622   0.000054
     5  C    0.000000  -0.000000   0.000526   0.015634  -0.046648  -0.000004
     6  C   -0.000000   0.000000  -0.000041  -0.061854   0.002159   0.000000
     7  C   -0.000001   0.000001  -0.121242  -0.000013   0.333622   0.025796
     8  C   -0.000025   0.000011   0.033487   0.000044  -0.076445  -0.009837
     9  C    0.000004  -0.000011  -0.010786  -0.000002   0.008493   0.021249
    10  H   -0.000011   0.000010   0.000020  -0.000000  -0.000092  -0.000183
    11  C   -0.000003  -0.000001   0.022460   0.000000  -0.000261  -0.074160
    12  C   -0.000000   0.000000  -0.071126   0.000000   0.002159   0.458047
    13  C    0.000000  -0.000000   0.479005  -0.000000  -0.046648  -0.078264
    14  H   -0.000011   0.000010   0.000000  -0.008205  -0.000092   0.000000
    15  H   -0.000000   0.000000   0.000289  -0.000174   0.008591  -0.000001
    16  H    0.000000  -0.000000  -0.000174  -0.000000   0.000018  -0.008890
    17  N   -0.000401  -0.000006   0.000057  -0.000106  -0.006716   0.000004
    18  C    0.016784  -0.003021   0.000109   0.000044  -0.005040  -0.000020
    19  C   -0.003471   0.012617  -0.000001  -0.000014   0.000200   0.000001
    20  C   -0.055751   0.012620  -0.000001  -0.000014   0.000200   0.000001
    21  C    0.013256  -0.055106   0.000000   0.000004  -0.000008  -0.000000
    22  C    0.434998  -0.055105   0.000000   0.000003  -0.000008  -0.000000
    23  H   -0.009267  -0.000197  -0.000000   0.000002  -0.000003  -0.000000
    24  C   -0.060712   0.432003  -0.000000  -0.000004   0.000002   0.000000
    25  H    0.526510  -0.008229  -0.000000   0.000000  -0.000000   0.000000
    26  H   -0.008229   0.524782   0.000000  -0.000000   0.000000   0.000000
    27  H   -0.000000   0.000000   0.540111   0.000000   0.008591  -0.011400
    28  H    0.000000  -0.000000   0.000000   0.531455   0.000018   0.000000
    29  O   -0.000000   0.000000   0.008591   0.000018   7.731541  -0.000140
    30  H    0.000000   0.000000  -0.011400   0.000000  -0.000140   0.535487
    31  H    0.000000   0.000000  -0.000001  -0.008890  -0.000140   0.000000
    32  H   -0.000272  -0.008231  -0.000000   0.000000  -0.000000   0.000000
    33  H    0.000055  -0.000197  -0.000000   0.000002  -0.000003  -0.000000
              31         32         33
     1  C   -0.074160  -0.000003   0.000047
     2  C    0.021249   0.000004   0.000626
     3  C   -0.009837  -0.000025   0.002454
     4  C    0.025796  -0.000001   0.000229
     5  C   -0.078264   0.000000  -0.000006
     6  C    0.458047  -0.000000  -0.000002
     7  C    0.000054  -0.000001   0.000229
     8  C   -0.000027  -0.000025   0.002455
     9  C    0.000001   0.000004   0.000626
    10  H    0.000000  -0.000011   0.000008
    11  C   -0.000000  -0.000003   0.000047
    12  C    0.000000  -0.000000  -0.000002
    13  C   -0.000004   0.000000  -0.000006
    14  H   -0.000183  -0.000011   0.000008
    15  H   -0.011400  -0.000000  -0.000000
    16  H    0.000000   0.000000   0.000002
    17  N    0.000004  -0.000401  -0.000395
    18  C   -0.000020   0.016790  -0.070256
    19  C    0.000001  -0.055766   0.449356
    20  C    0.000001  -0.003477   0.010718
    21  C   -0.000000   0.435015  -0.055584
    22  C   -0.000000   0.013262  -0.003273
    23  H   -0.000000   0.000055  -0.000244
    24  C    0.000000  -0.060724   0.013325
    25  H    0.000000  -0.000272   0.000055
    26  H    0.000000  -0.008231  -0.000197
    27  H   -0.000001  -0.000000  -0.000000
    28  H   -0.008890   0.000000   0.000002
    29  O   -0.000140  -0.000000  -0.000003
    30  H    0.000000   0.000000  -0.000000
    31  H    0.535487   0.000000  -0.000000
    32  H    0.000000   0.526518  -0.009268
    33  H   -0.000000  -0.009268   0.516020
 Mulliken charges:
               1
     1  C   -0.193889
     2  C   -0.211803
     3  C    0.048052
     4  C    0.202106
     5  C   -0.287876
     6  C   -0.139686
     7  C    0.202106
     8  C    0.048052
     9  C   -0.211803
    10  H    0.157901
    11  C   -0.193889
    12  C   -0.139686
    13  C   -0.287876
    14  H    0.157902
    15  H    0.130603
    16  H    0.141364
    17  N    0.185096
    18  C    0.046937
    19  C   -0.203979
    20  C   -0.203773
    21  C   -0.116533
    22  C   -0.116536
    23  H    0.143009
    24  C   -0.117796
    25  H    0.146572
    26  H    0.148051
    27  H    0.130603
    28  H    0.141364
    29  O   -0.178762
    30  H    0.142285
    31  H    0.142285
    32  H    0.146568
    33  H    0.143032
 Sum of Mulliken charges =  -0.00000
 Mulliken charges with hydrogens summed into heavy atoms:
               1
     1  C   -0.052526
     2  C   -0.053902
     3  C    0.048052
     4  C    0.202106
     5  C   -0.157273
     6  C    0.002600
     7  C    0.202106
     8  C    0.048052
     9  C   -0.053902
    11  C   -0.052526
    12  C    0.002600
    13  C   -0.157273
    17  N    0.185096
    18  C    0.046937
    19  C   -0.060947
    20  C   -0.060764
    21  C    0.030035
    22  C    0.030037
    24  C    0.030255
    29  O   -0.178762
 Electronic spatial extent (au):  <R**2>=           5134.3226
 Charge=             -0.0000 electrons
 Dipole moment (field-independent basis, Debye):
    X=             -3.4318    Y=             -0.0000    Z=             -0.0001  Tot=              3.4318
 Quadrupole moment (field-independent basis, Debye-Ang):
   XX=            -99.4310   YY=           -110.7891   ZZ=           -114.8533
   XY=              0.0000   XZ=              0.0088   YZ=              0.0001
 Traceless Quadrupole moment (field-independent basis, Debye-Ang):
   XX=              8.9268   YY=             -2.4313   ZZ=             -6.4955
   XY=              0.0000   XZ=              0.0088   YZ=              0.0001
 Octapole moment (field-independent basis, Debye-Ang**2):
  XXX=            -37.9475  YYY=              0.0003  ZZZ=              0.0251  XYY=             23.2095
  XXY=             -0.0002  XXZ=              0.0247  XZZ=            -25.1384  YZZ=             -0.0001
  YYZ=             -0.0203  XYZ=             -0.0003
 Hexadecapole moment (field-independent basis, Debye-Ang**3):
 XXXX=          -3199.4377 YYYY=          -2814.6968 ZZZZ=           -355.4502 XXXY=              0.0006
 XXXZ=              0.0991 YYYX=             -0.0005 YYYZ=             -0.0008 ZZZX=             -0.0109
 ZZZY=              0.0010 XXYY=          -1083.8322 XXZZ=           -639.5379 YYZZ=           -667.0423
 XXYZ=              0.0013 YYXZ=              0.1132 ZZXY=              0.0005
 N-N= 1.426535686777D+03 E-N=-4.767965484204D+03  KE= 8.191493500564D+02
 Leave Link  601 at Tue Nov 23 18:28:54 2021, MaxMem=  5242880000 cpu:         2.9
 (Enter /opt/nce/packages/global/g09/l9999.exe)
 1\1\GINC-CN083\SP\RPBEPBE TD-FC\Gen\C18H13N1O1\PNG4RJV\23-Nov-2021\0\\
 #p PBEPBE chkbasis geom=allcheck Guess=Read int=ultrafine scrf=(SMD,so
 lvent=n,n-DiMethylAcetamide) td=(NStates=30) EmpiricalDispersion=GD3BJ
 \\Title\\0,1\C,0,0.6512983306,-3.6435391592,-0.0474862115\C,0,-0.09056
 21982,-2.4564080075,-0.0445713597\C,0,0.5496064511,-1.2096355125,-0.04
 75377295\C,0,1.9597160534,-1.1869970352,-0.0535453136\C,0,2.6961153607
 ,-2.3640161069,-0.0565011731\C,0,2.0436971704,-3.6043426825,-0.0535529
 859\C,0,1.9595926158,1.1872076297,-0.0534250813\C,0,0.5494807553,1.209
 6985837,-0.0474167643\C,0,-0.0908174384,2.4564042579,-0.0443283647\H,0
 ,-1.1802578255,2.4934225002,-0.0396832565\C,0,0.6509192993,3.643612955
 1,-0.0471250075\C,0,2.0433221915,3.6045621195,-0.0531921056\C,0,2.6958
 694337,2.3643036471,-0.056261347\H,0,-1.1799987469,-2.4935400785,-0.03
 99272509\H,0,3.7855689649,-2.2964030816,-0.0612358583\H,0,0.1241415379
 ,4.5992329374,-0.0446049865\N,0,-0.1545022354,-0.0000052246,-0.0448247
 265\C,0,-1.5881091865,-0.0000805683,-0.0403698883\C,0,-2.2840204917,-0
 .0000690125,-1.2522390552\C,0,-2.2766550204,-0.0001656524,1.1756894387
 \C,0,-3.6805789968,-0.0001463167,-1.2452207859\C,0,-3.6732410439,-0.00
 02421428,1.17714321\H,0,-1.7132064869,-0.0001723084,2.1105055094\C,0,-
 4.3749028838,-0.0002325517,-0.0319232608\H,0,-4.2143700399,-0.00030924
 25,2.1250294811\H,0,-5.466485694,-0.0002925859,-0.0286182468\H,0,3.785
 3301146,2.2968044271,-0.0609997699\H,0,0.1246204774,-4.5992144567,-0.0
 450595515\O,0,2.6716247424,0.0001425394,-0.0568783658\H,0,2.6289789344
 ,4.5246890828,-0.0554426634\H,0,2.6294492735,-4.5244087423,-0.05589577
 22\H,0,-4.2274483677,-0.0001384392,-2.1898092174\H,0,-1.7262340507,-0.
 0000017719,-2.1904455395\\Version=ES64L-G09RevE.01\State=1-A\HF=-823.0
 488594\RMSD=6.853e-09\PG=C01 [X(C18H13N1O1)]\\@


 IF NO USE IS MADE OF THE LABOR OF PAST AGES,
 THE WORLD MUST REMAIN ALWAYS IN THE INFANCY OF KNOWLEDGE.

                          -- CICERO
 Job cpu time:       0 days 11 hours 45 minutes  6.6 seconds.
 File lengths (MBytes):  RWF=   1811 Int=      0 D2E=      0 Chk=    439 Scr=      1
 Normal termination of Gaussian 09 at Tue Nov 23 18:28:55 2021.
