 Entering Gaussian System, Link 0=g09
 Input=/home/png4rjv/fotokatalizis/benchmark/OPCs/RESTART_2/POZ_4_B3LYP-D3_def2TZVP.gjf
 Output=/home/png4rjv/fotokatalizis/benchmark/OPCs/RESTART_2/POZ_4_B3LYP-D3_def2TZVP.log
 Initial command:
 /opt/nce/packages/global/g09/l1.exe "/home/png4rjv/fotokatalizis/benchmark/OPCs/RESTART_2/POZ_4_B3LYP-D3_def2TZVP/Gau-48112.inp" -scrdir="/home/png4rjv/fotokatalizis/benchmark/OPCs/RESTART_2/POZ_4_B3LYP-D3_def2TZVP/"
 Default is to use a total of  12 processors:
                               12 via shared-memory
                                1 via Linda
 Entering Link 1 = /opt/nce/packages/global/g09/l1.exe PID=     48113.
  
 Copyright (c) 1988,1990,1992,1993,1995,1998,2003,2009,2015,
            Gaussian, Inc.  All Rights Reserved.
  
 This is part of the Gaussian(R) 09 program.  It is based on
 the Gaussian(R) 03 system (copyright 2003, Gaussian, Inc.),
 the Gaussian(R) 98 system (copyright 1998, Gaussian, Inc.),
 the Gaussian(R) 94 system (copyright 1995, Gaussian, Inc.),
 the Gaussian 92(TM) system (copyright 1992, Gaussian, Inc.),
 the Gaussian 90(TM) system (copyright 1990, Gaussian, Inc.),
 the Gaussian 88(TM) system (copyright 1988, Gaussian, Inc.),
 the Gaussian 86(TM) system (copyright 1986, Carnegie Mellon
 University), and the Gaussian 82(TM) system (copyright 1983,
 Carnegie Mellon University). Gaussian is a federally registered
 trademark of Gaussian, Inc.
  
 This software contains proprietary and confidential information,
 including trade secrets, belonging to Gaussian, Inc.
  
 This software is provided under written license and may be
 used, copied, transmitted, or stored only in accord with that
 written license.
  
 The following legend is applicable only to US Government
 contracts under FAR:
  
                    RESTRICTED RIGHTS LEGEND
  
 Use, reproduction and disclosure by the US Government is
 subject to restrictions as set forth in subparagraphs (a)
 and (c) of the Commercial Computer Software - Restricted
 Rights clause in FAR 52.227-19.
  
 Gaussian, Inc.
 340 Quinnipiac St., Bldg. 40, Wallingford CT 06492
  
  
 ---------------------------------------------------------------
 Warning -- This program may not be used in any manner that
 competes with the business of Gaussian, Inc. or will provide
 assistance to any competitor of Gaussian, Inc.  The licensee
 of this program is prohibited from giving any competitor of
 Gaussian, Inc. access to this program.  By using this program,
 the user acknowledges that Gaussian, Inc. is engaged in the
 business of creating and licensing software in the field of
 computational chemistry and represents and warrants to the
 licensee that it is not a competitor of Gaussian, Inc. and that
 it will not use this program in any manner prohibited above.
 ---------------------------------------------------------------
  

 Cite this work as:
 Gaussian 09, Revision E.01,
 M. J. Frisch, G. W. Trucks, H. B. Schlegel, G. E. Scuseria, 
 M. A. Robb, J. R. Cheeseman, G. Scalmani, V. Barone, B. Mennucci, 
 G. A. Petersson, H. Nakatsuji, M. Caricato, X. Li, H. P. Hratchian, 
 A. F. Izmaylov, J. Bloino, G. Zheng, J. L. Sonnenberg, M. Hada, 
 M. Ehara, K. Toyota, R. Fukuda, J. Hasegawa, M. Ishida, T. Nakajima, 
 Y. Honda, O. Kitao, H. Nakai, T. Vreven, J. A. Montgomery, Jr., 
 J. E. Peralta, F. Ogliaro, M. Bearpark, J. J. Heyd, E. Brothers, 
 K. N. Kudin, V. N. Staroverov, T. Keith, R. Kobayashi, J. Normand, 
 K. Raghavachari, A. Rendell, J. C. Burant, S. S. Iyengar, J. Tomasi, 
 M. Cossi, N. Rega, J. M. Millam, M. Klene, J. E. Knox, J. B. Cross, 
 V. Bakken, C. Adamo, J. Jaramillo, R. Gomperts, R. E. Stratmann, 
 O. Yazyev, A. J. Austin, R. Cammi, C. Pomelli, J. W. Ochterski, 
 R. L. Martin, K. Morokuma, V. G. Zakrzewski, G. A. Voth, 
 P. Salvador, J. J. Dannenberg, S. Dapprich, A. D. Daniels, 
 O. Farkas, J. B. Foresman, J. V. Ortiz, J. Cioslowski, 
 and D. J. Fox, Gaussian, Inc., Wallingford CT, 2013.
 
 ******************************************
 Gaussian 09:  ES64L-G09RevE.01 30-Nov-2015
                23-Nov-2021 
 ******************************************
 %chk=cp.chk
 Default route:  MaxDisk=500GB
 ----------------------------------------------------------------------
 #p b3lyp/def2TZVP opt=tight freq=noraman nosymm int=ultrafine scrf=(SM
 D,solvent=n,n-DiMethylAcetamide) EmpiricalDispersion=GD3BJ
 ----------------------------------------------------------------------
 1/7=10,14=-1,18=20,19=15,26=4,38=1/1,3;
 2/9=110,12=2,15=1,17=6,18=5,40=1/2;
 3/5=44,7=101,11=2,16=1,25=1,30=1,70=32201,71=1,72=147,74=-5,75=-5,124=41/1,2,3;
 4//1;
 5/5=2,38=5,53=147/2;
 6/7=2,8=2,9=2,10=2,28=1/1;
 7/30=1/1,2,3,16;
 1/7=10,14=-1,18=20,19=15,26=4/3(2);
 2/9=110,15=1/2;
 99//99;
 2/9=110,15=1/2;
 3/5=44,7=101,11=2,16=1,25=1,30=1,70=32205,71=1,72=147,74=-5,75=-5,124=41/1,2,3;
 4/5=5,16=3,69=1/1;
 5/5=2,38=5,53=147/2;
 7/30=1/1,2,3,16;
 1/7=10,14=-1,18=20,19=15,26=4/3(-5);
 2/9=110,15=1/2;
 6/7=2,8=2,9=2,10=2,19=2,28=1/1;
 99/9=1/99;
 Leave Link    1 at Tue Nov 23 10:54:08 2021, MaxMem=           0 cpu:         2.2
 (Enter /opt/nce/packages/global/g09/l101.exe)
 -----
 Title
 -----
 Symbolic Z-matrix:
 Charge =  0 Multiplicity = 1
 C                     0.65303  -3.61761  -0.2401 
 C                    -0.08549  -2.44152  -0.12008 
 C                     0.54541  -1.2051    0.04995 
 C                     1.94209  -1.18034   0.09994 
 C                     2.67538  -2.3445   -0.04008 
 C                     2.03256  -3.57589  -0.2001 
 C                     1.94196   1.18054   0.10002 
 C                     0.54528   1.20516   0.05003 
 C                    -0.08574   2.44151  -0.11988 
 H                    -1.16481   2.4856   -0.14986 
 C                     0.65265   3.61768  -0.23982 
 C                     2.03219   3.57611  -0.19984 
 C                     2.67513   2.34478  -0.03992 
 H                    -1.16455  -2.48572  -0.15009 
 H                     3.75519  -2.27333   0.00992 
 H                     0.13329   4.5667   -0.35975 
 N                    -0.15843  -0.00001   0.19996 
 C                    -1.58391  -0.00008   0.11998 
 C                    -2.21262   0.00005  -1.12199 
 C                    -2.33259  -0.00028   1.28197 
 C                    -3.59743  -0.00003  -1.18068 
 C                    -3.71741  -0.00035   1.22069 
 H                    -1.81776  -0.00037   2.24124 
 C                    -4.35004  -0.00023  -0.01999 
 H                    -4.29661  -0.00051   2.12882 
 H                    -5.43224  -0.00028  -0.06998 
 H                     3.75495   2.27372   0.01007 
 H                     0.13376  -4.56669  -0.36012 
 O                     2.64104   0.00014   0.34993 
 H                     2.61382   4.48778  -0.28979 
 H                     2.61429  -4.4875   -0.29011 
 H                    -4.09665   0.00007  -2.1488 
 H                    -1.6178    0.0002   -2.02128 
 
 NAtoms=     33 NQM=       33 NQMF=       0 NMMI=      0 NMMIF=      0
                NMic=       0 NMicF=      0.
                    Isotopes and Nuclear Properties:
 (Nuclear quadrupole moments (NQMom) in fm**2, nuclear magnetic moments (NMagM)
  in nuclear magnetons)

  Atom         1           2           3           4           5           6           7           8           9          10
 IAtWgt=          12          12          12          12          12          12          12          12          12           1
 AtmWgt=  12.0000000  12.0000000  12.0000000  12.0000000  12.0000000  12.0000000  12.0000000  12.0000000  12.0000000   1.0078250
 NucSpn=           0           0           0           0           0           0           0           0           0           1
 AtZEff=   0.0000000   0.0000000   0.0000000   0.0000000   0.0000000   0.0000000   0.0000000   0.0000000   0.0000000   0.0000000
 NQMom=    0.0000000   0.0000000   0.0000000   0.0000000   0.0000000   0.0000000   0.0000000   0.0000000   0.0000000   0.0000000
 NMagM=    0.0000000   0.0000000   0.0000000   0.0000000   0.0000000   0.0000000   0.0000000   0.0000000   0.0000000   2.7928460
 AtZNuc=   6.0000000   6.0000000   6.0000000   6.0000000   6.0000000   6.0000000   6.0000000   6.0000000   6.0000000   1.0000000

  Atom        11          12          13          14          15          16          17          18          19          20
 IAtWgt=          12          12          12           1           1           1          14          12          12          12
 AtmWgt=  12.0000000  12.0000000  12.0000000   1.0078250   1.0078250   1.0078250  14.0030740  12.0000000  12.0000000  12.0000000
 NucSpn=           0           0           0           1           1           1           2           0           0           0
 AtZEff=   0.0000000   0.0000000   0.0000000   0.0000000   0.0000000   0.0000000   0.0000000   0.0000000   0.0000000   0.0000000
 NQMom=    0.0000000   0.0000000   0.0000000   0.0000000   0.0000000   0.0000000   2.0440000   0.0000000   0.0000000   0.0000000
 NMagM=    0.0000000   0.0000000   0.0000000   2.7928460   2.7928460   2.7928460   0.4037610   0.0000000   0.0000000   0.0000000
 AtZNuc=   6.0000000   6.0000000   6.0000000   1.0000000   1.0000000   1.0000000   7.0000000   6.0000000   6.0000000   6.0000000

  Atom        21          22          23          24          25          26          27          28          29          30
 IAtWgt=          12          12           1          12           1           1           1           1          16           1
 AtmWgt=  12.0000000  12.0000000   1.0078250  12.0000000   1.0078250   1.0078250   1.0078250   1.0078250  15.9949146   1.0078250
 NucSpn=           0           0           1           0           1           1           1           1           0           1
 AtZEff=   0.0000000   0.0000000   0.0000000   0.0000000   0.0000000   0.0000000   0.0000000   0.0000000   0.0000000   0.0000000
 NQMom=    0.0000000   0.0000000   0.0000000   0.0000000   0.0000000   0.0000000   0.0000000   0.0000000   0.0000000   0.0000000
 NMagM=    0.0000000   0.0000000   2.7928460   0.0000000   2.7928460   2.7928460   2.7928460   2.7928460   0.0000000   2.7928460
 AtZNuc=   6.0000000   6.0000000   1.0000000   6.0000000   1.0000000   1.0000000   1.0000000   1.0000000   8.0000000   1.0000000

  Atom        31          32          33
 IAtWgt=           1           1           1
 AtmWgt=   1.0078250   1.0078250   1.0078250
 NucSpn=           1           1           1
 AtZEff=   0.0000000   0.0000000   0.0000000
 NQMom=    0.0000000   0.0000000   0.0000000
 NMagM=    2.7928460   2.7928460   2.7928460
 AtZNuc=   1.0000000   1.0000000   1.0000000
 Leave Link  101 at Tue Nov 23 10:54:08 2021, MaxMem=  5242880000 cpu:         4.3
 (Enter /opt/nce/packages/global/g09/l103.exe)

 GradGradGradGradGradGradGradGradGradGradGradGradGradGradGradGradGradGrad
 Berny optimization.
 Initialization pass.
                           ----------------------------
                           !    Initial Parameters    !
                           ! (Angstroms and Degrees)  !
 --------------------------                            --------------------------
 ! Name  Definition              Value          Derivative Info.                !
 --------------------------------------------------------------------------------
 ! R1    R(1,2)                  1.3939         estimate D2E/DX2                !
 ! R2    R(1,6)                  1.3807         estimate D2E/DX2                !
 ! R3    R(1,28)                 1.0885         estimate D2E/DX2                !
 ! R4    R(2,3)                  1.3985         estimate D2E/DX2                !
 ! R5    R(2,14)                 1.0804         estimate D2E/DX2                !
 ! R6    R(3,4)                  1.3978         estimate D2E/DX2                !
 ! R7    R(3,17)                 1.4036         estimate D2E/DX2                !
 ! R8    R(4,5)                  1.383          estimate D2E/DX2                !
 ! R9    R(4,29)                 1.3945         estimate D2E/DX2                !
 ! R10   R(5,6)                  1.3983         estimate D2E/DX2                !
 ! R11   R(5,15)                 1.0833         estimate D2E/DX2                !
 ! R12   R(6,31)                 1.0851         estimate D2E/DX2                !
 ! R13   R(7,8)                  1.3978         estimate D2E/DX2                !
 ! R14   R(7,13)                 1.383          estimate D2E/DX2                !
 ! R15   R(7,29)                 1.3945         estimate D2E/DX2                !
 ! R16   R(8,9)                  1.3984         estimate D2E/DX2                !
 ! R17   R(8,17)                 1.4036         estimate D2E/DX2                !
 ! R18   R(9,10)                 1.0804         estimate D2E/DX2                !
 ! R19   R(9,11)                 1.3939         estimate D2E/DX2                !
 ! R20   R(11,12)                1.3807         estimate D2E/DX2                !
 ! R21   R(11,16)                1.0885         estimate D2E/DX2                !
 ! R22   R(12,13)                1.3983         estimate D2E/DX2                !
 ! R23   R(12,30)                1.0851         estimate D2E/DX2                !
 ! R24   R(13,27)                1.0833         estimate D2E/DX2                !
 ! R25   R(17,18)                1.4277         estimate D2E/DX2                !
 ! R26   R(18,19)                1.392          estimate D2E/DX2                !
 ! R27   R(18,20)                1.3823         estimate D2E/DX2                !
 ! R28   R(19,21)                1.3861         estimate D2E/DX2                !
 ! R29   R(19,33)                1.0782         estimate D2E/DX2                !
 ! R30   R(20,22)                1.3862         estimate D2E/DX2                !
 ! R31   R(20,23)                1.0887         estimate D2E/DX2                !
 ! R32   R(21,24)                1.3833         estimate D2E/DX2                !
 ! R33   R(21,32)                1.0893         estimate D2E/DX2                !
 ! R34   R(22,24)                1.3927         estimate D2E/DX2                !
 ! R35   R(22,25)                1.0771         estimate D2E/DX2                !
 ! R36   R(24,26)                1.0834         estimate D2E/DX2                !
 ! A1    A(2,1,6)              120.0902         estimate D2E/DX2                !
 ! A2    A(2,1,28)             119.4995         estimate D2E/DX2                !
 ! A3    A(6,1,28)             120.4096         estimate D2E/DX2                !
 ! A4    A(1,2,3)              121.1593         estimate D2E/DX2                !
 ! A5    A(1,2,14)             119.4893         estimate D2E/DX2                !
 ! A6    A(3,2,14)             119.3493         estimate D2E/DX2                !
 ! A7    A(2,3,4)              118.0856         estimate D2E/DX2                !
 ! A8    A(2,3,17)             123.0831         estimate D2E/DX2                !
 ! A9    A(4,3,17)             118.8171         estimate D2E/DX2                !
 ! A10   A(3,4,5)              120.7489         estimate D2E/DX2                !
 ! A11   A(3,4,29)             121.4828         estimate D2E/DX2                !
 ! A12   A(5,4,29)             117.7091         estimate D2E/DX2                !
 ! A13   A(4,5,6)              120.6072         estimate D2E/DX2                !
 ! A14   A(4,5,15)             117.9401         estimate D2E/DX2                !
 ! A15   A(6,5,15)             121.4245         estimate D2E/DX2                !
 ! A16   A(1,6,5)              119.291          estimate D2E/DX2                !
 ! A17   A(1,6,31)             120.5192         estimate D2E/DX2                !
 ! A18   A(5,6,31)             120.1898         estimate D2E/DX2                !
 ! A19   A(8,7,13)             120.7494         estimate D2E/DX2                !
 ! A20   A(8,7,29)             121.483          estimate D2E/DX2                !
 ! A21   A(13,7,29)            117.7084         estimate D2E/DX2                !
 ! A22   A(7,8,9)              118.0858         estimate D2E/DX2                !
 ! A23   A(7,8,17)             118.8174         estimate D2E/DX2                !
 ! A24   A(9,8,17)             123.0826         estimate D2E/DX2                !
 ! A25   A(8,9,10)             119.3494         estimate D2E/DX2                !
 ! A26   A(8,9,11)             121.1587         estimate D2E/DX2                !
 ! A27   A(10,9,11)            119.4896         estimate D2E/DX2                !
 ! A28   A(9,11,12)            120.0907         estimate D2E/DX2                !
 ! A29   A(9,11,16)            119.4989         estimate D2E/DX2                !
 ! A30   A(12,11,16)           120.4096         estimate D2E/DX2                !
 ! A31   A(11,12,13)           119.291          estimate D2E/DX2                !
 ! A32   A(11,12,30)           120.5195         estimate D2E/DX2                !
 ! A33   A(13,12,30)           120.1895         estimate D2E/DX2                !
 ! A34   A(7,13,12)            120.6067         estimate D2E/DX2                !
 ! A35   A(7,13,27)            117.9405         estimate D2E/DX2                !
 ! A36   A(12,13,27)           121.4246         estimate D2E/DX2                !
 ! A37   A(3,17,8)             118.3174         estimate D2E/DX2                !
 ! A38   A(3,17,18)            119.6452         estimate D2E/DX2                !
 ! A39   A(8,17,18)            119.6454         estimate D2E/DX2                !
 ! A40   A(17,18,19)           120.0609         estimate D2E/DX2                !
 ! A41   A(17,18,20)           119.5827         estimate D2E/DX2                !
 ! A42   A(19,18,20)           120.3564         estimate D2E/DX2                !
 ! A43   A(18,19,21)           119.2761         estimate D2E/DX2                !
 ! A44   A(18,19,33)           119.6688         estimate D2E/DX2                !
 ! A45   A(21,19,33)           121.0551         estimate D2E/DX2                !
 ! A46   A(18,20,22)           120.2604         estimate D2E/DX2                !
 ! A47   A(18,20,23)           118.9835         estimate D2E/DX2                !
 ! A48   A(22,20,23)           120.7561         estimate D2E/DX2                !
 ! A49   A(19,21,24)           120.5334         estimate D2E/DX2                !
 ! A50   A(19,21,32)           119.7052         estimate D2E/DX2                !
 ! A51   A(24,21,32)           119.7615         estimate D2E/DX2                !
 ! A52   A(20,22,24)           119.5516         estimate D2E/DX2                !
 ! A53   A(20,22,25)           119.9959         estimate D2E/DX2                !
 ! A54   A(24,22,25)           120.4526         estimate D2E/DX2                !
 ! A55   A(21,24,22)           120.0222         estimate D2E/DX2                !
 ! A56   A(21,24,26)           120.3155         estimate D2E/DX2                !
 ! A57   A(22,24,26)           119.6624         estimate D2E/DX2                !
 ! A58   A(4,29,7)             115.6694         estimate D2E/DX2                !
 ! D1    D(6,1,2,3)             -0.3832         estimate D2E/DX2                !
 ! D2    D(6,1,2,14)          -179.8397         estimate D2E/DX2                !
 ! D3    D(28,1,2,3)           179.3049         estimate D2E/DX2                !
 ! D4    D(28,1,2,14)           -0.1516         estimate D2E/DX2                !
 ! D5    D(2,1,6,5)             -0.0773         estimate D2E/DX2                !
 ! D6    D(2,1,6,31)           179.8308         estimate D2E/DX2                !
 ! D7    D(28,1,6,5)          -179.7625         estimate D2E/DX2                !
 ! D8    D(28,1,6,31)            0.1456         estimate D2E/DX2                !
 ! D9    D(1,2,3,4)             -0.1596         estimate D2E/DX2                !
 ! D10   D(1,2,3,17)          -178.7726         estimate D2E/DX2                !
 ! D11   D(14,2,3,4)           179.2977         estimate D2E/DX2                !
 ! D12   D(14,2,3,17)            0.6847         estimate D2E/DX2                !
 ! D13   D(2,3,4,5)              1.177          estimate D2E/DX2                !
 ! D14   D(2,3,4,29)          -175.9614         estimate D2E/DX2                !
 ! D15   D(17,3,4,5)           179.8506         estimate D2E/DX2                !
 ! D16   D(17,3,4,29)            2.7121         estimate D2E/DX2                !
 ! D17   D(2,3,17,8)          -165.2787         estimate D2E/DX2                !
 ! D18   D(2,3,17,18)           -2.8854         estimate D2E/DX2                !
 ! D19   D(4,3,17,8)            16.1179         estimate D2E/DX2                !
 ! D20   D(4,3,17,18)          178.5113         estimate D2E/DX2                !
 ! D21   D(3,4,5,6)             -1.6636         estimate D2E/DX2                !
 ! D22   D(3,4,5,15)          -179.7631         estimate D2E/DX2                !
 ! D23   D(29,4,5,6)           175.5801         estimate D2E/DX2                !
 ! D24   D(29,4,5,15)           -2.5195         estimate D2E/DX2                !
 ! D25   D(3,4,29,7)           -20.7941         estimate D2E/DX2                !
 ! D26   D(5,4,29,7)           161.9836         estimate D2E/DX2                !
 ! D27   D(4,5,6,1)              1.0942         estimate D2E/DX2                !
 ! D28   D(4,5,6,31)          -178.8142         estimate D2E/DX2                !
 ! D29   D(15,5,6,1)           179.1266         estimate D2E/DX2                !
 ! D30   D(15,5,6,31)           -0.7818         estimate D2E/DX2                !
 ! D31   D(13,7,8,9)            -1.1782         estimate D2E/DX2                !
 ! D32   D(13,7,8,17)         -179.8506         estimate D2E/DX2                !
 ! D33   D(29,7,8,9)           175.9596         estimate D2E/DX2                !
 ! D34   D(29,7,8,17)           -2.7128         estimate D2E/DX2                !
 ! D35   D(8,7,13,12)            1.664          estimate D2E/DX2                !
 ! D36   D(8,7,13,27)          179.7632         estimate D2E/DX2                !
 ! D37   D(29,7,13,12)        -175.579          estimate D2E/DX2                !
 ! D38   D(29,7,13,27)           2.5202         estimate D2E/DX2                !
 ! D39   D(8,7,29,4)            20.7945         estimate D2E/DX2                !
 ! D40   D(13,7,29,4)         -161.9839         estimate D2E/DX2                !
 ! D41   D(7,8,9,10)          -179.2965         estimate D2E/DX2                !
 ! D42   D(7,8,9,11)             0.1608         estimate D2E/DX2                !
 ! D43   D(17,8,9,10)           -0.6848         estimate D2E/DX2                !
 ! D44   D(17,8,9,11)          178.7725         estimate D2E/DX2                !
 ! D45   D(7,8,17,3)           -16.1177         estimate D2E/DX2                !
 ! D46   D(7,8,17,18)         -178.511          estimate D2E/DX2                !
 ! D47   D(9,8,17,3)           165.2802         estimate D2E/DX2                !
 ! D48   D(9,8,17,18)            2.8869         estimate D2E/DX2                !
 ! D49   D(8,9,11,12)            0.3828         estimate D2E/DX2                !
 ! D50   D(8,9,11,16)         -179.3051         estimate D2E/DX2                !
 ! D51   D(10,9,11,12)         179.8394         estimate D2E/DX2                !
 ! D52   D(10,9,11,16)           0.1514         estimate D2E/DX2                !
 ! D53   D(9,11,12,13)           0.0768         estimate D2E/DX2                !
 ! D54   D(9,11,12,30)        -179.8309         estimate D2E/DX2                !
 ! D55   D(16,11,12,13)        179.7619         estimate D2E/DX2                !
 ! D56   D(16,11,12,30)         -0.1458         estimate D2E/DX2                !
 ! D57   D(11,12,13,7)          -1.0938         estimate D2E/DX2                !
 ! D58   D(11,12,13,27)       -179.1259         estimate D2E/DX2                !
 ! D59   D(30,12,13,7)         178.8142         estimate D2E/DX2                !
 ! D60   D(30,12,13,27)          0.7821         estimate D2E/DX2                !
 ! D61   D(3,17,18,19)         -81.0847         estimate D2E/DX2                !
 ! D62   D(3,17,18,20)          98.9152         estimate D2E/DX2                !
 ! D63   D(8,17,18,19)          81.0736         estimate D2E/DX2                !
 ! D64   D(8,17,18,20)         -98.9265         estimate D2E/DX2                !
 ! D65   D(17,18,19,21)        180.0            estimate D2E/DX2                !
 ! D66   D(17,18,19,33)          0.0001         estimate D2E/DX2                !
 ! D67   D(20,18,19,21)          0.0001         estimate D2E/DX2                !
 ! D68   D(20,18,19,33)       -179.9997         estimate D2E/DX2                !
 ! D69   D(17,18,20,22)       -179.9999         estimate D2E/DX2                !
 ! D70   D(17,18,20,23)          0.0002         estimate D2E/DX2                !
 ! D71   D(19,18,20,22)          0.0            estimate D2E/DX2                !
 ! D72   D(19,18,20,23)       -179.9999         estimate D2E/DX2                !
 ! D73   D(18,19,21,24)         -0.0002         estimate D2E/DX2                !
 ! D74   D(18,19,21,32)        180.0            estimate D2E/DX2                !
 ! D75   D(33,19,21,24)        179.9997         estimate D2E/DX2                !
 ! D76   D(33,19,21,32)         -0.0002         estimate D2E/DX2                !
 ! D77   D(18,20,22,24)         -0.0001         estimate D2E/DX2                !
 ! D78   D(18,20,22,25)        180.0            estimate D2E/DX2                !
 ! D79   D(23,20,22,24)        179.9998         estimate D2E/DX2                !
 ! D80   D(23,20,22,25)         -0.0001         estimate D2E/DX2                !
 ! D81   D(19,21,24,22)          0.0001         estimate D2E/DX2                !
 ! D82   D(19,21,24,26)       -179.9999         estimate D2E/DX2                !
 ! D83   D(32,21,24,22)        180.0            estimate D2E/DX2                !
 ! D84   D(32,21,24,26)          0.0            estimate D2E/DX2                !
 ! D85   D(20,22,24,21)          0.0            estimate D2E/DX2                !
 ! D86   D(20,22,24,26)       -180.0            estimate D2E/DX2                !
 ! D87   D(25,22,24,21)        180.0            estimate D2E/DX2                !
 ! D88   D(25,22,24,26)          0.0            estimate D2E/DX2                !
 --------------------------------------------------------------------------------
 Trust Radius=3.00D-01 FncErr=1.00D-07 GrdErr=1.00D-06
 Number of steps in this run=    192 maximum allowed number of steps=    198.
 GradGradGradGradGradGradGradGradGradGradGradGradGradGradGradGradGradGrad

 Leave Link  103 at Tue Nov 23 10:54:08 2021, MaxMem=  5242880000 cpu:         0.2
 (Enter /opt/nce/packages/global/g09/l202.exe)
                          Input orientation:                          
 ---------------------------------------------------------------------
 Center     Atomic      Atomic             Coordinates (Angstroms)
 Number     Number       Type             X           Y           Z
 ---------------------------------------------------------------------
      1          6           0        0.653030   -3.617610   -0.240102
      2          6           0       -0.085488   -2.441520   -0.120082
      3          6           0        0.545410   -1.205099    0.049946
      4          6           0        1.942085   -1.180337    0.099940
      5          6           0        2.675378   -2.344495   -0.040075
      6          6           0        2.032561   -3.575891   -0.200095
      7          6           0        1.941960    1.180544    0.100016
      8          6           0        0.545284    1.205160    0.050030
      9          6           0       -0.085744    2.441514   -0.119880
     10          1           0       -1.164808    2.485599   -0.149861
     11          6           0        0.652652    3.617681   -0.239818
     12          6           0        2.032187    3.576107   -0.199838
     13          6           0        2.675133    2.344778   -0.039918
     14          1           0       -1.164548   -2.485716   -0.150090
     15          1           0        3.755191   -2.273328    0.009923
     16          1           0        0.133286    4.566702   -0.359751
     17          7           0       -0.158429   -0.000008    0.199964
     18          6           0       -1.583908   -0.000080    0.119979
     19          6           0       -2.212617    0.000046   -1.121994
     20          6           0       -2.332593   -0.000278    1.281968
     21          6           0       -3.597431   -0.000027   -1.180683
     22          6           0       -3.717405   -0.000353    1.220686
     23          1           0       -1.817756   -0.000372    2.241240
     24          6           0       -4.350045   -0.000226   -0.019992
     25          1           0       -4.296610   -0.000508    2.128816
     26          1           0       -5.432244   -0.000284   -0.069980
     27          1           0        3.754953    2.273722    0.010068
     28          1           0        0.133764   -4.566686   -0.360123
     29          8           0        2.641043    0.000140    0.349931
     30          1           0        2.613817    4.487776   -0.289789
     31          1           0        2.614288   -4.487498   -0.290108
     32          1           0       -4.096653    0.000071   -2.148803
     33          1           0       -1.617802    0.000196   -2.021279
 ---------------------------------------------------------------------
                    Distance matrix (angstroms):
                    1          2          3          4          5
     1  C    0.000000
     2  C    1.393916   0.000000
     3  C    2.432266   1.398456   0.000000
     4  C    2.778055   2.397925   1.397789   0.000000
     5  C    2.398067   2.763729   2.417249   1.382963   0.000000
     6  C    1.380741   2.404024   2.809767   2.415965   1.398269
     7  C    4.979890   4.156722   2.764806   2.360881   3.603252
     8  C    4.832690   3.704738   2.410259   2.764804   4.140709
     9  C    6.105180   4.883034   3.704724   4.156707   5.525943
    10  H    6.368818   5.044038   4.072594   4.811889   6.171620
    11  C    7.235291   6.105170   4.832667   4.979864   6.299116
    12  C    7.324839   6.379870   5.013265   4.766733   5.957579
    13  C    6.299130   5.525948   4.140703   3.603242   4.689273
    14  H    2.143100   1.080382   2.145682   3.379008   3.844097
    15  H    3.390134   3.846558   3.383106   2.118982   1.083310
    16  H    8.201671   7.015731   5.800981   6.042477   7.370825
    17  N    3.733520   2.463479   1.403616   2.411502   3.685743
    18  C    4.268498   2.874634   2.447646   3.718338   4.864506
    19  C    4.698628   3.389653   3.229943   4.488650   5.528102
    20  C    4.931099   3.602067   3.354456   4.589401   5.685325
    21  C    5.660214   4.406757   4.486622   5.806838   6.793059
    22  C    5.858255   4.576874   4.581881   5.888825   6.924752
    23  H    5.034506   3.812584   3.440594   4.484851   5.557658
    24  C    6.177756   4.914914   5.042032   6.402964   7.406252
    25  H    6.572225   5.361868   5.405358   6.665557   7.668571
    26  H    7.081282   5.877920   6.099042   7.470082   8.439772
    27  H    6.662755   6.082716   4.733387   3.901934   4.742987
    28  H    1.088479   2.149889   3.411433   3.866399   3.391219
    29  O    4.169946   3.690066   2.436036   1.394476   2.377098
    30  H    8.339331   7.438427   6.066511   5.721068   6.837110
    31  H    2.146098   3.391714   3.894873   3.397250   2.158405
    32  H    6.268193   5.115322   5.275953   6.551074   7.470216
    33  H    4.627936   3.453189   3.228342   4.308831   5.277702
                    6          7          8          9         10
     6  C    0.000000
     7  C    4.766755   0.000000
     8  C    5.013283   1.397787   0.000000
     9  C    6.379876   2.397912   1.398441   0.000000
    10  H    6.853273   3.378996   2.145669   1.080380   0.000000
    11  C    7.324835   2.778028   2.432241   1.393909   2.143097
    12  C    7.151998   2.415942   2.809752   2.404023   3.378237
    13  C    5.957590   1.382955   2.417246   2.763728   3.844095
    14  H    3.378237   4.811903   4.072608   5.044039   4.971315
    15  H    2.169846   3.901942   4.733391   6.082710   6.846847
    16  H    8.362688   3.866362   3.411397   2.149869   2.461725
    17  N    4.212769   2.411499   1.403610   2.463455   2.704333
    18  C    5.095853   3.718335   2.447643   2.874615   2.535164
    19  C    5.626612   4.488585   3.229854   3.389482   2.867215
    20  C    5.834046   4.589461   3.354538   3.602202   3.097328
    21  C    6.741303   5.806788   4.486560   4.406628   3.627476
    22  C    6.918468   5.888874   4.581944   4.576985   3.817605
    23  H    5.793910   4.484960   3.440736   3.812815   3.510521
    24  C    7.318161   6.402964   5.042034   4.914909   4.042515
    25  H    7.633190   6.665633   5.405453   5.362042   4.602313
    26  H    8.277995   7.470083   6.099044   5.877919   4.939332
    27  H    6.101539   2.118979   3.383105   3.846556   4.926918
    28  H    2.147723   6.042512   5.801015   7.015751   7.173927
    29  O    3.668893   1.394463   2.436025   3.690040   4.572942
    30  H    8.085087   3.397223   3.894852   3.391709   4.278586
    31  H    1.085143   5.721094   6.066533   7.438438   7.932548
    32  H    7.358820   6.550996   5.275859   5.115131   4.332359
    33  H    5.424966   4.308714   3.228188   3.452905   3.143984
                   11         12         13         14         15
    11  C    0.000000
    12  C    1.380740   0.000000
    13  C    2.398056   1.398258   0.000000
    14  H    6.368809   6.853268   6.171625   0.000000
    15  H    6.662740   6.101527   4.742986   4.926920   0.000000
    16  H    1.088469   2.147714   3.391198   7.173906   7.748604
    17  N    3.733488   4.212747   3.685734   2.704359   4.529958
    18  C    4.268472   5.095835   4.864500   2.535190   5.803942
    19  C    4.698434   5.626450   5.527998   2.867413   6.485692
    20  C    4.931242   5.834174   5.685419   3.097180   6.621629
    21  C    5.660057   6.741171   6.792975   3.627629   7.787586
    22  C    5.858382   6.918581   6.924832   3.817478   7.903926
    23  H    5.034766   5.794146   5.557829   3.510281   6.418944
    24  C    6.177746   7.318155   7.406252   4.042521   8.418001
    25  H    6.572436   7.633379   7.668701   4.602117   8.630580
    26  H    7.081276   8.277993   8.439774   4.939334   9.464781
    27  H    3.390124   2.169836   1.083309   6.846853   4.547050
    28  H    8.201682   8.362702   7.370849   2.461740   4.302460
    29  O    4.169905   3.668854   2.377072   4.572967   2.554523
    30  H    2.146097   1.085138   2.158387   7.932537   6.863315
    31  H    8.339333   8.085092   6.837126   4.278591   2.508830
    32  H    6.267952   7.358612   7.470082   4.332578   8.454578
    33  H    4.627609   5.424685   5.277513   3.144288   6.177681
                   16         17         18         19         20
    16  H    0.000000
    17  N    4.610121   0.000000
    18  C    4.902489   1.427721   0.000000
    19  C    5.190243   2.442798   1.392039   0.000000
    20  C    5.443630   2.428523   1.382298   2.406954   0.000000
    21  C    5.953754   3.705796   2.397081   1.386057   2.768477
    22  C    6.179287   3.702456   2.400701   2.784338   1.386167
    23  H    5.606236   2.630622   2.134112   3.386334   1.088696
    24  C    6.408785   4.197383   2.769676   2.404788   2.401086
    25  H    6.832009   4.565634   3.375526   3.861450   2.138811
    26  H    7.205307   5.280719   3.853021   3.387142   3.381656
    27  H    4.302441   4.529952   5.803938   6.485604   6.621708
    28  H    9.133388   4.610165   4.902528   5.190471   5.443479
    29  O    5.257945   2.803486   4.231204   5.071940   5.060212
    30  H    2.482772   5.297680   6.158706   6.642797   6.861488
    31  H    9.388224   5.297707   6.158729   6.642974   6.861355
    32  H    6.476667   4.585446   3.385448   2.145677   3.857732
    33  H    5.165265   2.657760   2.141526   1.078201   3.379699
                   21         22         23         24         25
    21  C    0.000000
    22  C    2.404364   0.000000
    23  H    3.857046   2.156431   0.000000
    24  C    1.383341   1.392665   3.394946   0.000000
    25  H    3.382549   1.077116   2.481402   2.149472   0.000000
    26  H    2.144808   2.146274   4.290252   1.083353   2.474746
    27  H    7.787514   7.903996   6.419090   8.418001   8.630694
    28  H    5.953949   6.179147   5.605956   6.408806   6.831765
    29  O    6.423499   6.417794   4.843340   7.000868   7.162085
    30  H    7.714510   7.906277   6.796206   8.289169   8.587686
    31  H    7.714660   7.906156   6.795957   8.289180   8.587478
    32  H    1.089256   3.390765   4.946297   2.143839   4.282290
    33  H    2.150705   3.862469   4.267206   3.386783   4.939565
                   26         27         28         29         30
    26  H    0.000000
    27  H    9.464782   0.000000
    28  H    7.205321   7.748628   0.000000
    29  O    8.084200   2.554501   5.257996   0.000000
    30  H    9.215753   2.508813   9.388232   4.533085   0.000000
    31  H    9.215759   6.863331   2.482775   4.533129   8.975274
    32  H    2.470892   8.454462   6.476965   7.186113   8.284071
    33  H    4.284569   6.177523   5.165640   4.874464   6.406484
                   31         32         33
    31  H    0.000000
    32  H    8.284308   0.000000
    33  H    6.406788   2.482129   0.000000
 Symmetry turned off by external request.
 Stoichiometry    C18H13NO
 Framework group  C1[X(C18H13NO)]
 Deg. of freedom    93
 Full point group                 C1      NOp   1
 Rotational constants (GHZ):      0.4342578      0.3601337      0.2124210
 Leave Link  202 at Tue Nov 23 10:54:08 2021, MaxMem=  5242880000 cpu:         0.1
 (Enter /opt/nce/packages/global/g09/l301.exe)
 Standard basis: def2TZVP (5D, 7F)
 Ernie: Thresh=  0.10000D-02 Tol=  0.10000D-05 Strict=F.
   698 basis functions,  1124 primitive gaussians,   798 cartesian basis functions
    68 alpha electrons       68 beta electrons
       nuclear repulsion energy      1433.0798489103 Hartrees.
 IExCor=  402 DFT=T Ex+Corr=B3LYP ExCW=0 ScaHFX=  0.200000
 ScaDFX=  0.800000  0.720000  1.000000  0.810000 ScalE2=  1.000000  1.000000
 IRadAn=      5 IRanWt=     -1 IRanGd=            0 ICorTp=0 IEmpDi=141
 NAtoms=   33 NActive=   33 NUniq=   33 SFac= 1.00D+00 NAtFMM=   60 NAOKFM=F Big=F
 Integral buffers will be    131072 words long.
 Raffenetti 2 integral format.
 Two-electron integral symmetry is turned off.
 R6Disp:  Grimme-D3(BJ) Dispersion energy=       -0.0798172375 Hartrees.
 Nuclear repulsion after empirical dispersion term =     1433.0000316728 Hartrees.
 ------------------------------------------------------------------------------
 Polarizable Continuum Model (PCM)
 =================================
 Model                : PCM (using non-symmetric T matrix).
 Atomic radii         : SMD-Coulomb.
 Polarization charges : Total charges.
 Charge compensation  : None.
 Solution method      : On-the-fly selection.
 Cavity type          : VdW (van der Waals Surface) (Alpha=1.000).
 Cavity algorithm     : GePol (No added spheres)
                        Default sphere list used, NSphG=   33.
                        Lebedev-Laikov grids with approx.  5.0 points / Ang**2.
                        Smoothing algorithm: York/Karplus (Gamma=1.0000).
                        Polarization charges: spherical gaussians, with
                                              point-specific exponents (IZeta= 3).
                        Self-potential: point-specific (ISelfS= 7).
                        Self-field    : sphere-specific E.n sum rule (ISelfD= 2).
 1st derivatives      : Analytical E(r).r(x)/FMM algorithm (CHGder, D1EAlg=3).
                        Cavity 1st derivative terms included.
 Solvent              : n,n-DiMethylAcetamide, Eps=  37.781000 Eps(inf)=   2.067844
 ------------------------------------------------------------------------------
 GePol: Number of generator spheres                  =      33
 GePol: Total number of spheres                      =      33
 GePol: Number of exposed spheres                    =      33 (100.00%)
 GePol: Number of points                             =    2586
 GePol: Average weight of points                     =       0.11
 GePol: Minimum weight of points                     =   0.67D-08
 GePol: Maximum weight of points                     =    0.17992
 GePol: Number of points with low weight             =     117
 GePol: Fraction of low-weight points (<1% of avg)   =       4.52%
 GePol: Cavity surface area                          =    281.172 Ang**2
 GePol: Cavity volume                                =    275.472 Ang**3
 ------------------------------------------------------------------------------
 Atomic radii for non-electrostatic terms: SMD-CDS.
 ------------------------------------------------------------------------------
 PCM non-electrostatic energy =        -0.0048558287 Hartrees.
 Nuclear repulsion after PCM non-electrostatic terms =     1432.9951758441 Hartrees.
 Leave Link  301 at Tue Nov 23 10:54:08 2021, MaxMem=  5242880000 cpu:         2.6
 (Enter /opt/nce/packages/global/g09/l302.exe)
 NPDir=0 NMtPBC=     1 NCelOv=     1 NCel=       1 NClECP=     1 NCelD=      1
         NCelK=      1 NCelE2=     1 NClLst=     1 CellRange=     0.0.
 One-electron integrals computed using PRISM.
   1 Symmetry operations used in ECPInt.
 ECPInt:  NShTT=   37128 NPrTT=  114960 LenC2=   33635 LenP2D=   75065.
 LDataN:  DoStor=T MaxTD1= 6 Len=  172
 NBasis=   698 RedAO= T EigKep=  5.76D-06  NBF=   698
 NBsUse=   698 1.00D-06 EigRej= -1.00D+00 NBFU=   698
 Precomputing XC quadrature grid using
 IXCGrd= 4 IRadAn=           5 IRanWt=          -1 IRanGd=           0 AccXCQ= 0.00D+00.
 Generated NRdTot=       0 NPtTot=           0 NUsed=           0 NTot=          32
 NSgBfM=   785   785   785   785   785 MxSgAt=    33 MxSgA2=    33.
 Leave Link  302 at Tue Nov 23 10:54:10 2021, MaxMem=  5242880000 cpu:        12.8
 (Enter /opt/nce/packages/global/g09/l303.exe)
 DipDrv:  MaxL=1.
 Leave Link  303 at Tue Nov 23 10:54:10 2021, MaxMem=  5242880000 cpu:         1.5
 (Enter /opt/nce/packages/global/g09/l401.exe)
 ExpMin= 9.52D-02 ExpMax= 2.70D+04 ExpMxC= 9.22D+02 IAcc=3 IRadAn=         5 AccDes= 0.00D+00
 Harris functional with IExCor=  402 and IRadAn=       5 diagonalized for initial guess.
 HarFok:  IExCor=  402 AccDes= 0.00D+00 IRadAn=         5 IDoV= 1 UseB2=F ITyADJ=14
 ICtDFT=  3500011 ScaDFX=  1.000000  1.000000  1.000000  1.000000
 FoFCou: FMM=F IPFlag=           0 FMFlag=      100000 FMFlg1=           0
         NFxFlg=           0 DoJE=T BraDBF=F KetDBF=T FulRan=T
         wScrn=  0.000000 ICntrl=     500 IOpCl=  0 I1Cent=   200000004 NGrid=           0
         NMat0=    1 NMatS0=      1 NMatT0=    0 NMatD0=    1 NMtDS0=    0 NMtDT0=    0
 Symmetry not used in FoFCou.
 Harris En= -824.155493963040    
 JPrj=0 DoOrth=F DoCkMO=F.
 Leave Link  401 at Tue Nov 23 10:54:15 2021, MaxMem=  5242880000 cpu:        64.0
 (Enter /opt/nce/packages/global/g09/l502.exe)
 Closed shell SCF:
 Using DIIS extrapolation, IDIIS=  1040.
 Two-electron integral symmetry not used.
 IVT=     1943392 IEndB=     1943392 NGot=  5242880000 MDV=  5241590851
 LenX=  5241590851 LenY=  5240953249
 Requested convergence on RMS density matrix=1.00D-08 within 128 cycles.
 Requested convergence on MAX density matrix=1.00D-06.
 Requested convergence on             energy=1.00D-06.
 No special actions if energy rises.
 Fock matrices will be formed incrementally for  20 cycles.

 Cycle   1  Pass 1  IDiag  1:
 FoFJK:  IHMeth= 1 ICntrl=       0 DoSepK=F KAlg= 0 I1Cent=   0 FoldK=F
 IRaf= 820000000 NMat=   1 IRICut=       1 DoRegI=T DoRafI=F ISym2E= 0.
 FoFCou: FMM=F IPFlag=           0 FMFlag=      100000 FMFlg1=           0
         NFxFlg=           0 DoJE=F BraDBF=F KetDBF=F FulRan=T
         wScrn=  0.000000 ICntrl=       0 IOpCl=  0 I1Cent=           0 NGrid=           0
         NMat0=    1 NMatS0=      1 NMatT0=    0 NMatD0=    1 NMtDS0=    0 NMtDT0=    0
 Symmetry not used in FoFCou.
 Inv3:  Mode=1 IEnd=    20062188.
 Iteration    1 A*A^-1 deviation from unit magnitude is 6.22D-15 for   2586.
 Iteration    1 A*A^-1 deviation from orthogonality  is 2.80D-15 for   1067    105.
 Iteration    1 A^-1*A deviation from unit magnitude is 6.22D-15 for   2586.
 Iteration    1 A^-1*A deviation from orthogonality  is 2.40D-13 for   1532   1530.
 E= -823.617921417644    
 DIIS: error= 2.66D-02 at cycle   1 NSaved=   1.
 NSaved= 1 IEnMin= 1 EnMin= -823.617921417644     IErMin= 1 ErrMin= 2.66D-02
 ErrMax= 2.66D-02  0.00D+00 EMaxC= 1.00D-01 BMatC= 5.08D-01 BMatP= 5.08D-01
 IDIUse=3 WtCom= 7.34D-01 WtEn= 2.66D-01
 Coeff-Com:  0.100D+01
 Coeff-En:   0.100D+01
 Coeff:      0.100D+01
 Gap=     0.214 Goal=   None    Shift=    0.000
 GapD=    0.214 DampG=1.000 DampE=0.500 DampFc=0.5000 IDamp=-1.
 Damping current iteration by 5.00D-01
 RMSDP=2.83D-03 MaxDP=2.07D-01              OVMax= 3.03D-01

 Cycle   2  Pass 1  IDiag  1:
 RMSU=  1.41D-03    CP:  9.96D-01
 E= -823.810410136610     Delta-E=       -0.192488718966 Rises=F Damp=T
 DIIS: error= 8.50D-03 at cycle   2 NSaved=   2.
 NSaved= 2 IEnMin= 2 EnMin= -823.810410136610     IErMin= 2 ErrMin= 8.50D-03
 ErrMax= 8.50D-03  0.00D+00 EMaxC= 1.00D-01 BMatC= 5.20D-02 BMatP= 5.08D-01
 IDIUse=3 WtCom= 9.15D-01 WtEn= 8.50D-02
 Coeff-Com:  0.847D-01 0.915D+00
 Coeff-En:   0.191D+00 0.809D+00
 Coeff:      0.938D-01 0.906D+00
 Gap=     0.177 Goal=   None    Shift=    0.000
 RMSDP=1.52D-03 MaxDP=1.22D-01 DE=-1.92D-01 OVMax= 2.87D-01

 Cycle   3  Pass 1  IDiag  1:
 RMSU=  1.36D-03    CP:  1.01D+00  1.47D+00
 E= -824.041765184638     Delta-E=       -0.231355048028 Rises=F Damp=F
 DIIS: error= 1.20D-02 at cycle   3 NSaved=   3.
 NSaved= 3 IEnMin= 3 EnMin= -824.041765184638     IErMin= 2 ErrMin= 8.50D-03
 ErrMax= 1.20D-02  0.00D+00 EMaxC= 1.00D-01 BMatC= 6.40D-02 BMatP= 5.20D-02
 IDIUse=2 WtCom= 0.00D+00 WtEn= 1.00D+00
 Coeff-En:   0.000D+00 0.000D+00 0.100D+01
 Coeff:      0.000D+00 0.000D+00 0.100D+01
 Gap=     0.207 Goal=   None    Shift=    0.000
 RMSDP=2.20D-03 MaxDP=1.71D-01 DE=-2.31D-01 OVMax= 2.76D-01

 Cycle   4  Pass 1  IDiag  1:
 RMSU=  8.62D-04    CP:  9.55D-01  6.56D-01 -1.91D-01
 E= -823.832558995457     Delta-E=        0.209206189181 Rises=F Damp=F
 DIIS: error= 2.76D-02 at cycle   4 NSaved=   4.
 NSaved= 4 IEnMin= 3 EnMin= -824.041765184638     IErMin= 2 ErrMin= 8.50D-03
 ErrMax= 2.76D-02  0.00D+00 EMaxC= 1.00D-01 BMatC= 2.65D-01 BMatP= 5.20D-02
 IDIUse=2 WtCom= 0.00D+00 WtEn= 1.00D+00
 Coeff-En:   0.000D+00 0.000D+00 0.752D+00 0.248D+00
 Coeff:      0.000D+00 0.000D+00 0.752D+00 0.248D+00
 Gap=     0.183 Goal=   None    Shift=    0.000
 RMSDP=8.15D-04 MaxDP=5.21D-02 DE= 2.09D-01 OVMax= 1.37D-01

 Cycle   5  Pass 1  IDiag  1:
 RMSU=  1.68D-04    CP:  9.76D-01  8.99D-01  2.62D-01  5.99D-01
 E= -824.093222951585     Delta-E=       -0.260663956129 Rises=F Damp=F
 DIIS: error= 6.42D-03 at cycle   5 NSaved=   5.
 NSaved= 5 IEnMin= 5 EnMin= -824.093222951585     IErMin= 5 ErrMin= 6.42D-03
 ErrMax= 6.42D-03  0.00D+00 EMaxC= 1.00D-01 BMatC= 1.62D-02 BMatP= 5.20D-02
 IDIUse=3 WtCom= 9.36D-01 WtEn= 6.42D-02
 Coeff-Com: -0.639D-02 0.217D-01 0.226D+00-0.117D+00 0.877D+00
 Coeff-En:   0.000D+00 0.000D+00 0.248D+00 0.000D+00 0.752D+00
 Coeff:     -0.598D-02 0.203D-01 0.227D+00-0.110D+00 0.869D+00
 Gap=     0.161 Goal=   None    Shift=    0.000
 RMSDP=4.59D-04 MaxDP=3.81D-02 DE=-2.61D-01 OVMax= 5.02D-02

 Cycle   6  Pass 1  IDiag  1:
 RMSU=  3.60D-05    CP:  9.87D-01  1.08D+00  5.03D-01  4.07D-01  9.32D-01
 E= -824.110222541788     Delta-E=       -0.016999590202 Rises=F Damp=F
 DIIS: error= 4.14D-04 at cycle   6 NSaved=   6.
 NSaved= 6 IEnMin= 6 EnMin= -824.110222541788     IErMin= 6 ErrMin= 4.14D-04
 ErrMax= 4.14D-04  0.00D+00 EMaxC= 1.00D-01 BMatC= 9.49D-05 BMatP= 1.62D-02
 IDIUse=3 WtCom= 9.96D-01 WtEn= 4.14D-03
 Coeff-Com: -0.422D-02 0.106D-01 0.114D+00-0.762D-01 0.520D+00 0.436D+00
 Coeff-En:   0.000D+00 0.000D+00 0.000D+00 0.000D+00 0.000D+00 0.100D+01
 Coeff:     -0.420D-02 0.106D-01 0.114D+00-0.759D-01 0.517D+00 0.438D+00
 Gap=     0.161 Goal=   None    Shift=    0.000
 RMSDP=4.98D-05 MaxDP=4.80D-03 DE=-1.70D-02 OVMax= 3.99D-03

 Cycle   7  Pass 1  IDiag  1:
 RMSU=  1.21D-05    CP:  9.85D-01  1.06D+00  4.81D-01  4.19D-01  1.00D+00
                    CP:  5.52D-01
 E= -824.110305545962     Delta-E=       -0.000083004174 Rises=F Damp=F
 DIIS: error= 7.08D-05 at cycle   7 NSaved=   7.
 NSaved= 7 IEnMin= 7 EnMin= -824.110305545962     IErMin= 7 ErrMin= 7.08D-05
 ErrMax= 7.08D-05  0.00D+00 EMaxC= 1.00D-01 BMatC= 4.55D-06 BMatP= 9.49D-05
 IDIUse=1 WtCom= 1.00D+00 WtEn= 0.00D+00
 Coeff-Com: -0.108D-02 0.216D-02 0.343D-01-0.232D-01 0.157D+00 0.217D+00
 Coeff-Com:  0.614D+00
 Coeff:     -0.108D-02 0.216D-02 0.343D-01-0.232D-01 0.157D+00 0.217D+00
 Coeff:      0.614D+00
 Gap=     0.161 Goal=   None    Shift=    0.000
 RMSDP=1.29D-05 MaxDP=1.20D-03 DE=-8.30D-05 OVMax= 5.17D-04

 Cycle   8  Pass 1  IDiag  1:
 RMSU=  3.11D-06    CP:  9.86D-01  1.07D+00  4.87D-01  4.17D-01  9.87D-01
                    CP:  6.69D-01  7.91D-01
 E= -824.110308880580     Delta-E=       -0.000003334618 Rises=F Damp=F
 DIIS: error= 2.88D-05 at cycle   8 NSaved=   8.
 NSaved= 8 IEnMin= 8 EnMin= -824.110308880580     IErMin= 8 ErrMin= 2.88D-05
 ErrMax= 2.88D-05  0.00D+00 EMaxC= 1.00D-01 BMatC= 8.23D-07 BMatP= 4.55D-06
 IDIUse=1 WtCom= 1.00D+00 WtEn= 0.00D+00
 Coeff-Com:  0.185D-03-0.891D-03 0.188D-03-0.358D-03 0.732D-03 0.602D-01
 Coeff-Com:  0.358D+00 0.582D+00
 Coeff:      0.185D-03-0.891D-03 0.188D-03-0.358D-03 0.732D-03 0.602D-01
 Coeff:      0.358D+00 0.582D+00
 Gap=     0.161 Goal=   None    Shift=    0.000
 RMSDP=1.62D-06 MaxDP=1.07D-04 DE=-3.33D-06 OVMax= 1.82D-04

 Cycle   9  Pass 1  IDiag  1:
 RMSU=  8.22D-07    CP:  9.86D-01  1.07D+00  4.87D-01  4.18D-01  9.91D-01
                    CP:  6.66D-01  8.64D-01  8.68D-01
 E= -824.110309510377     Delta-E=       -0.000000629797 Rises=F Damp=F
 DIIS: error= 7.01D-06 at cycle   9 NSaved=   9.
 NSaved= 9 IEnMin= 9 EnMin= -824.110309510377     IErMin= 9 ErrMin= 7.01D-06
 ErrMax= 7.01D-06  0.00D+00 EMaxC= 1.00D-01 BMatC= 2.00D-08 BMatP= 8.23D-07
 IDIUse=1 WtCom= 1.00D+00 WtEn= 0.00D+00
 Coeff-Com:  0.106D-03-0.312D-03-0.179D-02 0.915D-03-0.795D-02 0.904D-02
 Coeff-Com:  0.797D-01 0.172D+00 0.748D+00
 Coeff:      0.106D-03-0.312D-03-0.179D-02 0.915D-03-0.795D-02 0.904D-02
 Coeff:      0.797D-01 0.172D+00 0.748D+00
 Gap=     0.161 Goal=   None    Shift=    0.000
 RMSDP=7.37D-07 MaxDP=6.25D-05 DE=-6.30D-07 OVMax= 5.39D-05

 Cycle  10  Pass 1  IDiag  1:
 RMSU=  3.08D-07    CP:  9.86D-01  1.07D+00  4.87D-01  4.17D-01  9.91D-01
                    CP:  6.72D-01  8.73D-01  9.01D-01  1.04D+00
 E= -824.110309530667     Delta-E=       -0.000000020290 Rises=F Damp=F
 DIIS: error= 2.07D-06 at cycle  10 NSaved=  10.
 NSaved=10 IEnMin=10 EnMin= -824.110309530667     IErMin=10 ErrMin= 2.07D-06
 ErrMax= 2.07D-06  0.00D+00 EMaxC= 1.00D-01 BMatC= 3.65D-09 BMatP= 2.00D-08
 IDIUse=1 WtCom= 1.00D+00 WtEn= 0.00D+00
 Coeff-Com:  0.332D-04-0.608D-04-0.103D-02 0.491D-03-0.436D-02-0.880D-03
 Coeff-Com:  0.520D-02 0.292D-01 0.376D+00 0.595D+00
 Coeff:      0.332D-04-0.608D-04-0.103D-02 0.491D-03-0.436D-02-0.880D-03
 Coeff:      0.520D-02 0.292D-01 0.376D+00 0.595D+00
 Gap=     0.161 Goal=   None    Shift=    0.000
 RMSDP=1.19D-07 MaxDP=6.99D-06 DE=-2.03D-08 OVMax= 2.39D-05

 Cycle  11  Pass 1  IDiag  1:
 RMSU=  8.82D-08    CP:  9.86D-01  1.07D+00  4.87D-01  4.17D-01  9.91D-01
                    CP:  6.73D-01  8.77D-01  9.05D-01  1.09D+00  9.93D-01
 E= -824.110309534209     Delta-E=       -0.000000003542 Rises=F Damp=F
 DIIS: error= 1.09D-06 at cycle  11 NSaved=  11.
 NSaved=11 IEnMin=11 EnMin= -824.110309534209     IErMin=11 ErrMin= 1.09D-06
 ErrMax= 1.09D-06  0.00D+00 EMaxC= 1.00D-01 BMatC= 4.09D-10 BMatP= 3.65D-09
 IDIUse=1 WtCom= 1.00D+00 WtEn= 0.00D+00
 Coeff-Com: -0.155D-05 0.162D-04-0.120D-03 0.633D-04-0.520D-03-0.126D-02
 Coeff-Com: -0.929D-02-0.127D-01 0.394D-01 0.284D+00 0.700D+00
 Coeff:     -0.155D-05 0.162D-04-0.120D-03 0.633D-04-0.520D-03-0.126D-02
 Coeff:     -0.929D-02-0.127D-01 0.394D-01 0.284D+00 0.700D+00
 Gap=     0.161 Goal=   None    Shift=    0.000
 RMSDP=8.46D-08 MaxDP=6.75D-06 DE=-3.54D-09 OVMax= 1.03D-05

 Cycle  12  Pass 1  IDiag  1:
 RMSU=  2.92D-08    CP:  9.86D-01  1.07D+00  4.87D-01  4.17D-01  9.91D-01
                    CP:  6.73D-01  8.77D-01  9.11D-01  1.11D+00  1.07D+00
                    CP:  9.45D-01
 E= -824.110309534650     Delta-E=       -0.000000000440 Rises=F Damp=F
 DIIS: error= 2.76D-07 at cycle  12 NSaved=  12.
 NSaved=12 IEnMin=12 EnMin= -824.110309534650     IErMin=12 ErrMin= 2.76D-07
 ErrMax= 2.76D-07  0.00D+00 EMaxC= 1.00D-01 BMatC= 3.17D-11 BMatP= 4.09D-10
 IDIUse=1 WtCom= 1.00D+00 WtEn= 0.00D+00
 Coeff-Com: -0.252D-05 0.904D-05 0.166D-04-0.234D-05 0.606D-04-0.462D-03
 Coeff-Com: -0.450D-02-0.745D-02-0.736D-02 0.934D-01 0.326D+00 0.601D+00
 Coeff:     -0.252D-05 0.904D-05 0.166D-04-0.234D-05 0.606D-04-0.462D-03
 Coeff:     -0.450D-02-0.745D-02-0.736D-02 0.934D-01 0.326D+00 0.601D+00
 Gap=     0.161 Goal=   None    Shift=    0.000
 RMSDP=1.88D-08 MaxDP=1.48D-06 DE=-4.40D-10 OVMax= 2.17D-06

 Cycle  13  Pass 1  IDiag  1:
 RMSU=  8.57D-09    CP:  9.86D-01  1.07D+00  4.87D-01  4.17D-01  9.91D-01
                    CP:  6.74D-01  8.77D-01  9.11D-01  1.11D+00  1.09D+00
                    CP:  9.79D-01  9.60D-01
 E= -824.110309534681     Delta-E=       -0.000000000031 Rises=F Damp=F
 DIIS: error= 5.09D-08 at cycle  13 NSaved=  13.
 NSaved=13 IEnMin=13 EnMin= -824.110309534681     IErMin=13 ErrMin= 5.09D-08
 ErrMax= 5.09D-08  0.00D+00 EMaxC= 1.00D-01 BMatC= 2.05D-12 BMatP= 3.17D-11
 IDIUse=1 WtCom= 1.00D+00 WtEn= 0.00D+00
 Coeff-Com: -0.822D-06 0.215D-05 0.158D-04-0.662D-05 0.690D-04-0.877D-04
 Coeff-Com: -0.968D-03-0.179D-02-0.792D-02 0.682D-02 0.573D-01 0.238D+00
 Coeff-Com:  0.709D+00
 Coeff:     -0.822D-06 0.215D-05 0.158D-04-0.662D-05 0.690D-04-0.877D-04
 Coeff:     -0.968D-03-0.179D-02-0.792D-02 0.682D-02 0.573D-01 0.238D+00
 Coeff:      0.709D+00
 Gap=     0.161 Goal=   None    Shift=    0.000
 RMSDP=4.00D-09 MaxDP=1.36D-07 DE=-3.14D-11 OVMax= 8.11D-07

 Error on total polarization charges =  0.05949
 SCF Done:  E(RB3LYP) =  -824.110309535     A.U. after   13 cycles
            NFock= 13  Conv=0.40D-08     -V/T= 2.0052
 KE= 8.198749029601D+02 PE=-4.781562141909D+03 EE= 1.704581753571D+03
 SMD-CDS (non-electrostatic) energy       (kcal/mol) =      -3.05
 (included in total energy above)
 Leave Link  502 at Tue Nov 23 11:04:46 2021, MaxMem=  5242880000 cpu:      7544.6
 (Enter /opt/nce/packages/global/g09/l601.exe)
 Copying SCF densities to generalized density rwf, IOpCl= 0 IROHF=0.

 **********************************************************************

            Population analysis using the SCF density.

 **********************************************************************

 Alpha  occ. eigenvalues --  -19.17604 -14.35807 -10.23893 -10.23891 -10.22625
 Alpha  occ. eigenvalues --  -10.22623 -10.21546 -10.17859 -10.17828 -10.17775
 Alpha  occ. eigenvalues --  -10.17744 -10.17685 -10.17571 -10.17571 -10.17463
 Alpha  occ. eigenvalues --  -10.17462 -10.17217 -10.17217 -10.17054 -10.17054
 Alpha  occ. eigenvalues --   -1.08609  -0.97917  -0.87260  -0.86577  -0.84201
 Alpha  occ. eigenvalues --   -0.76902  -0.76607  -0.76376  -0.75577  -0.73695
 Alpha  occ. eigenvalues --   -0.70875  -0.65025  -0.64729  -0.61705  -0.60519
 Alpha  occ. eigenvalues --   -0.59431  -0.57494  -0.56724  -0.54009  -0.50588
 Alpha  occ. eigenvalues --   -0.49832  -0.48096  -0.47384  -0.47285  -0.47199
 Alpha  occ. eigenvalues --   -0.45388  -0.44104  -0.44013  -0.43546  -0.43306
 Alpha  occ. eigenvalues --   -0.42725  -0.39522  -0.38440  -0.38212  -0.37861
 Alpha  occ. eigenvalues --   -0.37467  -0.36761  -0.36061  -0.35918  -0.35087
 Alpha  occ. eigenvalues --   -0.33674  -0.32703  -0.27161  -0.26625  -0.26477
 Alpha  occ. eigenvalues --   -0.25989  -0.23973  -0.18876
 Alpha virt. eigenvalues --   -0.02801  -0.02229  -0.01844  -0.01289  -0.00529
 Alpha virt. eigenvalues --    0.02095   0.05255   0.05345   0.06620   0.07126
 Alpha virt. eigenvalues --    0.07904   0.08621   0.09568   0.09866   0.10301
 Alpha virt. eigenvalues --    0.11603   0.11678   0.11732   0.11767   0.12360
 Alpha virt. eigenvalues --    0.13427   0.13907   0.14372   0.15043   0.16114
 Alpha virt. eigenvalues --    0.17956   0.18153   0.18505   0.19097   0.19932
 Alpha virt. eigenvalues --    0.20290   0.20378   0.20562   0.20986   0.21012
 Alpha virt. eigenvalues --    0.21088   0.21560   0.22483   0.22912   0.23194
 Alpha virt. eigenvalues --    0.23964   0.24125   0.24363   0.24421   0.25743
 Alpha virt. eigenvalues --    0.25852   0.26961   0.27408   0.27665   0.28170
 Alpha virt. eigenvalues --    0.28235   0.28310   0.29819   0.31123   0.31420
 Alpha virt. eigenvalues --    0.31544   0.32362   0.33126   0.33179   0.33629
 Alpha virt. eigenvalues --    0.34059   0.34577   0.35215   0.35246   0.36552
 Alpha virt. eigenvalues --    0.36728   0.36822   0.37632   0.37721   0.38307
 Alpha virt. eigenvalues --    0.39377   0.39629   0.39793   0.40577   0.41184
 Alpha virt. eigenvalues --    0.41983   0.42633   0.42748   0.42925   0.42933
 Alpha virt. eigenvalues --    0.43918   0.43961   0.44744   0.45233   0.45563
 Alpha virt. eigenvalues --    0.45752   0.46438   0.46807   0.46909   0.47268
 Alpha virt. eigenvalues --    0.48265   0.48685   0.49025   0.49540   0.49863
 Alpha virt. eigenvalues --    0.49945   0.50106   0.50605   0.51926   0.52781
 Alpha virt. eigenvalues --    0.53736   0.54548   0.54775   0.55901   0.55910
 Alpha virt. eigenvalues --    0.57514   0.59248   0.60158   0.60709   0.61875
 Alpha virt. eigenvalues --    0.62705   0.63790   0.64452   0.65422   0.65879
 Alpha virt. eigenvalues --    0.66524   0.66890   0.67329   0.68066   0.68075
 Alpha virt. eigenvalues --    0.68683   0.68737   0.68942   0.70094   0.70698
 Alpha virt. eigenvalues --    0.71238   0.71937   0.72056   0.72913   0.73213
 Alpha virt. eigenvalues --    0.73814   0.74814   0.75558   0.75959   0.75989
 Alpha virt. eigenvalues --    0.76963   0.77956   0.78377   0.79427   0.80189
 Alpha virt. eigenvalues --    0.80495   0.80742   0.81264   0.83673   0.83809
 Alpha virt. eigenvalues --    0.85204   0.85440   0.86023   0.86941   0.87286
 Alpha virt. eigenvalues --    0.88060   0.88681   0.89017   0.89425   0.90136
 Alpha virt. eigenvalues --    0.91360   0.91570   0.91847   0.92873   0.93416
 Alpha virt. eigenvalues --    0.94487   0.95927   0.95933   0.99899   1.00291
 Alpha virt. eigenvalues --    1.00726   1.02050   1.03419   1.03558   1.04697
 Alpha virt. eigenvalues --    1.06407   1.07496   1.08309   1.09520   1.10071
 Alpha virt. eigenvalues --    1.11495   1.11793   1.12175   1.13507   1.13656
 Alpha virt. eigenvalues --    1.14334   1.15326   1.15767   1.17619   1.17944
 Alpha virt. eigenvalues --    1.18175   1.19765   1.21774   1.22207   1.23061
 Alpha virt. eigenvalues --    1.23861   1.23916   1.25597   1.26170   1.26234
 Alpha virt. eigenvalues --    1.26408   1.26808   1.27344   1.27769   1.29698
 Alpha virt. eigenvalues --    1.30100   1.31647   1.31694   1.33117   1.33469
 Alpha virt. eigenvalues --    1.33784   1.35297   1.37843   1.38939   1.39776
 Alpha virt. eigenvalues --    1.40228   1.40393   1.41043   1.43825   1.43978
 Alpha virt. eigenvalues --    1.45136   1.45666   1.46403   1.46683   1.47235
 Alpha virt. eigenvalues --    1.48390   1.48402   1.49727   1.50377   1.50566
 Alpha virt. eigenvalues --    1.51703   1.52510   1.54493   1.55814   1.55921
 Alpha virt. eigenvalues --    1.56960   1.57904   1.58266   1.59173   1.59482
 Alpha virt. eigenvalues --    1.60740   1.60779   1.62207   1.62758   1.64063
 Alpha virt. eigenvalues --    1.64514   1.65037   1.66170   1.66411   1.67510
 Alpha virt. eigenvalues --    1.67517   1.68148   1.69323   1.69429   1.70086
 Alpha virt. eigenvalues --    1.71034   1.71641   1.71711   1.72432   1.72733
 Alpha virt. eigenvalues --    1.74366   1.74778   1.75454   1.75988   1.77403
 Alpha virt. eigenvalues --    1.78218   1.78484   1.82571   1.84674   1.85001
 Alpha virt. eigenvalues --    1.85768   1.87099   1.87349   1.88372   1.91324
 Alpha virt. eigenvalues --    1.93119   1.93388   1.93594   1.93735   1.96518
 Alpha virt. eigenvalues --    1.96877   1.98037   1.99395   2.00514   2.02299
 Alpha virt. eigenvalues --    2.02435   2.04119   2.04528   2.04854   2.05013
 Alpha virt. eigenvalues --    2.08207   2.08278   2.09745   2.10127   2.10479
 Alpha virt. eigenvalues --    2.12769   2.13453   2.13672   2.15433   2.16489
 Alpha virt. eigenvalues --    2.16496   2.18075   2.18126   2.18590   2.19837
 Alpha virt. eigenvalues --    2.21211   2.21725   2.23453   2.23629   2.24569
 Alpha virt. eigenvalues --    2.25038   2.27151   2.27514   2.29597   2.34122
 Alpha virt. eigenvalues --    2.35013   2.36183   2.37752   2.38980   2.39509
 Alpha virt. eigenvalues --    2.40096   2.45275   2.45634   2.46539   2.48779
 Alpha virt. eigenvalues --    2.49570   2.50202   2.50709   2.52229   2.53053
 Alpha virt. eigenvalues --    2.54963   2.55671   2.56893   2.58271   2.58924
 Alpha virt. eigenvalues --    2.59487   2.59630   2.59983   2.61045   2.61512
 Alpha virt. eigenvalues --    2.62800   2.63585   2.63938   2.64796   2.66081
 Alpha virt. eigenvalues --    2.66131   2.66395   2.67366   2.67673   2.68381
 Alpha virt. eigenvalues --    2.68892   2.69750   2.70317   2.71121   2.71391
 Alpha virt. eigenvalues --    2.71684   2.72302   2.72328   2.73241   2.73297
 Alpha virt. eigenvalues --    2.74104   2.74141   2.74594   2.75869   2.76626
 Alpha virt. eigenvalues --    2.76888   2.77721   2.77812   2.79060   2.79381
 Alpha virt. eigenvalues --    2.80070   2.80938   2.80949   2.81929   2.83946
 Alpha virt. eigenvalues --    2.84833   2.85526   2.85724   2.86344   2.87192
 Alpha virt. eigenvalues --    2.87978   2.88340   2.88476   2.89143   2.89832
 Alpha virt. eigenvalues --    2.90277   2.91533   2.92829   2.93078   2.94037
 Alpha virt. eigenvalues --    2.94917   2.95947   2.96347   2.96811   2.99145
 Alpha virt. eigenvalues --    2.99786   3.00534   3.00875   3.02938   3.03241
 Alpha virt. eigenvalues --    3.03835   3.05770   3.06896   3.08487   3.08853
 Alpha virt. eigenvalues --    3.10499   3.10991   3.11552   3.11975   3.12356
 Alpha virt. eigenvalues --    3.14020   3.14429   3.15099   3.15129   3.15365
 Alpha virt. eigenvalues --    3.16221   3.16635   3.17022   3.17797   3.18418
 Alpha virt. eigenvalues --    3.18447   3.18906   3.20280   3.20287   3.21481
 Alpha virt. eigenvalues --    3.23548   3.23776   3.24101   3.25564   3.25693
 Alpha virt. eigenvalues --    3.26946   3.28161   3.28345   3.28967   3.30165
 Alpha virt. eigenvalues --    3.30280   3.31158   3.32407   3.32506   3.33433
 Alpha virt. eigenvalues --    3.34395   3.35263   3.35817   3.36419   3.36534
 Alpha virt. eigenvalues --    3.37059   3.37727   3.38742   3.39321   3.39567
 Alpha virt. eigenvalues --    3.40349   3.40500   3.41227   3.42180   3.43098
 Alpha virt. eigenvalues --    3.43204   3.44527   3.45844   3.46290   3.46864
 Alpha virt. eigenvalues --    3.47959   3.48044   3.48255   3.49273   3.49939
 Alpha virt. eigenvalues --    3.50209   3.51220   3.51355   3.52218   3.53196
 Alpha virt. eigenvalues --    3.53615   3.53796   3.54893   3.55392   3.57183
 Alpha virt. eigenvalues --    3.57259   3.58938   3.60541   3.62342   3.62800
 Alpha virt. eigenvalues --    3.63512   3.63684   3.64848   3.68768   3.69368
 Alpha virt. eigenvalues --    3.69708   3.70144   3.71227   3.75064   3.76728
 Alpha virt. eigenvalues --    3.77188   3.79565   3.81461   3.82739   3.83378
 Alpha virt. eigenvalues --    3.85561   3.88174   3.89111   3.90314   3.91839
 Alpha virt. eigenvalues --    3.92356   3.92747   3.94919   3.98369   3.98577
 Alpha virt. eigenvalues --    4.00248   4.00830   4.05214   4.05992   4.06136
 Alpha virt. eigenvalues --    4.08501   4.09376   4.09732   4.11597   4.11656
 Alpha virt. eigenvalues --    4.12942   4.13294   4.14484   4.15267   4.15444
 Alpha virt. eigenvalues --    4.17656   4.18479   4.18752   4.20099   4.21252
 Alpha virt. eigenvalues --    4.21905   4.22961   4.23678   4.24415   4.24438
 Alpha virt. eigenvalues --    4.25078   4.25297   4.26125   4.27915   4.28904
 Alpha virt. eigenvalues --    4.30475   4.30682   4.32153   4.33357   4.33739
 Alpha virt. eigenvalues --    4.35073   4.36289   4.42252   4.43381   4.44583
 Alpha virt. eigenvalues --    4.45875   4.47042   4.50033   4.52720   4.56169
 Alpha virt. eigenvalues --    4.59988   4.62231   4.63249   4.64212   4.65208
 Alpha virt. eigenvalues --    4.67017   4.68158   4.70282   4.72529   4.73878
 Alpha virt. eigenvalues --    4.75506   4.77890   4.78048   4.81414   4.81623
 Alpha virt. eigenvalues --    4.85338   4.85846   4.88364   4.90748   4.92639
 Alpha virt. eigenvalues --    4.93883   4.97937   5.00237   5.02275   5.03544
 Alpha virt. eigenvalues --    5.07626   5.11457   5.12230   5.14745   5.15454
 Alpha virt. eigenvalues --    5.18155   5.18344   5.25881   5.27600   5.28473
 Alpha virt. eigenvalues --    5.29349   5.31449   5.33967   5.36768   5.39096
 Alpha virt. eigenvalues --    5.42075   5.43801   5.47021   5.54907   5.55256
 Alpha virt. eigenvalues --    5.56258   5.57297   5.58220   5.66953   5.82983
 Alpha virt. eigenvalues --    5.84465   5.86654   5.89375   6.02803   6.07364
 Alpha virt. eigenvalues --    6.12992   6.16520   6.18259   6.44104   6.66983
 Alpha virt. eigenvalues --    6.72839   6.86662   6.90707   7.39672   7.46062
 Alpha virt. eigenvalues --   22.12693  22.27589  22.27905  22.57997  22.60135
 Alpha virt. eigenvalues --   22.60144  22.63962  22.68735  22.69509  22.76458
 Alpha virt. eigenvalues --   22.83453  22.84970  22.89364  22.90791  22.99297
 Alpha virt. eigenvalues --   23.25245  23.32542  23.47036  33.24718  44.40304
          Condensed to atoms (all electrons):
               1          2          3          4          5          6
     1  C    5.114590   0.343271   0.058492  -0.142596   0.059051   0.390875
     2  C    0.343271   5.329499   0.220586   0.151824  -0.155689   0.040735
     3  C    0.058492   0.220586   5.366772   0.084475   0.113981  -0.126889
     4  C   -0.142596   0.151824   0.084475   5.270951   0.247681   0.074762
     5  C    0.059051  -0.155689   0.113981   0.247681   5.299082   0.317591
     6  C    0.390875   0.040735  -0.126889   0.074762   0.317591   5.100793
     7  C   -0.000720   0.012074  -0.031163  -0.040789  -0.006165  -0.001236
     8  C    0.000631   0.001219  -0.059916  -0.031160   0.011705  -0.001335
     9  C   -0.000237   0.001820   0.001218   0.012074  -0.001837   0.000191
    10  H    0.000001  -0.000002  -0.000874   0.000055   0.000010  -0.000002
    11  C    0.000032  -0.000237   0.000631  -0.000720   0.000310  -0.000026
    12  C   -0.000026   0.000191  -0.001335  -0.001237  -0.000529   0.000046
    13  C    0.000310  -0.001837   0.011705  -0.006165   0.005072  -0.000529
    14  H   -0.035804   0.429917  -0.038248   0.003799  -0.000984   0.006559
    15  H    0.017148  -0.009116   0.027256  -0.100933   0.468408  -0.058405
    16  H    0.000000  -0.000001   0.000052  -0.000008   0.000000  -0.000000
    17  N    0.005544  -0.086239   0.410974  -0.062859   0.002634   0.001170
    18  C   -0.005046  -0.025075  -0.080376  -0.001897   0.001112  -0.000507
    19  C    0.000661  -0.008064   0.010550   0.000217  -0.000292   0.000042
    20  C    0.000181  -0.004975   0.008845   0.002221   0.000521  -0.000301
    21  C    0.000052  -0.002073  -0.005572  -0.000510  -0.000093   0.000093
    22  C    0.000125  -0.000172  -0.002349  -0.000402   0.000040  -0.000017
    23  H    0.000073  -0.000824   0.001637   0.000022   0.000064  -0.000025
    24  C    0.000019   0.000086   0.001309   0.000078   0.000007  -0.000007
    25  H   -0.000003   0.000037  -0.000037  -0.000000  -0.000000   0.000000
    26  H   -0.000000  -0.000009   0.000014   0.000000   0.000000  -0.000000
    27  H    0.000021  -0.000090   0.001063  -0.001027   0.000612  -0.000046
    28  H    0.444004  -0.057920   0.013443  -0.004261   0.013229  -0.054216
    29  O   -0.000897   0.009669  -0.078351   0.314878  -0.041959   0.003870
    30  H   -0.000000   0.000001  -0.000023   0.000043  -0.000004   0.000000
    31  H   -0.063460   0.016879  -0.007894   0.019882  -0.066728   0.455003
    32  H   -0.000004  -0.000021  -0.000018  -0.000001   0.000000  -0.000000
    33  H    0.000155   0.001166   0.003803   0.000464   0.000139  -0.000124
               7          8          9         10         11         12
     1  C   -0.000720   0.000631  -0.000237   0.000001   0.000032  -0.000026
     2  C    0.012074   0.001219   0.001820  -0.000002  -0.000237   0.000191
     3  C   -0.031163  -0.059916   0.001218  -0.000874   0.000631  -0.001335
     4  C   -0.040789  -0.031160   0.012074   0.000055  -0.000720  -0.001237
     5  C   -0.006165   0.011705  -0.001837   0.000010   0.000310  -0.000529
     6  C   -0.001236  -0.001335   0.000191  -0.000002  -0.000026   0.000046
     7  C    5.270960   0.084473   0.151842   0.003799  -0.142609   0.074771
     8  C    0.084473   5.366794   0.220557  -0.038250   0.058499  -0.126900
     9  C    0.151842   0.220557   5.329538   0.429921   0.343250   0.040758
    10  H    0.003799  -0.038250   0.429921   0.475991  -0.035803   0.006560
    11  C   -0.142609   0.058499   0.343250  -0.035803   5.114611   0.390854
    12  C    0.074771  -0.126900   0.040758   0.006560   0.390854   5.100815
    13  C    0.247659   0.113999  -0.155715  -0.000984   0.059072   0.317568
    14  H    0.000055  -0.000874  -0.000002  -0.000003   0.000001  -0.000002
    15  H   -0.001027   0.001063  -0.000090  -0.000000   0.000021  -0.000046
    16  H   -0.004261   0.013445  -0.057924  -0.005519   0.444008  -0.054218
    17  N   -0.062858   0.410966  -0.086240  -0.005824   0.005543   0.001171
    18  C   -0.001899  -0.080384  -0.025067   0.000266  -0.005047  -0.000507
    19  C    0.000217   0.010559  -0.008070  -0.001458   0.000663   0.000042
    20  C    0.002221   0.008842  -0.004975   0.000960   0.000182  -0.000301
    21  C   -0.000510  -0.005575  -0.002073  -0.000331   0.000052   0.000093
    22  C   -0.000402  -0.002349  -0.000171   0.000121   0.000125  -0.000017
    23  H    0.000022   0.001638  -0.000824   0.000106   0.000073  -0.000025
    24  C    0.000078   0.001309   0.000086   0.000450   0.000019  -0.000007
    25  H   -0.000000  -0.000037   0.000037  -0.000010  -0.000003   0.000000
    26  H    0.000000   0.000014  -0.000009   0.000003  -0.000000  -0.000000
    27  H   -0.100935   0.027256  -0.009116   0.000011   0.017149  -0.058406
    28  H   -0.000008   0.000052  -0.000001   0.000000   0.000000  -0.000000
    29  O    0.314876  -0.078352   0.009670  -0.000035  -0.000897   0.003870
    30  H    0.019884  -0.007895   0.016880  -0.000128  -0.063462   0.455006
    31  H    0.000043  -0.000023   0.000001   0.000000  -0.000000   0.000000
    32  H   -0.000001  -0.000018  -0.000021   0.000011  -0.000004  -0.000000
    33  H    0.000464   0.003803   0.001166  -0.000099   0.000155  -0.000124
              13         14         15         16         17         18
     1  C    0.000310  -0.035804   0.017148   0.000000   0.005544  -0.005046
     2  C   -0.001837   0.429917  -0.009116  -0.000001  -0.086239  -0.025075
     3  C    0.011705  -0.038248   0.027256   0.000052   0.410974  -0.080376
     4  C   -0.006165   0.003799  -0.100933  -0.000008  -0.062859  -0.001897
     5  C    0.005072  -0.000984   0.468408   0.000000   0.002634   0.001112
     6  C   -0.000529   0.006559  -0.058405  -0.000000   0.001170  -0.000507
     7  C    0.247659   0.000055  -0.001027  -0.004261  -0.062858  -0.001899
     8  C    0.113999  -0.000874   0.001063   0.013445   0.410966  -0.080384
     9  C   -0.155715  -0.000002  -0.000090  -0.057924  -0.086240  -0.025067
    10  H   -0.000984  -0.000003  -0.000000  -0.005519  -0.005824   0.000266
    11  C    0.059072   0.000001   0.000021   0.444008   0.005543  -0.005047
    12  C    0.317568  -0.000002  -0.000046  -0.054218   0.001171  -0.000507
    13  C    5.299114   0.000010   0.000612   0.013229   0.002633   0.001112
    14  H    0.000010   0.475990   0.000011   0.000000  -0.005824   0.000264
    15  H    0.000612   0.000011   0.514071   0.000000   0.000029   0.000090
    16  H    0.013229   0.000000   0.000000   0.510632  -0.000122   0.000031
    17  N    0.002633  -0.005824   0.000029  -0.000122   6.439864   0.072202
    18  C    0.001112   0.000264   0.000090   0.000031   0.072202   5.536743
    19  C   -0.000292  -0.001453  -0.000001   0.000018  -0.039185   0.392686
    20  C    0.000521   0.000961   0.000000   0.000034  -0.022459   0.358167
    21  C   -0.000093  -0.000332   0.000000  -0.000017   0.019052   0.021745
    22  C    0.000040   0.000120   0.000000   0.000002   0.011184  -0.042851
    23  H    0.000064   0.000106   0.000000   0.000004   0.005472  -0.073735
    24  C    0.000007   0.000451  -0.000000   0.000002   0.000730  -0.122334
    25  H   -0.000000  -0.000010  -0.000000  -0.000000  -0.000460   0.017923
    26  H    0.000000   0.000003   0.000000   0.000000   0.000005  -0.002715
    27  H    0.468410  -0.000000   0.000254  -0.000106   0.000029   0.000090
    28  H    0.000000  -0.005518  -0.000106  -0.000000  -0.000122   0.000032
    29  O   -0.041960  -0.000035   0.007234   0.000011  -0.009068  -0.004591
    30  H   -0.066731   0.000000  -0.000001  -0.006820   0.000008  -0.000011
    31  H   -0.000004  -0.000128  -0.008221   0.000000   0.000008  -0.000011
    32  H    0.000000   0.000011   0.000000   0.000000  -0.000268   0.012797
    33  H    0.000139  -0.000099   0.000000   0.000009  -0.007337  -0.053870
              19         20         21         22         23         24
     1  C    0.000661   0.000181   0.000052   0.000125   0.000073   0.000019
     2  C   -0.008064  -0.004975  -0.002073  -0.000172  -0.000824   0.000086
     3  C    0.010550   0.008845  -0.005572  -0.002349   0.001637   0.001309
     4  C    0.000217   0.002221  -0.000510  -0.000402   0.000022   0.000078
     5  C   -0.000292   0.000521  -0.000093   0.000040   0.000064   0.000007
     6  C    0.000042  -0.000301   0.000093  -0.000017  -0.000025  -0.000007
     7  C    0.000217   0.002221  -0.000510  -0.000402   0.000022   0.000078
     8  C    0.010559   0.008842  -0.005575  -0.002349   0.001638   0.001309
     9  C   -0.008070  -0.004975  -0.002073  -0.000171  -0.000824   0.000086
    10  H   -0.001458   0.000960  -0.000331   0.000121   0.000106   0.000450
    11  C    0.000663   0.000182   0.000052   0.000125   0.000073   0.000019
    12  C    0.000042  -0.000301   0.000093  -0.000017  -0.000025  -0.000007
    13  C   -0.000292   0.000521  -0.000093   0.000040   0.000064   0.000007
    14  H   -0.001453   0.000961  -0.000332   0.000120   0.000106   0.000451
    15  H   -0.000001   0.000000   0.000000   0.000000   0.000000  -0.000000
    16  H    0.000018   0.000034  -0.000017   0.000002   0.000004   0.000002
    17  N   -0.039185  -0.022459   0.019052   0.011184   0.005472   0.000730
    18  C    0.392686   0.358167   0.021745  -0.042851  -0.073735  -0.122334
    19  C    5.140637   0.054941   0.291067  -0.072661   0.011048   0.042702
    20  C    0.054941   5.031971  -0.100175   0.430484   0.452416   0.017679
    21  C    0.291067  -0.100175   5.164675   0.007021  -0.005145   0.382955
    22  C   -0.072661   0.430484   0.007021   5.024792  -0.045448   0.408806
    23  H    0.011048   0.452416  -0.005145  -0.045448   0.503349   0.012981
    24  C    0.042702   0.017679   0.382955   0.408806   0.012981   5.045753
    25  H   -0.004788  -0.053285   0.011981   0.442783  -0.007891  -0.057250
    26  H    0.010730   0.008947  -0.049199  -0.049156  -0.000132   0.436437
    27  H   -0.000001   0.000000   0.000000   0.000000   0.000000  -0.000000
    28  H    0.000018   0.000034  -0.000017   0.000002   0.000004   0.000002
    29  O    0.000137   0.000309   0.000001  -0.000017   0.000058   0.000003
    30  H    0.000001   0.000000  -0.000000  -0.000000  -0.000000   0.000000
    31  H    0.000001   0.000000  -0.000000  -0.000000  -0.000000   0.000000
    32  H   -0.051023  -0.002544   0.436816   0.009845   0.000050  -0.051349
    33  H    0.452608   0.011878  -0.059760  -0.003227  -0.000094   0.011146
              25         26         27         28         29         30
     1  C   -0.000003  -0.000000   0.000021   0.444004  -0.000897  -0.000000
     2  C    0.000037  -0.000009  -0.000090  -0.057920   0.009669   0.000001
     3  C   -0.000037   0.000014   0.001063   0.013443  -0.078351  -0.000023
     4  C   -0.000000   0.000000  -0.001027  -0.004261   0.314878   0.000043
     5  C   -0.000000   0.000000   0.000612   0.013229  -0.041959  -0.000004
     6  C    0.000000  -0.000000  -0.000046  -0.054216   0.003870   0.000000
     7  C   -0.000000   0.000000  -0.100935  -0.000008   0.314876   0.019884
     8  C   -0.000037   0.000014   0.027256   0.000052  -0.078352  -0.007895
     9  C    0.000037  -0.000009  -0.009116  -0.000001   0.009670   0.016880
    10  H   -0.000010   0.000003   0.000011   0.000000  -0.000035  -0.000128
    11  C   -0.000003  -0.000000   0.017149   0.000000  -0.000897  -0.063462
    12  C    0.000000  -0.000000  -0.058406  -0.000000   0.003870   0.455006
    13  C   -0.000000   0.000000   0.468410   0.000000  -0.041960  -0.066731
    14  H   -0.000010   0.000003  -0.000000  -0.005518  -0.000035   0.000000
    15  H   -0.000000   0.000000   0.000254  -0.000106   0.007234  -0.000001
    16  H   -0.000000   0.000000  -0.000106  -0.000000   0.000011  -0.006820
    17  N   -0.000460   0.000005   0.000029  -0.000122  -0.009068   0.000008
    18  C    0.017923  -0.002715   0.000090   0.000032  -0.004591  -0.000011
    19  C   -0.004788   0.010730  -0.000001   0.000018   0.000137   0.000001
    20  C   -0.053285   0.008947   0.000000   0.000034   0.000309   0.000000
    21  C    0.011981  -0.049199   0.000000  -0.000017   0.000001  -0.000000
    22  C    0.442783  -0.049156   0.000000   0.000002  -0.000017  -0.000000
    23  H   -0.007891  -0.000132   0.000000   0.000004   0.000058  -0.000000
    24  C   -0.057250   0.436437  -0.000000   0.000002   0.000003   0.000000
    25  H    0.506190  -0.006109  -0.000000  -0.000000  -0.000000   0.000000
    26  H   -0.006109   0.505855   0.000000   0.000000   0.000000   0.000000
    27  H   -0.000000   0.000000   0.514071   0.000000   0.007234  -0.008222
    28  H   -0.000000   0.000000   0.000000   0.510631   0.000011   0.000000
    29  O   -0.000000   0.000000   0.007234   0.000011   7.868233  -0.000117
    30  H    0.000000   0.000000  -0.008222   0.000000  -0.000117   0.513920
    31  H    0.000000   0.000000  -0.000001  -0.006820  -0.000117   0.000000
    32  H   -0.000194  -0.006468   0.000000   0.000000  -0.000000  -0.000000
    33  H    0.000018  -0.000109   0.000000   0.000009  -0.000052  -0.000000
              31         32         33
     1  C   -0.063460  -0.000004   0.000155
     2  C    0.016879  -0.000021   0.001166
     3  C   -0.007894  -0.000018   0.003803
     4  C    0.019882  -0.000001   0.000464
     5  C   -0.066728   0.000000   0.000139
     6  C    0.455003  -0.000000  -0.000124
     7  C    0.000043  -0.000001   0.000464
     8  C   -0.000023  -0.000018   0.003803
     9  C    0.000001  -0.000021   0.001166
    10  H    0.000000   0.000011  -0.000099
    11  C   -0.000000  -0.000004   0.000155
    12  C    0.000000  -0.000000  -0.000124
    13  C   -0.000004   0.000000   0.000139
    14  H   -0.000128   0.000011  -0.000099
    15  H   -0.008221   0.000000   0.000000
    16  H    0.000000   0.000000   0.000009
    17  N    0.000008  -0.000268  -0.007337
    18  C   -0.000011   0.012797  -0.053870
[...]
 Alpha virt. eigenvalues --   22.83463  22.86646  22.90731  22.91603  23.05387
 Alpha virt. eigenvalues --   23.24523  23.36675  23.50413  33.29582  44.48606
          Condensed to atoms (all electrons):
               1          2          3          4          5          6
     1  C    5.116753   0.354090   0.051795  -0.140434   0.039114   0.409176
     2  C    0.354090   5.306850   0.230130   0.153387  -0.140754   0.029677
     3  C    0.051795   0.230130   5.380420   0.072588   0.129046  -0.129570
     4  C   -0.140434   0.153387   0.072588   5.258779   0.274288   0.055113
     5  C    0.039114  -0.140754   0.129046   0.274288   5.217826   0.376766
     6  C    0.409176   0.029677  -0.129570   0.055113   0.376766   5.050000
     7  C   -0.001009   0.012841  -0.029386  -0.049507  -0.011359  -0.000123
     8  C    0.000037   0.004152  -0.061084  -0.029386   0.011351  -0.000805
     9  C   -0.000295   0.001711   0.004152   0.012841  -0.001925   0.000226
    10  H   -0.000002   0.000039  -0.001015  -0.000020   0.000003   0.000000
    11  C    0.000033  -0.000295   0.000037  -0.001009   0.000271  -0.000021
    12  C   -0.000021   0.000226  -0.000805  -0.000123  -0.000357   0.000021
    13  C    0.000271  -0.001925   0.011351  -0.011359   0.003649  -0.000357
    14  H   -0.035968   0.428838  -0.036307   0.004036  -0.001054   0.006458
    15  H    0.017006  -0.009055   0.027933  -0.101774   0.468348  -0.057279
    16  H    0.000000  -0.000001   0.000044  -0.000013  -0.000000  -0.000000
    17  N    0.007422  -0.090836   0.419147  -0.062254   0.005182  -0.000242
    18  C   -0.004597  -0.037037  -0.079598  -0.000463   0.002705  -0.001228
    19  C   -0.000198  -0.005427   0.008363   0.001728  -0.000157   0.000047
    20  C   -0.000166  -0.005531   0.008543   0.001656  -0.000167   0.000048
    21  C    0.000205  -0.001536  -0.002806  -0.000468   0.000035  -0.000013
    22  C    0.000208  -0.001581  -0.002864  -0.000476   0.000033  -0.000012
    23  H    0.000028  -0.000013   0.002338   0.000235   0.000005  -0.000010
    24  C   -0.000022   0.000302   0.000799   0.000083  -0.000008   0.000006
    25  H   -0.000003   0.000008  -0.000017  -0.000000   0.000000  -0.000000
    26  H   -0.000000  -0.000009   0.000011   0.000000  -0.000000   0.000000
    27  H    0.000019  -0.000093   0.001117  -0.001208   0.000546  -0.000039
    28  H    0.445104  -0.058476   0.013883  -0.004016   0.011989  -0.052991
    29  O   -0.000178   0.008973  -0.081841   0.314093  -0.038857   0.001777
    30  H   -0.000000   0.000001  -0.000022   0.000049  -0.000003   0.000000
    31  H   -0.064295   0.016782  -0.008190   0.021045  -0.068533   0.457346
    32  H   -0.000003   0.000010  -0.000017  -0.000001   0.000000  -0.000000
    33  H    0.000026  -0.000068   0.002280   0.000228   0.000004  -0.000008
               7          8          9         10         11         12
     1  C   -0.001009   0.000037  -0.000295  -0.000002   0.000033  -0.000021
     2  C    0.012841   0.004152   0.001711   0.000039  -0.000295   0.000226
     3  C   -0.029386  -0.061084   0.004152  -0.001015   0.000037  -0.000805
     4  C   -0.049507  -0.029386   0.012841  -0.000020  -0.001009  -0.000123
     5  C   -0.011359   0.011351  -0.001925   0.000003   0.000271  -0.000357
     6  C   -0.000123  -0.000805   0.000226   0.000000  -0.000021   0.000021
     7  C    5.258779   0.072588   0.153387   0.004036  -0.140434   0.055113
     8  C    0.072588   5.380420   0.230130  -0.036308   0.051795  -0.129570
     9  C    0.153387   0.230130   5.306849   0.428838   0.354090   0.029677
    10  H    0.004036  -0.036308   0.428838   0.475380  -0.035968   0.006458
    11  C   -0.140434   0.051795   0.354090  -0.035968   5.116753   0.409176
    12  C    0.055113  -0.129570   0.029677   0.006458   0.409176   5.050000
    13  C    0.274288   0.129046  -0.140754  -0.001054   0.039114   0.376765
    14  H   -0.000020  -0.001015   0.000039  -0.000001  -0.000002   0.000000
    15  H   -0.001208   0.001117  -0.000093  -0.000000   0.000019  -0.000039
    16  H   -0.004016   0.013883  -0.058476  -0.005601   0.445104  -0.052991
    17  N   -0.062254   0.419147  -0.090837  -0.006559   0.007422  -0.000242
    18  C   -0.000463  -0.079598  -0.037037   0.000983  -0.004597  -0.001228
    19  C    0.001728   0.008362  -0.005426   0.000203  -0.000198   0.000047
    20  C    0.001656   0.008544  -0.005531   0.000125  -0.000166   0.000048
    21  C   -0.000468  -0.002806  -0.001536  -0.000134   0.000205  -0.000013
    22  C   -0.000476  -0.002864  -0.001581  -0.000152   0.000208  -0.000012
    23  H    0.000235   0.002338  -0.000013   0.000054   0.000028  -0.000010
    24  C    0.000083   0.000799   0.000302   0.000519  -0.000022   0.000006
    25  H   -0.000000  -0.000017   0.000008  -0.000001  -0.000003  -0.000000
    26  H    0.000000   0.000011  -0.000009   0.000003  -0.000000   0.000000
    27  H   -0.101774   0.027933  -0.009055   0.000011   0.017006  -0.057279
    28  H   -0.000013   0.000044  -0.000001   0.000000   0.000000  -0.000000
    29  O    0.314093  -0.081841   0.008973  -0.000034  -0.000178   0.001777
    30  H    0.021045  -0.008190   0.016782  -0.000119  -0.064295   0.457346
    31  H    0.000049  -0.000022   0.000001   0.000000  -0.000000   0.000000
    32  H   -0.000001  -0.000017   0.000010  -0.000002  -0.000003  -0.000000
    33  H    0.000228   0.002280  -0.000068   0.000060   0.000026  -0.000008
              13         14         15         16         17         18
     1  C    0.000271  -0.035968   0.017006   0.000000   0.007422  -0.004597
     2  C   -0.001925   0.428838  -0.009055  -0.000001  -0.090836  -0.037037
     3  C    0.011351  -0.036307   0.027933   0.000044   0.419147  -0.079598
     4  C   -0.011359   0.004036  -0.101774  -0.000013  -0.062254  -0.000463
     5  C    0.003649  -0.001054   0.468348  -0.000000   0.005182   0.002705
     6  C   -0.000357   0.006458  -0.057279  -0.000000  -0.000242  -0.001228
     7  C    0.274288  -0.000020  -0.001208  -0.004016  -0.062254  -0.000463
     8  C    0.129046  -0.001015   0.001117   0.013883   0.419147  -0.079598
     9  C   -0.140754   0.000039  -0.000093  -0.058476  -0.090837  -0.037037
    10  H   -0.001054  -0.000001  -0.000000  -0.005601  -0.006559   0.000983
    11  C    0.039114  -0.000002   0.000019   0.445104   0.007422  -0.004597
    12  C    0.376765   0.000000  -0.000039  -0.052991  -0.000242  -0.001228
    13  C    5.217826   0.000003   0.000546   0.011989   0.005182   0.002705
    14  H    0.000003   0.475379   0.000011   0.000000  -0.006559   0.000983
    15  H    0.000546   0.000011   0.514429   0.000000   0.000082   0.000109
    16  H    0.011989   0.000000   0.000000   0.510675  -0.000088   0.000088
    17  N    0.005182  -0.006559   0.000082  -0.000088   6.414973   0.064605
    18  C    0.002705   0.000983   0.000109   0.000088   0.064605   5.451241
    19  C   -0.000157   0.000203  -0.000002  -0.000001  -0.037128   0.460747
    20  C   -0.000167   0.000125  -0.000002  -0.000001  -0.037472   0.460951
    21  C    0.000035  -0.000134   0.000000   0.000003   0.014895  -0.054547
    22  C    0.000033  -0.000152   0.000000   0.000003   0.015132  -0.052820
    23  H    0.000005   0.000054  -0.000000   0.000002  -0.001766  -0.054232
    24  C   -0.000008   0.000519  -0.000000  -0.000001   0.000662  -0.085829
    25  H    0.000000  -0.000001   0.000000   0.000000  -0.000347   0.013631
    26  H   -0.000000   0.000003  -0.000000   0.000000   0.000003  -0.002116
    27  H    0.468348  -0.000000   0.000249  -0.000118   0.000082   0.000109
    28  H   -0.000000  -0.005601  -0.000118  -0.000000  -0.000088   0.000088
    29  O   -0.038857  -0.000034   0.008372   0.000015  -0.008902  -0.005524
    30  H   -0.068533   0.000000  -0.000001  -0.006659   0.000002  -0.000015
    31  H   -0.000003  -0.000119  -0.008556   0.000000   0.000002  -0.000015
    32  H    0.000000  -0.000002   0.000000   0.000000  -0.000353   0.013755
    33  H    0.000004   0.000060  -0.000000   0.000002  -0.001445  -0.054680
              19         20         21         22         23         24
     1  C   -0.000198  -0.000166   0.000205   0.000208   0.000028  -0.000022
     2  C   -0.005427  -0.005531  -0.001536  -0.001581  -0.000013   0.000302
     3  C    0.008363   0.008543  -0.002806  -0.002864   0.002338   0.000799
     4  C    0.001728   0.001656  -0.000468  -0.000476   0.000235   0.000083
     5  C   -0.000157  -0.000167   0.000035   0.000033   0.000005  -0.000008
     6  C    0.000047   0.000048  -0.000013  -0.000012  -0.000010   0.000006
     7  C    0.001728   0.001656  -0.000468  -0.000476   0.000235   0.000083
     8  C    0.008362   0.008544  -0.002806  -0.002864   0.002338   0.000799
     9  C   -0.005426  -0.005531  -0.001536  -0.001581  -0.000013   0.000302
    10  H    0.000203   0.000125  -0.000134  -0.000152   0.000054   0.000519
    11  C   -0.000198  -0.000166   0.000205   0.000208   0.000028  -0.000022
    12  C    0.000047   0.000048  -0.000013  -0.000012  -0.000010   0.000006
    13  C   -0.000157  -0.000167   0.000035   0.000033   0.000005  -0.000008
    14  H    0.000203   0.000125  -0.000134  -0.000152   0.000054   0.000519
    15  H   -0.000002  -0.000002   0.000000   0.000000  -0.000000  -0.000000
    16  H   -0.000001  -0.000001   0.000003   0.000003   0.000002  -0.000001
    17  N   -0.037128  -0.037472   0.014895   0.015132  -0.001766   0.000662
    18  C    0.460747   0.460951  -0.054547  -0.052820  -0.054232  -0.085829
    19  C    5.023005   0.001361   0.398583  -0.050451   0.008907  -0.001648
    20  C    0.001361   5.026590  -0.049871   0.394423   0.446965  -0.000704
    21  C    0.398583  -0.049871   5.057487  -0.020638  -0.002929   0.425477
    22  C   -0.050451   0.394423  -0.020638   5.061820  -0.049566   0.424400
    23  H    0.008907   0.446965  -0.002929  -0.049566   0.496086   0.010272
    24  C   -0.001648  -0.000704   0.425477   0.424400   0.010272   5.014750
    25  H   -0.003076  -0.050169   0.010097   0.438189  -0.006857  -0.052428
    26  H    0.008938   0.008989  -0.047812  -0.047831  -0.000138   0.435103
    27  H   -0.000002  -0.000002   0.000000   0.000000  -0.000000  -0.000000
    28  H   -0.000001  -0.000001   0.000003   0.000003   0.000002  -0.000001
    29  O    0.000252   0.000247  -0.000008  -0.000008  -0.000007   0.000003
    30  H    0.000001   0.000001  -0.000000  -0.000000  -0.000000   0.000000
    31  H    0.000001   0.000001  -0.000000  -0.000000  -0.000000   0.000000
    32  H   -0.050232  -0.003139   0.438288   0.010169   0.000040  -0.052616
    33  H    0.447002   0.008899  -0.049214  -0.002979  -0.000165   0.010313
              25         26         27         28         29         30
     1  C   -0.000003  -0.000000   0.000019   0.445104  -0.000178  -0.000000
     2  C    0.000008  -0.000009  -0.000093  -0.058476   0.008973   0.000001
     3  C   -0.000017   0.000011   0.001117   0.013883  -0.081841  -0.000022
     4  C   -0.000000   0.000000  -0.001208  -0.004016   0.314093   0.000049
     5  C    0.000000  -0.000000   0.000546   0.011989  -0.038857  -0.000003
     6  C   -0.000000   0.000000  -0.000039  -0.052991   0.001777   0.000000
     7  C   -0.000000   0.000000  -0.101774  -0.000013   0.314093   0.021045
     8  C   -0.000017   0.000011   0.027933   0.000044  -0.081841  -0.008190
     9  C    0.000008  -0.000009  -0.009055  -0.000001   0.008973   0.016782
    10  H   -0.000001   0.000003   0.000011   0.000000  -0.000034  -0.000119
    11  C   -0.000003  -0.000000   0.017006   0.000000  -0.000178  -0.064295
    12  C   -0.000000   0.000000  -0.057279  -0.000000   0.001777   0.457346
    13  C    0.000000  -0.000000   0.468348  -0.000000  -0.038857  -0.068533
    14  H   -0.000001   0.000003  -0.000000  -0.005601  -0.000034   0.000000
    15  H    0.000000  -0.000000   0.000249  -0.000118   0.008372  -0.000001
    16  H    0.000000   0.000000  -0.000118  -0.000000   0.000015  -0.006659
    17  N   -0.000347   0.000003   0.000082  -0.000088  -0.008902   0.000002
    18  C    0.013631  -0.002116   0.000109   0.000088  -0.005524  -0.000015
    19  C   -0.003076   0.008938  -0.000002  -0.000001   0.000252   0.000001
    20  C   -0.050169   0.008989  -0.000002  -0.000001   0.000247   0.000001
    21  C    0.010097  -0.047812   0.000000   0.000003  -0.000008  -0.000000
    22  C    0.438189  -0.047831   0.000000   0.000003  -0.000008  -0.000000
    23  H   -0.006857  -0.000138  -0.000000   0.000002  -0.000007  -0.000000
    24  C   -0.052428   0.435103  -0.000000  -0.000001   0.000003   0.000000
    25  H    0.505977  -0.006084   0.000000   0.000000  -0.000000  -0.000000
    26  H   -0.006084   0.504665  -0.000000   0.000000   0.000000   0.000000
    27  H    0.000000  -0.000000   0.514429   0.000000   0.008372  -0.008556
    28  H    0.000000   0.000000   0.000000   0.510675   0.000015   0.000000
    29  O   -0.000000   0.000000   0.008372   0.000015   7.861077  -0.000132
    30  H   -0.000000   0.000000  -0.008556   0.000000  -0.000132   0.514545
    31  H   -0.000000   0.000000  -0.000001  -0.006659  -0.000132   0.000000
    32  H   -0.000196  -0.006092   0.000000   0.000000  -0.000000  -0.000000
    33  H    0.000041  -0.000138  -0.000000   0.000002  -0.000004  -0.000000
              31         32         33
     1  C   -0.064295  -0.000003   0.000026
     2  C    0.016782   0.000010  -0.000068
     3  C   -0.008190  -0.000017   0.002280
     4  C    0.021045  -0.000001   0.000228
     5  C   -0.068533   0.000000   0.000004
     6  C    0.457346  -0.000000  -0.000008
     7  C    0.000049  -0.000001   0.000228
     8  C   -0.000022  -0.000017   0.002280
     9  C    0.000001   0.000010  -0.000068
    10  H    0.000000  -0.000002   0.000060
    11  C   -0.000000  -0.000003   0.000026
    12  C    0.000000  -0.000000  -0.000008
    13  C   -0.000003   0.000000   0.000004
    14  H   -0.000119  -0.000002   0.000060
    15  H   -0.008556   0.000000  -0.000000
    16  H    0.000000   0.000000   0.000002
    17  N    0.000002  -0.000353  -0.001445
    18  C   -0.000015   0.013755  -0.054680
    19  C    0.000001  -0.050232   0.447002
    20  C    0.000001  -0.003139   0.008899
    21  C   -0.000000   0.438288  -0.049214
    22  C   -0.000000   0.010169  -0.002979
    23  H   -0.000000   0.000040  -0.000165
    24  C    0.000000  -0.052616   0.010313
    25  H   -0.000000  -0.000196   0.000041
    26  H    0.000000  -0.006092  -0.000138
    27  H   -0.000001   0.000000  -0.000000
    28  H   -0.006659   0.000000   0.000002
    29  O   -0.000132  -0.000000  -0.000004
    30  H    0.000000  -0.000000  -0.000000
    31  H    0.514545  -0.000000  -0.000000
    32  H   -0.000000   0.506073  -0.006884
    33  H   -0.000000  -0.006884   0.496141
 Mulliken charges:
               1
     1  C   -0.194094
     2  C   -0.195379
     3  C    0.069545
     4  C    0.232359
     5  C   -0.277986
     6  C   -0.143961
     7  C    0.232359
     8  C    0.069545
     9  C   -0.195379
    10  H    0.170259
    11  C   -0.194094
    12  C   -0.143961
    13  C   -0.277986
    14  H    0.170259
    15  H    0.139906
    16  H    0.146157
    17  N    0.033434
    18  C    0.082926
    19  C   -0.215374
    20  C   -0.216084
    21  C   -0.110383
    22  C   -0.110160
    23  H    0.148114
    24  C   -0.131110
    25  H    0.151249
    26  H    0.152500
    27  H    0.139906
    28  H    0.146157
    29  O   -0.271505
    30  H    0.146752
    31  H    0.146752
    32  H    0.151210
    33  H    0.148067
 Sum of Mulliken charges =  -0.00000
 Mulliken charges with hydrogens summed into heavy atoms:
               1
     1  C   -0.047937
     2  C   -0.025120
     3  C    0.069545
     4  C    0.232359
     5  C   -0.138080
     6  C    0.002791
     7  C    0.232359
     8  C    0.069545
     9  C   -0.025120
    11  C   -0.047937
    12  C    0.002792
    13  C   -0.138081
    17  N    0.033434
    18  C    0.082926
    19  C   -0.067306
    20  C   -0.067971
    21  C    0.040827
    22  C    0.041089
    24  C    0.021391
    29  O   -0.271505
 Electronic spatial extent (au):  <R**2>=           5096.6980
 Charge=              0.0000 electrons
 Dipole moment (field-independent basis, Debye):
    X=             -3.3493    Y=             -0.0000    Z=             -0.0115  Tot=              3.3493
 Quadrupole moment (field-independent basis, Debye-Ang):
   XX=           -101.0102   YY=           -110.7055   ZZ=           -115.2557
   XY=              0.0000   XZ=             -0.0019   YZ=              0.0001
 Traceless Quadrupole moment (field-independent basis, Debye-Ang):
   XX=              7.9803   YY=             -1.7150   ZZ=             -6.2652
   XY=              0.0000   XZ=             -0.0019   YZ=              0.0001
 Octapole moment (field-independent basis, Debye-Ang**2):
  XXX=            -35.9433  YYY=              0.0003  ZZZ=              0.1561  XYY=             23.4309
  XXY=             -0.0003  XXZ=             -0.0114  XZZ=            -24.0482  YZZ=             -0.0001
  YYZ=             -0.2306  XYZ=             -0.0002
 Hexadecapole moment (field-independent basis, Debye-Ang**3):
 XXXX=          -3211.8689 YYYY=          -2804.4726 ZZZZ=           -356.2712 XXXY=              0.0006
 XXXZ=              0.0032 YYYX=             -0.0006 YYYZ=             -0.0006 ZZZX=              0.1234
 ZZZY=              0.0007 XXYY=          -1079.3767 XXZZ=           -639.0279 YYZZ=           -662.8306
 XXYZ=              0.0010 YYXZ=              0.0353 ZZXY=              0.0006
 N-N= 1.432757540994D+03 E-N=-4.781059725555D+03  KE= 8.199259587578D+02
 Leave Link  601 at Tue Nov 23 16:40:31 2021, MaxMem=  5242880000 cpu:         2.8
 (Enter /opt/nce/packages/global/g09/l9999.exe)
 1\1\GINC-CN015\SP\RB3LYP TD-FC\Gen\C18H13N1O1\PNG4RJV\23-Nov-2021\0\\#
 p b3lyp chkbasis geom=allcheck Guess=Read int=ultrafine scrf=(SMD,solv
 ent=n,n-DiMethylAcetamide) td=(NStates=30) EmpiricalDispersion=GD3BJ\\
 Title\\0,1\C,0,0.6509957334,-3.6292134576,-0.0428893577\C,0,-0.0886655
 864,-2.4481814257,-0.0424899609\C,0,0.54734567,-1.207629789,-0.0499156
 322\C,0,1.9497041791,-1.1847134951,-0.0576836256\C,0,2.6842167683,-2.3
 541950114,-0.0576542971\C,0,2.036360354,-3.589310005,-0.0504775637\C,0
 ,1.9495809265,1.1849240221,-0.0575646765\C,0,0.5472201116,1.2076933964
 ,-0.0497956536\C,0,-0.0889200334,2.4481781923,-0.0422489824\H,0,-1.168
 4488285,2.4891070537,-0.0363823687\C,0,0.6506181261,3.6292873053,-0.04
 25312691\C,0,2.0359868735,3.5895288982,-0.0501204204\C,0,2.6839718256,
 2.3544819761,-0.0574174552\H,0,-1.1681901518,-2.489223296,-0.036624890
 5\H,0,3.7646231076,-2.2867915148,-0.0637864081\H,0,0.1292961288,4.5777
 34118,-0.0367964108\N,0,-0.1557946642,-0.0000047861,-0.0503781989\C,0,
 -1.585331589,-0.000080141,-0.0438077111\C,0,-2.2799290122,-0.000066556
 4,-1.2476944736\C,0,-2.2695936339,-0.0001676023,1.1660366308\C,0,-3.66
 99788468,-0.0001439951,-1.2401587786\C,0,-3.6596337219,-0.0002444421,1
 .170393081\H,0,-1.7101500131,-0.0001759519,2.0926369893\C,0,-4.3599107
 547,-0.0002327107,-0.0319143036\H,0,-4.1950075507,-0.0003132114,2.1112
 275278\H,0,-5.4425298296,-0.0002929044,-0.0272679544\H,0,3.7643852189,
 2.2871914496,-0.0635537319\H,0,0.1297728892,-4.5777153016,-0.037246786
 6\O,0,2.6531831876,0.000142386,-0.067104293\H,0,2.6170100362,4.5020645
 644,-0.0503560221\H,0,2.6174781512,-4.5017854084,-0.0508040697\H,0,-4.
 2133718118,-0.000134567,-2.1763860902\H,0,-1.7283522597,0.0000022108,-
 2.1789968425\\Version=ES64L-G09RevE.01\State=1-A\HF=-824.1115969\RMSD=
 3.741e-09\PG=C01 [X(C18H13N1O1)]\\@


 MORNING PEOPLE ARE USUALLY ADMIRED AS EARLY BIRDS.
 RECALL BEN FRANKLIN'S APHORISM THAT THE EARLY BIRD GETS THE WORM.
 I IDENTIFY WITH THE WORM. --  CRAIG JAGGER, MINNEAPOLIS, KS.
 Job cpu time:       0 days 14 hours 34 minutes 31.1 seconds.
 File lengths (MBytes):  RWF=   2436 Int=      0 D2E=      0 Chk=    439 Scr=      1
 Normal termination of Gaussian 09 at Tue Nov 23 16:40:32 2021.
