 Entering Gaussian System, Link 0=g09
 Input=/home/png4rjv/fotokatalizis/benchmark/OPCs/Me2-Acr_1_M06_def2TZVP.gjf
 Output=/home/png4rjv/fotokatalizis/benchmark/OPCs/Me2-Acr_1_M06_def2TZVP.log
 Initial command:
 /opt/nce/packages/global/g09/l1.exe "/home/png4rjv/fotokatalizis/benchmark/OPCs/Me2-Acr_1_M06_def2TZVP/Gau-28932.inp" -scrdir="/home/png4rjv/fotokatalizis/benchmark/OPCs/Me2-Acr_1_M06_def2TZVP/"
 Default is to use a total of  12 processors:
                               12 via shared-memory
                                1 via Linda
 Entering Link 1 = /opt/nce/packages/global/g09/l1.exe PID=     28941.
  
 Copyright (c) 1988,1990,1992,1993,1995,1998,2003,2009,2015,
            Gaussian, Inc.  All Rights Reserved.
  
 This is part of the Gaussian(R) 09 program.  It is based on
 the Gaussian(R) 03 system (copyright 2003, Gaussian, Inc.),
 the Gaussian(R) 98 system (copyright 1998, Gaussian, Inc.),
 the Gaussian(R) 94 system (copyright 1995, Gaussian, Inc.),
 the Gaussian 92(TM) system (copyright 1992, Gaussian, Inc.),
 the Gaussian 90(TM) system (copyright 1990, Gaussian, Inc.),
 the Gaussian 88(TM) system (copyright 1988, Gaussian, Inc.),
 the Gaussian 86(TM) system (copyright 1986, Carnegie Mellon
 University), and the Gaussian 82(TM) system (copyright 1983,
 Carnegie Mellon University). Gaussian is a federally registered
 trademark of Gaussian, Inc.
  
 This software contains proprietary and confidential information,
 including trade secrets, belonging to Gaussian, Inc.
  
 This software is provided under written license and may be
 used, copied, transmitted, or stored only in accord with that
 written license.
  
 The following legend is applicable only to US Government
 contracts under FAR:
  
                    RESTRICTED RIGHTS LEGEND
  
 Use, reproduction and disclosure by the US Government is
 subject to restrictions as set forth in subparagraphs (a)
 and (c) of the Commercial Computer Software - Restricted
 Rights clause in FAR 52.227-19.
  
 Gaussian, Inc.
 340 Quinnipiac St., Bldg. 40, Wallingford CT 06492
  
  
 ---------------------------------------------------------------
 Warning -- This program may not be used in any manner that
 competes with the business of Gaussian, Inc. or will provide
 assistance to any competitor of Gaussian, Inc.  The licensee
 of this program is prohibited from giving any competitor of
 Gaussian, Inc. access to this program.  By using this program,
 the user acknowledges that Gaussian, Inc. is engaged in the
 business of creating and licensing software in the field of
 computational chemistry and represents and warrants to the
 licensee that it is not a competitor of Gaussian, Inc. and that
 it will not use this program in any manner prohibited above.
 ---------------------------------------------------------------
  

 Cite this work as:
 Gaussian 09, Revision E.01,
 M. J. Frisch, G. W. Trucks, H. B. Schlegel, G. E. Scuseria, 
 M. A. Robb, J. R. Cheeseman, G. Scalmani, V. Barone, B. Mennucci, 
 G. A. Petersson, H. Nakatsuji, M. Caricato, X. Li, H. P. Hratchian, 
 A. F. Izmaylov, J. Bloino, G. Zheng, J. L. Sonnenberg, M. Hada, 
 M. Ehara, K. Toyota, R. Fukuda, J. Hasegawa, M. Ishida, T. Nakajima, 
 Y. Honda, O. Kitao, H. Nakai, T. Vreven, J. A. Montgomery, Jr., 
 J. E. Peralta, F. Ogliaro, M. Bearpark, J. J. Heyd, E. Brothers, 
 K. N. Kudin, V. N. Staroverov, T. Keith, R. Kobayashi, J. Normand, 
 K. Raghavachari, A. Rendell, J. C. Burant, S. S. Iyengar, J. Tomasi, 
 M. Cossi, N. Rega, J. M. Millam, M. Klene, J. E. Knox, J. B. Cross, 
 V. Bakken, C. Adamo, J. Jaramillo, R. Gomperts, R. E. Stratmann, 
 O. Yazyev, A. J. Austin, R. Cammi, C. Pomelli, J. W. Ochterski, 
 R. L. Martin, K. Morokuma, V. G. Zakrzewski, G. A. Voth, 
 P. Salvador, J. J. Dannenberg, S. Dapprich, A. D. Daniels, 
 O. Farkas, J. B. Foresman, J. V. Ortiz, J. Cioslowski, 
 and D. J. Fox, Gaussian, Inc., Wallingford CT, 2013.
 
 ******************************************
 Gaussian 09:  ES64L-G09RevE.01 30-Nov-2015
                19-Feb-2021 
 ******************************************
 %chk=cp.chk
 Default route:  MaxDisk=500GB
 ----------------------------------------------------------------------
 #p m06/def2TZVP opt freq=noraman nosymm int=ultrafine scrf=(SMD,solven
 t=n,n-DiMethylFormamide)
 ----------------------------------------------------------------------
 1/14=-1,18=20,19=15,26=4,38=1/1,3;
 2/9=110,12=2,15=1,17=6,18=5,40=1/2;
 3/5=44,7=101,11=2,16=1,25=1,30=1,70=32201,71=1,72=148,74=-54,75=-5/1,2,3;
 4//1;
 5/5=2,38=5,53=148/2;
 6/7=2,8=2,9=2,10=2,28=1/1;
 7/30=1/1,2,3,16;
 1/14=-1,18=20,19=15,26=4/3(2);
 2/9=110,15=1/2;
 99//99;
 2/9=110,15=1/2;
 3/5=44,7=101,11=2,16=1,25=1,30=1,70=32205,71=1,72=148,74=-54,75=-5/1,2,3;
 4/5=5,16=3,69=1/1;
 5/5=2,38=5,53=148/2;
 7/30=1/1,2,3,16;
 1/14=-1,18=20,19=15,26=4/3(-5);
 2/9=110,15=1/2;
 6/7=2,8=2,9=2,10=2,19=2,28=1/1;
 99/9=1/99;
 Leave Link    1 at Fri Feb 19 12:02:44 2021, MaxMem=           0 cpu:         2.3
 (Enter /opt/nce/packages/global/g09/l101.exe)
 -----
 Title
 -----
 Symbolic Z-matrix:
 Charge =  0 Multiplicity = 1
 C                    -0.66421  -3.6601   -0.23066 
 C                    -0.04305  -2.43104  -0.42502 
 C                    -0.76236  -1.22513  -0.28797 
 C                    -2.12966  -1.26544   0.0589 
 C                    -2.72507  -2.52137   0.24291 
 C                    -2.01834  -3.71485   0.10451 
 C                    -2.97856   0.0002    0.21033 
 C                    -2.12942   1.26566   0.05873 
 C                    -0.76214   1.22505  -0.28815 
 C                    -0.04258   2.43078  -0.42534 
 H                     1.01365   2.3974   -0.68692 
 C                    -0.66349   3.65999  -0.23112 
 C                    -2.01762   3.71505   0.10403 
 C                    -2.72459   2.52173   0.24258 
 H                     1.01318  -2.39792  -0.68662 
 H                    -3.78465  -2.56717   0.50164 
 H                    -2.51966  -4.67286   0.25645 
 H                    -0.08132   4.57775  -0.34359 
 H                    -2.51874   4.67318   0.25585 
 N                    -0.11102  -0.00011  -0.49314 
 C                     1.27776  -0.00023  -0.83326 
 C                     2.25341  -0.00007   0.20985 
 C                     1.66295  -0.00041  -2.15758 
 C                     1.89372   0.00015   1.58449 
 C                     3.64185  -0.00017  -0.14953 
 C                     3.03453  -0.0005   -2.50791 
 H                     0.89169  -0.0005   -2.92984 
 C                     2.86539   0.00028   2.56221 
 H                     0.8364    0.00022   1.8515 
 C                     4.61691  -0.00003   0.88615 
 C                     4.00119  -0.00039  -1.5255 
 H                     3.32029  -0.00066  -3.56207 
 C                     4.23897   0.00018   2.21145 
 H                     2.57734   0.00045   3.61598 
 H                     5.6746   -0.00011   0.61056 
 H                     5.06127  -0.00046  -1.79132 
 H                     4.9977    0.00028   2.99752 
 H                    -3.78416   2.56776   0.50131 
 H                    -0.08223  -4.578    -0.34303 
 C                    -4.07238   0.00024  -0.88618 
 H                    -3.61419   0.0001   -1.88636 
 H                    -4.71387  -0.89024  -0.80368 
 H                    -4.71366   0.89088  -0.80384 
 C                    -3.6453    0.00036   1.60703 
 H                    -4.28137  -0.88593   1.745 
 H                    -2.88149   0.00031   2.39887 
 H                    -4.28114   0.88683   1.74491 
 
 NAtoms=     47 NQM=       47 NQMF=       0 NMMI=      0 NMMIF=      0
                NMic=       0 NMicF=      0.
                    Isotopes and Nuclear Properties:
 (Nuclear quadrupole moments (NQMom) in fm**2, nuclear magnetic moments (NMagM)
  in nuclear magnetons)

  Atom         1           2           3           4           5           6           7           8           9          10
 IAtWgt=          12          12          12          12          12          12          12          12          12          12
 AtmWgt=  12.0000000  12.0000000  12.0000000  12.0000000  12.0000000  12.0000000  12.0000000  12.0000000  12.0000000  12.0000000
 NucSpn=           0           0           0           0           0           0           0           0           0           0
 AtZEff=   0.0000000   0.0000000   0.0000000   0.0000000   0.0000000   0.0000000   0.0000000   0.0000000   0.0000000   0.0000000
 NQMom=    0.0000000   0.0000000   0.0000000   0.0000000   0.0000000   0.0000000   0.0000000   0.0000000   0.0000000   0.0000000
 NMagM=    0.0000000   0.0000000   0.0000000   0.0000000   0.0000000   0.0000000   0.0000000   0.0000000   0.0000000   0.0000000
 AtZNuc=   6.0000000   6.0000000   6.0000000   6.0000000   6.0000000   6.0000000   6.0000000   6.0000000   6.0000000   6.0000000

  Atom        11          12          13          14          15          16          17          18          19          20
 IAtWgt=           1          12          12          12           1           1           1           1           1          14
 AtmWgt=   1.0078250  12.0000000  12.0000000  12.0000000   1.0078250   1.0078250   1.0078250   1.0078250   1.0078250  14.0030740
 NucSpn=           1           0           0           0           1           1           1           1           1           2
 AtZEff=   0.0000000   0.0000000   0.0000000   0.0000000   0.0000000   0.0000000   0.0000000   0.0000000   0.0000000   0.0000000
 NQMom=    0.0000000   0.0000000   0.0000000   0.0000000   0.0000000   0.0000000   0.0000000   0.0000000   0.0000000   2.0440000
 NMagM=    2.7928460   0.0000000   0.0000000   0.0000000   2.7928460   2.7928460   2.7928460   2.7928460   2.7928460   0.4037610
 AtZNuc=   1.0000000   6.0000000   6.0000000   6.0000000   1.0000000   1.0000000   1.0000000   1.0000000   1.0000000   7.0000000

  Atom        21          22          23          24          25          26          27          28          29          30
 IAtWgt=          12          12          12          12          12          12           1          12           1          12
 AtmWgt=  12.0000000  12.0000000  12.0000000  12.0000000  12.0000000  12.0000000   1.0078250  12.0000000   1.0078250  12.0000000
 NucSpn=           0           0           0           0           0           0           1           0           1           0
 AtZEff=   0.0000000   0.0000000   0.0000000   0.0000000   0.0000000   0.0000000   0.0000000   0.0000000   0.0000000   0.0000000
 NQMom=    0.0000000   0.0000000   0.0000000   0.0000000   0.0000000   0.0000000   0.0000000   0.0000000   0.0000000   0.0000000
 NMagM=    0.0000000   0.0000000   0.0000000   0.0000000   0.0000000   0.0000000   2.7928460   0.0000000   2.7928460   0.0000000
 AtZNuc=   6.0000000   6.0000000   6.0000000   6.0000000   6.0000000   6.0000000   1.0000000   6.0000000   1.0000000   6.0000000

  Atom        31          32          33          34          35          36          37          38          39          40
 IAtWgt=          12           1          12           1           1           1           1           1           1          12
 AtmWgt=  12.0000000   1.0078250  12.0000000   1.0078250   1.0078250   1.0078250   1.0078250   1.0078250   1.0078250  12.0000000
 NucSpn=           0           1           0           1           1           1           1           1           1           0
 AtZEff=   0.0000000   0.0000000   0.0000000   0.0000000   0.0000000   0.0000000   0.0000000   0.0000000   0.0000000   0.0000000
 NQMom=    0.0000000   0.0000000   0.0000000   0.0000000   0.0000000   0.0000000   0.0000000   0.0000000   0.0000000   0.0000000
 NMagM=    0.0000000   2.7928460   0.0000000   2.7928460   2.7928460   2.7928460   2.7928460   2.7928460   2.7928460   0.0000000
 AtZNuc=   6.0000000   1.0000000   6.0000000   1.0000000   1.0000000   1.0000000   1.0000000   1.0000000   1.0000000   6.0000000

  Atom        41          42          43          44          45          46          47
 IAtWgt=           1           1           1          12           1           1           1
 AtmWgt=   1.0078250   1.0078250   1.0078250  12.0000000   1.0078250   1.0078250   1.0078250
 NucSpn=           1           1           1           0           1           1           1
 AtZEff=   0.0000000   0.0000000   0.0000000   0.0000000   0.0000000   0.0000000   0.0000000
 NQMom=    0.0000000   0.0000000   0.0000000   0.0000000   0.0000000   0.0000000   0.0000000
 NMagM=    2.7928460   2.7928460   2.7928460   0.0000000   2.7928460   2.7928460   2.7928460
 AtZNuc=   1.0000000   1.0000000   1.0000000   6.0000000   1.0000000   1.0000000   1.0000000
 Leave Link  101 at Fri Feb 19 12:02:45 2021, MaxMem=  5242880000 cpu:         5.9
 (Enter /opt/nce/packages/global/g09/l103.exe)

 GradGradGradGradGradGradGradGradGradGradGradGradGradGradGradGradGradGrad
 Berny optimization.
 Initialization pass.
                           ----------------------------
                           !    Initial Parameters    !
                           ! (Angstroms and Degrees)  !
 --------------------------                            --------------------------
 ! Name  Definition              Value          Derivative Info.                !
 --------------------------------------------------------------------------------
 ! R1    R(1,2)                  1.3908         estimate D2E/DX2                !
 ! R2    R(1,6)                  1.3961         estimate D2E/DX2                !
 ! R3    R(1,39)                 1.0926         estimate D2E/DX2                !
 ! R4    R(2,3)                  1.4108         estimate D2E/DX2                !
 ! R5    R(2,15)                 1.0886         estimate D2E/DX2                !
 ! R6    R(3,4)                  1.4112         estimate D2E/DX2                !
 ! R7    R(3,20)                 1.4025         estimate D2E/DX2                !
 ! R8    R(4,5)                  1.402          estimate D2E/DX2                !
 ! R9    R(4,7)                  1.5315         estimate D2E/DX2                !
 ! R10   R(5,6)                  1.3939         estimate D2E/DX2                !
 ! R11   R(5,16)                 1.0917         estimate D2E/DX2                !
 ! R12   R(6,17)                 1.0919         estimate D2E/DX2                !
 ! R13   R(7,8)                  1.5315         estimate D2E/DX2                !
 ! R14   R(7,40)                 1.5488         estimate D2E/DX2                !
 ! R15   R(7,44)                 1.5477         estimate D2E/DX2                !
 ! R16   R(8,9)                  1.4112         estimate D2E/DX2                !
 ! R17   R(8,14)                 1.402          estimate D2E/DX2                !
 ! R18   R(9,10)                 1.4108         estimate D2E/DX2                !
 ! R19   R(9,20)                 1.4025         estimate D2E/DX2                !
 ! R20   R(10,11)                1.0887         estimate D2E/DX2                !
 ! R21   R(10,12)                1.3908         estimate D2E/DX2                !
 ! R22   R(12,13)                1.3961         estimate D2E/DX2                !
 ! R23   R(12,18)                1.0926         estimate D2E/DX2                !
 ! R24   R(13,14)                1.3939         estimate D2E/DX2                !
 ! R25   R(13,19)                1.0919         estimate D2E/DX2                !
 ! R26   R(14,38)                1.0917         estimate D2E/DX2                !
 ! R27   R(20,21)                1.4298         estimate D2E/DX2                !
 ! R28   R(21,22)                1.4283         estimate D2E/DX2                !
 ! R29   R(21,23)                1.3792         estimate D2E/DX2                !
 ! R30   R(22,24)                1.4209         estimate D2E/DX2                !
 ! R31   R(22,25)                1.4342         estimate D2E/DX2                !
 ! R32   R(23,26)                1.4156         estimate D2E/DX2                !
 ! R33   R(23,27)                1.0914         estimate D2E/DX2                !
 ! R34   R(24,28)                1.3784         estimate D2E/DX2                !
 ! R35   R(24,29)                1.0905         estimate D2E/DX2                !
 ! R36   R(25,30)                1.4224         estimate D2E/DX2                !
 ! R37   R(25,31)                1.4221         estimate D2E/DX2                !
 ! R38   R(26,31)                1.3782         estimate D2E/DX2                !
 ! R39   R(26,32)                1.0922         estimate D2E/DX2                !
 ! R40   R(28,33)                1.4177         estimate D2E/DX2                !
 ! R41   R(28,34)                1.0924         estimate D2E/DX2                !
 ! R42   R(30,33)                1.3781         estimate D2E/DX2                !
 ! R43   R(30,35)                1.093          estimate D2E/DX2                !
 ! R44   R(31,36)                1.0929         estimate D2E/DX2                !
 ! R45   R(33,37)                1.0925         estimate D2E/DX2                !
 ! R46   R(40,41)                1.1001         estimate D2E/DX2                !
 ! R47   R(40,42)                1.1006         estimate D2E/DX2                !
 ! R48   R(40,43)                1.1006         estimate D2E/DX2                !
 ! R49   R(44,45)                1.0996         estimate D2E/DX2                !
 ! R50   R(44,46)                1.1002         estimate D2E/DX2                !
 ! R51   R(44,47)                1.0996         estimate D2E/DX2                !
 ! A1    A(2,1,6)              120.0942         estimate D2E/DX2                !
 ! A2    A(2,1,39)             119.3498         estimate D2E/DX2                !
 ! A3    A(6,1,39)             120.5561         estimate D2E/DX2                !
 ! A4    A(1,2,3)              120.9367         estimate D2E/DX2                !
 ! A5    A(1,2,15)             119.5908         estimate D2E/DX2                !
 ! A6    A(3,2,15)             119.4725         estimate D2E/DX2                !
 ! A7    A(2,3,4)              119.5684         estimate D2E/DX2                !
 ! A8    A(2,3,20)             119.7093         estimate D2E/DX2                !
 ! A9    A(4,3,20)             120.722          estimate D2E/DX2                !
 ! A10   A(3,4,5)              117.9893         estimate D2E/DX2                !
 ! A11   A(3,4,7)              122.5319         estimate D2E/DX2                !
 ! A12   A(5,4,7)              119.4667         estimate D2E/DX2                !
 ! A13   A(4,5,6)              122.5903         estimate D2E/DX2                !
 ! A14   A(4,5,16)             118.7426         estimate D2E/DX2                !
 ! A15   A(6,5,16)             118.6668         estimate D2E/DX2                !
 ! A16   A(1,6,5)              118.8187         estimate D2E/DX2                !
 ! A17   A(1,6,17)             120.8748         estimate D2E/DX2                !
 ! A18   A(5,6,17)             120.3065         estimate D2E/DX2                !
 ! A19   A(4,7,8)              111.4531         estimate D2E/DX2                !
 ! A20   A(4,7,40)             108.753          estimate D2E/DX2                !
 ! A21   A(4,7,44)             109.1541         estimate D2E/DX2                !
 ! A22   A(8,7,40)             108.7526         estimate D2E/DX2                !
 ! A23   A(8,7,44)             109.1539         estimate D2E/DX2                !
 ! A24   A(40,7,44)            109.5522         estimate D2E/DX2                !
 ! A25   A(7,8,9)              122.5318         estimate D2E/DX2                !
 ! A26   A(7,8,14)             119.4667         estimate D2E/DX2                !
 ! A27   A(9,8,14)             117.9894         estimate D2E/DX2                !
 ! A28   A(8,9,10)             119.5691         estimate D2E/DX2                !
 ! A29   A(8,9,20)             120.7226         estimate D2E/DX2                !
 ! A30   A(10,9,20)            119.708          estimate D2E/DX2                !
 ! A31   A(9,10,11)            119.4725         estimate D2E/DX2                !
 ! A32   A(9,10,12)            120.9362         estimate D2E/DX2                !
 ! A33   A(11,10,12)           119.5913         estimate D2E/DX2                !
 ! A34   A(10,12,13)           120.0943         estimate D2E/DX2                !
 ! A35   A(10,12,18)           119.3495         estimate D2E/DX2                !
 ! A36   A(13,12,18)           120.5562         estimate D2E/DX2                !
 ! A37   A(12,13,14)           118.8187         estimate D2E/DX2                !
 ! A38   A(12,13,19)           120.8747         estimate D2E/DX2                !
 ! A39   A(14,13,19)           120.3066         estimate D2E/DX2                !
 ! A40   A(8,14,13)            122.5899         estimate D2E/DX2                !
 ! A41   A(8,14,38)            118.7426         estimate D2E/DX2                !
 ! A42   A(13,14,38)           118.6672         estimate D2E/DX2                !
 ! A43   A(3,20,9)             121.737          estimate D2E/DX2                !
 ! A44   A(3,20,21)            119.0658         estimate D2E/DX2                !
 ! A45   A(9,20,21)            119.0627         estimate D2E/DX2                !
 ! A46   A(20,21,22)           119.3252         estimate D2E/DX2                !
 ! A47   A(20,21,23)           119.9785         estimate D2E/DX2                !
 ! A48   A(22,21,23)           120.6963         estimate D2E/DX2                !
 ! A49   A(21,22,24)           122.2505         estimate D2E/DX2                !
 ! A50   A(21,22,25)           118.5746         estimate D2E/DX2                !
 ! A51   A(24,22,25)           119.1749         estimate D2E/DX2                !
 ! A52   A(21,23,26)           120.5457         estimate D2E/DX2                !
 ! A53   A(21,23,27)           118.8199         estimate D2E/DX2                !
 ! A54   A(26,23,27)           120.6343         estimate D2E/DX2                !
 ! A55   A(22,24,28)           120.5147         estimate D2E/DX2                !
 ! A56   A(22,24,29)           118.8361         estimate D2E/DX2                !
 ! A57   A(28,24,29)           120.6492         estimate D2E/DX2                !
 ! A58   A(22,25,30)           118.7615         estimate D2E/DX2                !
 ! A59   A(22,25,31)           119.1478         estimate D2E/DX2                !
 ! A60   A(30,25,31)           122.0907         estimate D2E/DX2                !
 ! A61   A(23,26,31)           120.2086         estimate D2E/DX2                !
 ! A62   A(23,26,32)           119.4952         estimate D2E/DX2                !
 ! A63   A(31,26,32)           120.2962         estimate D2E/DX2                !
 ! A64   A(24,28,33)           120.4971         estimate D2E/DX2                !
 ! A65   A(24,28,34)           119.8894         estimate D2E/DX2                !
 ! A66   A(33,28,34)           119.6135         estimate D2E/DX2                !
 ! A67   A(25,30,33)           120.8103         estimate D2E/DX2                !
 ! A68   A(25,30,35)           118.6693         estimate D2E/DX2                !
 ! A69   A(33,30,35)           120.5204         estimate D2E/DX2                !
 ! A70   A(25,31,26)           120.827          estimate D2E/DX2                !
 ! A71   A(25,31,36)           118.7132         estimate D2E/DX2                !
 ! A72   A(26,31,36)           120.4599         estimate D2E/DX2                !
 ! A73   A(28,33,30)           120.2415         estimate D2E/DX2                !
 ! A74   A(28,33,37)           119.6611         estimate D2E/DX2                !
 ! A75   A(30,33,37)           120.0974         estimate D2E/DX2                !
 ! A76   A(7,40,41)            110.4569         estimate D2E/DX2                !
 ! A77   A(7,40,42)            111.0112         estimate D2E/DX2                !
 ! A78   A(7,40,43)            111.0115         estimate D2E/DX2                !
 ! A79   A(41,40,42)           108.1078         estimate D2E/DX2                !
 ! A80   A(41,40,43)           108.1078         estimate D2E/DX2                !
 ! A81   A(42,40,43)           108.0316         estimate D2E/DX2                !
 ! A82   A(7,44,45)            111.2443         estimate D2E/DX2                !
 ! A83   A(7,44,46)            110.514          estimate D2E/DX2                !
 ! A84   A(7,44,47)            111.2444         estimate D2E/DX2                !
 ! A85   A(45,44,46)           108.1342         estimate D2E/DX2                !
 ! A86   A(45,44,47)           107.4311         estimate D2E/DX2                !
 ! A87   A(46,44,47)           108.1342         estimate D2E/DX2                !
 ! D1    D(6,1,2,3)              0.0312         estimate D2E/DX2                !
 ! D2    D(6,1,2,15)          -179.9715         estimate D2E/DX2                !
 ! D3    D(39,1,2,3)          -179.9734         estimate D2E/DX2                !
 ! D4    D(39,1,2,15)            0.024          estimate D2E/DX2                !
 ! D5    D(2,1,6,5)             -0.2143         estimate D2E/DX2                !
 ! D6    D(2,1,6,17)           179.7758         estimate D2E/DX2                !
 ! D7    D(39,1,6,5)           179.7904         estimate D2E/DX2                !
 ! D8    D(39,1,6,17)           -0.2196         estimate D2E/DX2                !
 ! D9    D(1,2,3,4)              0.3742         estimate D2E/DX2                !
 ! D10   D(1,2,3,20)          -179.8404         estimate D2E/DX2                !
 ! D11   D(15,2,3,4)          -179.6232         estimate D2E/DX2                !
 ! D12   D(15,2,3,20)            0.1623         estimate D2E/DX2                !
 ! D13   D(2,3,4,5)             -0.5777         estimate D2E/DX2                !
 ! D14   D(2,3,4,7)           -179.3057         estimate D2E/DX2                !
 ! D15   D(20,3,4,5)           179.6391         estimate D2E/DX2                !
 ! D16   D(20,3,4,7)             0.9111         estimate D2E/DX2                !
 ! D17   D(2,3,20,9)          -176.0088         estimate D2E/DX2                !
 ! D18   D(2,3,20,21)           -0.2647         estimate D2E/DX2                !
 ! D19   D(4,3,20,9)             3.7741         estimate D2E/DX2                !
 ! D20   D(4,3,20,21)          179.5182         estimate D2E/DX2                !
 ! D21   D(3,4,5,6)              0.405          estimate D2E/DX2                !
 ! D22   D(3,4,5,16)          -179.3933         estimate D2E/DX2                !
 ! D23   D(7,4,5,6)            179.1732         estimate D2E/DX2                !
 ! D24   D(7,4,5,16)            -0.6251         estimate D2E/DX2                !
 ! D25   D(3,4,7,8)             -4.8825         estimate D2E/DX2                !
 ! D26   D(3,4,7,40)           114.9981         estimate D2E/DX2                !
 ! D27   D(3,4,7,44)          -125.5254         estimate D2E/DX2                !
 ! D28   D(5,4,7,8)            176.4076         estimate D2E/DX2                !
 ! D29   D(5,4,7,40)           -63.7117         estimate D2E/DX2                !
 ! D30   D(5,4,7,44)            55.7648         estimate D2E/DX2                !
 ! D31   D(4,5,6,1)             -0.0083         estimate D2E/DX2                !
 ! D32   D(4,5,6,17)          -179.9984         estimate D2E/DX2                !
 ! D33   D(16,5,6,1)           179.7901         estimate D2E/DX2                !
 ! D34   D(16,5,6,17)           -0.2            estimate D2E/DX2                !
 ! D35   D(4,7,8,9)              4.8832         estimate D2E/DX2                !
 ! D36   D(4,7,8,14)          -176.4073         estimate D2E/DX2                !
 ! D37   D(40,7,8,9)          -114.9977         estimate D2E/DX2                !
 ! D38   D(40,7,8,14)           63.7118         estimate D2E/DX2                !
 ! D39   D(44,7,8,9)           125.5261         estimate D2E/DX2                !
 ! D40   D(44,7,8,14)          -55.7643         estimate D2E/DX2                !
 ! D41   D(4,7,40,41)          -60.7705         estimate D2E/DX2                !
 ! D42   D(4,7,40,42)           59.1389         estimate D2E/DX2                !
 ! D43   D(4,7,40,43)          179.3199         estimate D2E/DX2                !
 ! D44   D(8,7,40,41)           60.7742         estimate D2E/DX2                !
 ! D45   D(8,7,40,42)         -179.3164         estimate D2E/DX2                !
 ! D46   D(8,7,40,43)          -59.1354         estimate D2E/DX2                !
 ! D47   D(44,7,40,41)        -179.9984         estimate D2E/DX2                !
 ! D48   D(44,7,40,42)         -60.089          estimate D2E/DX2                !
 ! D49   D(44,7,40,43)          60.092          estimate D2E/DX2                !
 ! D50   D(4,7,44,45)          -59.1152         estimate D2E/DX2                !
 ! D51   D(4,7,44,46)           61.0178         estimate D2E/DX2                !
 ! D52   D(4,7,44,47)         -178.8492         estimate D2E/DX2                !
 ! D53   D(8,7,44,45)          178.845          estimate D2E/DX2                !
 ! D54   D(8,7,44,46)          -61.022          estimate D2E/DX2                !
 ! D55   D(8,7,44,47)           59.111          estimate D2E/DX2                !
 ! D56   D(40,7,44,45)          59.8652         estimate D2E/DX2                !
 ! D57   D(40,7,44,46)         179.9982         estimate D2E/DX2                !
 ! D58   D(40,7,44,47)         -59.8687         estimate D2E/DX2                !
 ! D59   D(7,8,9,10)           179.307          estimate D2E/DX2                !
 ! D60   D(7,8,9,20)            -0.9124         estimate D2E/DX2                !
 ! D61   D(14,8,9,10)            0.5793         estimate D2E/DX2                !
 ! D62   D(14,8,9,20)         -179.6401         estimate D2E/DX2                !
 ! D63   D(7,8,14,13)         -179.1739         estimate D2E/DX2                !
 ! D64   D(7,8,14,38)            0.6249         estimate D2E/DX2                !
 ! D65   D(9,8,14,13)           -0.4059         estimate D2E/DX2                !
 ! D66   D(9,8,14,38)          179.3928         estimate D2E/DX2                !
 ! D67   D(8,9,10,11)          179.6217         estimate D2E/DX2                !
 ! D68   D(8,9,10,12)           -0.3752         estimate D2E/DX2                !
 ! D69   D(20,9,10,11)          -0.1612         estimate D2E/DX2                !
 ! D70   D(20,9,10,12)         179.8419         estimate D2E/DX2                !
 ! D71   D(8,9,20,3)            -3.7734         estimate D2E/DX2                !
 ! D72   D(8,9,20,21)         -179.5177         estimate D2E/DX2                !
 ! D73   D(10,9,20,3)          176.0069         estimate D2E/DX2                !
 ! D74   D(10,9,20,21)           0.2626         estimate D2E/DX2                !
 ! D75   D(9,10,12,13)          -0.0314         estimate D2E/DX2                !
 ! D76   D(9,10,12,18)         179.9735         estimate D2E/DX2                !
 ! D77   D(11,10,12,13)        179.9717         estimate D2E/DX2                !
 ! D78   D(11,10,12,18)         -0.0235         estimate D2E/DX2                !
 ! D79   D(10,12,13,14)          0.2151         estimate D2E/DX2                !
 ! D80   D(10,12,13,19)       -179.7756         estimate D2E/DX2                !
 ! D81   D(18,12,13,14)       -179.7898         estimate D2E/DX2                !
 ! D82   D(18,12,13,19)          0.2194         estimate D2E/DX2                !
 ! D83   D(12,13,14,8)           0.0081         estimate D2E/DX2                !
 ! D84   D(12,13,14,38)       -179.7908         estimate D2E/DX2                !
 ! D85   D(19,13,14,8)         179.9989         estimate D2E/DX2                !
 ! D86   D(19,13,14,38)          0.2            estimate D2E/DX2                !
 ! D87   D(3,20,21,22)         -87.9364         estimate D2E/DX2                !
 ! D88   D(3,20,21,23)          92.0667         estimate D2E/DX2                !
 ! D89   D(9,20,21,22)          87.923          estimate D2E/DX2                !
 ! D90   D(9,20,21,23)         -92.074          estimate D2E/DX2                !
 ! D91   D(20,21,22,24)          0.0016         estimate D2E/DX2                !
 ! D92   D(20,21,22,25)       -179.9991         estimate D2E/DX2                !
 ! D93   D(23,21,22,24)        179.9985         estimate D2E/DX2                !
 ! D94   D(23,21,22,25)         -0.0022         estimate D2E/DX2                !
 ! D95   D(20,21,23,26)        179.999          estimate D2E/DX2                !
 ! D96   D(20,21,23,27)         -0.0018         estimate D2E/DX2                !
 ! D97   D(22,21,23,26)          0.0021         estimate D2E/DX2                !
 ! D98   D(22,21,23,27)       -179.9987         estimate D2E/DX2                !
 ! D99   D(21,22,24,28)        179.9992         estimate D2E/DX2                !
 ! D100  D(21,22,24,29)         -0.0004         estimate D2E/DX2                !
 ! D101  D(25,22,24,28)         -0.0002         estimate D2E/DX2                !
 ! D102  D(25,22,24,29)       -179.9997         estimate D2E/DX2                !
 ! D103  D(21,22,25,30)       -179.9993         estimate D2E/DX2                !
 ! D104  D(21,22,25,31)          0.0008         estimate D2E/DX2                !
 ! D105  D(24,22,25,30)          0.0            estimate D2E/DX2                !
 ! D106  D(24,22,25,31)       -179.9999         estimate D2E/DX2                !
 ! D107  D(21,23,26,31)         -0.0006         estimate D2E/DX2                !
 ! D108  D(21,23,26,32)        179.9993         estimate D2E/DX2                !
 ! D109  D(27,23,26,31)       -179.9998         estimate D2E/DX2                !
 ! D110  D(27,23,26,32)          0.0001         estimate D2E/DX2                !
 ! D111  D(22,24,28,33)          0.0002         estimate D2E/DX2                !
 ! D112  D(22,24,28,34)       -179.9998         estimate D2E/DX2                !
 ! D113  D(29,24,28,33)        179.9997         estimate D2E/DX2                !
 ! D114  D(29,24,28,34)         -0.0002         estimate D2E/DX2                !
 ! D115  D(22,25,30,33)          0.0001         estimate D2E/DX2                !
 ! D116  D(22,25,30,35)       -179.9999         estimate D2E/DX2                !
 ! D117  D(31,25,30,33)        180.0            estimate D2E/DX2                !
 ! D118  D(31,25,30,35)          0.0            estimate D2E/DX2                !
 ! D119  D(22,25,31,26)          0.0007         estimate D2E/DX2                !
 ! D120  D(22,25,31,36)        179.9996         estimate D2E/DX2                !
 ! D121  D(30,25,31,26)       -179.9992         estimate D2E/DX2                !
 ! D122  D(30,25,31,36)         -0.0003         estimate D2E/DX2                !
 ! D123  D(23,26,31,25)         -0.0008         estimate D2E/DX2                !
 ! D124  D(23,26,31,36)       -179.9997         estimate D2E/DX2                !
 ! D125  D(32,26,31,25)        179.9993         estimate D2E/DX2                !
 ! D126  D(32,26,31,36)          0.0004         estimate D2E/DX2                !
 ! D127  D(24,28,33,30)         -0.0001         estimate D2E/DX2                !
 ! D128  D(24,28,33,37)        179.9999         estimate D2E/DX2                !
 ! D129  D(34,28,33,30)        179.9999         estimate D2E/DX2                !
 ! D130  D(34,28,33,37)         -0.0001         estimate D2E/DX2                !
 ! D131  D(25,30,33,28)         -0.0001         estimate D2E/DX2                !
 ! D132  D(25,30,33,37)        179.9999         estimate D2E/DX2                !
 ! D133  D(35,30,33,28)        179.9999         estimate D2E/DX2                !
 ! D134  D(35,30,33,37)         -0.0001         estimate D2E/DX2                !
 --------------------------------------------------------------------------------
 Trust Radius=3.00D-01 FncErr=1.00D-07 GrdErr=1.00D-06
 Number of steps in this run=    282 maximum allowed number of steps=    282.
 GradGradGradGradGradGradGradGradGradGradGradGradGradGradGradGradGradGrad

 Leave Link  103 at Fri Feb 19 12:02:45 2021, MaxMem=  5242880000 cpu:         0.5
 (Enter /opt/nce/packages/global/g09/l202.exe)
                          Input orientation:                          
 ---------------------------------------------------------------------
 Center     Atomic      Atomic             Coordinates (Angstroms)
 Number     Number       Type             X           Y           Z
 ---------------------------------------------------------------------
      1          6           0       -0.664207   -3.660103   -0.230662
      2          6           0       -0.043052   -2.431042   -0.425024
      3          6           0       -0.762359   -1.225133   -0.287972
      4          6           0       -2.129661   -1.265435    0.058898
      5          6           0       -2.725072   -2.521368    0.242909
      6          6           0       -2.018340   -3.714850    0.104505
      7          6           0       -2.978564    0.000202    0.210327
      8          6           0       -2.129420    1.265656    0.058729
      9          6           0       -0.762135    1.225045   -0.288147
     10          6           0       -0.042580    2.430778   -0.425336
     11          1           0        1.013653    2.397401   -0.686915
     12          6           0       -0.663487    3.659986   -0.231121
     13          6           0       -2.017615    3.715049    0.104027
     14          6           0       -2.724588    2.521726    0.242579
     15          1           0        1.013180   -2.397918   -0.686619
     16          1           0       -3.784654   -2.567169    0.501644
     17          1           0       -2.519662   -4.672857    0.256447
     18          1           0       -0.081318    4.577752   -0.343592
     19          1           0       -2.518741    4.673176    0.255851
     20          7           0       -0.111018   -0.000114   -0.493142
     21          6           0        1.277763   -0.000225   -0.833257
     22          6           0        2.253412   -0.000074    0.209847
     23          6           0        1.662951   -0.000412   -2.157576
     24          6           0        1.893723    0.000152    1.584492
     25          6           0        3.641850   -0.000169   -0.149528
     26          6           0        3.034533   -0.000503   -2.507909
     27          1           0        0.891691   -0.000502   -2.929843
     28          6           0        2.865387    0.000275    2.562211
     29          1           0        0.836397    0.000219    1.851503
     30          6           0        4.616905   -0.000034    0.886147
     31          6           0        4.001190   -0.000392   -1.525498
     32          1           0        3.320289   -0.000663   -3.562074
     33          6           0        4.238969    0.000182    2.211452
     34          1           0        2.577335    0.000445    3.615977
     35          1           0        5.674597   -0.000105    0.610563
     36          1           0        5.061266   -0.000457   -1.791319
     37          1           0        4.997701    0.000283    2.997524
     38          1           0       -3.784162    2.567764    0.501310
     39          1           0       -0.082227   -4.578003   -0.343028
     40          6           0       -4.072385    0.000240   -0.886182
     41          1           0       -3.614185    0.000099   -1.886360
     42          1           0       -4.713870   -0.890237   -0.803681
     43          1           0       -4.713660    0.890884   -0.803836
     44          6           0       -3.645300    0.000362    1.607032
     45          1           0       -4.281370   -0.885930    1.745004
     46          1           0       -2.881485    0.000305    2.398873
     47          1           0       -4.281142    0.886832    1.744912
 ---------------------------------------------------------------------
                    Distance matrix (angstroms):
                    1          2          3          4          5
     1  C    0.000000
     2  C    1.390756   0.000000
     3  C    2.437621   1.410816   0.000000
     4  C    2.822381   2.438597   1.411190   0.000000
     5  C    2.401698   2.765416   2.411286   1.402049   0.000000
     6  C    1.396070   2.414607   2.816064   2.452367   1.393924
     7  C    4.352993   3.864175   2.580952   1.531471   2.534489
     8  C    5.147203   4.272297   2.862357   2.531091   3.838004
     9  C    4.886468   3.728644   2.450178   2.862352   4.262717
    10  C    6.125614   4.861820   3.728624   4.272280   5.671513
    11  H    6.302122   4.949654   4.054149   4.883956   6.247954
    12  C    7.320089   6.125615   4.886450   5.147188   6.533297
    13  C    7.505771   6.477131   5.112214   4.981949   6.277952
    14  C    6.533310   5.671529   4.262720   3.838003   5.043094
    15  H    2.148170   1.088648   2.164921   3.422830   3.854062
    16  H    3.386439   3.857049   3.399827   2.151636   1.091676
    17  H    2.169253   3.409360   3.907852   3.435353   2.161315
    18  H    8.259223   7.009371   5.842977   6.204880   7.598087
    19  H    8.550996   7.553975   6.178242   5.954601   7.197514
    20  N    3.710853   2.432832   1.402502   2.445548   3.705640
    21  C    4.186774   2.796440   2.441277   3.742624   4.851493
    22  C    4.701315   3.403882   3.292942   4.564565   5.580620
    23  C    4.745735   3.438044   3.298104   4.571318   5.601098
    24  C    4.820296   3.701345   3.473070   4.485172   5.430578
    25  C    5.651887   4.423070   4.573484   5.912248   6.859165
    26  C    5.679719   4.440435   4.565548   5.904020   6.862566
    27  H    4.806150   3.613224   3.348893   4.434095   5.431583
    28  C    5.801426   4.826375   4.773438   5.728796   6.556758
    29  H    4.470479   3.444856   2.938513   3.689555   4.650810
    30  C    6.521772   5.417026   5.640559   6.913880   7.789448
    31  C    6.069268   4.845100   5.071771   6.457397   7.397647
    32  H    6.353425   5.201912   5.374671   6.664311   7.574843
    33  C    6.588076   5.585478   5.723792   6.840667   7.663631
    34  H    6.221241   5.395206   5.281706   6.034159   6.771458
    35  H    7.367746   6.298683   6.613808   7.925392   8.777607
    36  H    6.972066   5.816233   6.137955   7.532125   8.433275
    37  H    7.475079   6.560058   6.743472   7.812609   8.578336
    38  H    7.004015   6.312057   4.913281   4.198395   5.204585
    39  H    1.092642   2.148883   3.421600   3.914925   3.399662
    40  C    5.044155   4.728565   3.579898   2.503854   3.073858
    41  H    4.984053   4.560586   3.491268   2.754890   3.417909
    42  H    4.939664   4.932951   3.999069   2.750082   2.776915
    43  H    6.118667   5.743977   4.511809   3.474345   4.085783
    44  C    5.065870   4.797621   3.661178   2.509208   3.011108
    45  H    4.968215   5.005970   4.078172   2.759860   2.711643
    46  H    5.022884   4.684287   3.634767   2.764565   3.321367
    47  H    6.136752   5.803302   4.579830   3.479047   4.036483
                    6          7          8          9         10
     6  C    0.000000
     7  C    3.838599   0.000000
     8  C    4.981955   1.531470   0.000000
     9  C    5.112220   2.580944   1.411184   0.000000
    10  C    6.477121   3.864165   2.438592   1.410806   0.000000
    11  H    6.868693   4.742299   3.422826   2.164915   1.088653
    12  C    7.505763   4.352985   2.822373   2.437606   1.390754
    13  C    7.429899   3.838595   2.452362   2.816052   2.414610
    14  C    6.277956   2.534488   1.402048   2.411280   2.765420
    15  H    3.398573   4.742311   4.883979   4.054181   4.949667
    16  H    2.143538   2.706666   4.198395   4.913276   6.312043
    17  H    1.091873   4.695764   5.954605   6.178247   7.553965
    18  H    8.527608   5.445624   3.914916   3.421583   2.148879
    19  H    8.404302   4.695764   3.435349   3.907839   3.409360
    20  N    4.218332   2.952573   2.445543   1.402495   2.432800
    21  C    5.053922   4.382395   3.742591   2.441232   2.796333
    22  C    5.662025   5.231976   4.564441   3.292786   3.403539
    23  C    5.697891   5.210626   4.571325   3.298113   3.438048
    24  C    5.594268   5.062362   4.484990   3.472855   3.700895
    25  C    6.775038   6.630187   5.912127   4.573341   4.422736
    26  C    6.793571   6.598950   5.903999   4.565523   4.440367
    27  H    5.609985   4.983928   4.434166   3.348979   3.613383
    28  C    6.610088   6.299454   5.728587   4.773208   4.825873
    29  H    5.000326   4.152997   3.689368   2.938300   3.444447
    30  C    7.644429   7.625476   6.913718   5.640377   5.416607
    31  C    7.258709   7.192361   6.457324   5.071686   4.844896
    32  H    7.465919   7.342109   6.664316   5.374676   5.201915
    33  C    7.575923   7.489812   6.840469   5.723576   5.584990
    34  H    6.874160   6.516630   6.033930   5.281467   5.394690
    35  H    8.557845   8.662412   7.925235   6.613637   6.298285
    36  H    8.216549   8.285255   7.532044   6.137864   5.816017
    37  H    8.449651   8.449217   7.812396   6.743247   6.559551
    38  H    6.538105   2.706665   2.151635   3.399821   3.857055
    39  H    2.166530   5.445634   6.204898   5.843000   7.009376
    40  C    4.359181   1.548798   2.503847   3.579881   4.728554
    41  H    4.506785   2.190915   2.754911   3.491270   4.560609
    42  H    4.008631   2.198268   3.474336   4.511807   5.743974
    43  H    5.413189   2.198272   2.750049   3.999018   4.932902
    44  C    4.325204   1.547683   2.509204   3.661174   4.797607
    45  H    3.976849   2.199492   3.479042   4.579840   5.803298
    46  H    4.451013   2.190698   2.764596   3.634791   4.684308
    47  H    5.383928   2.199494   2.759824   4.078128   5.005912
                   11         12         13         14         15
    11  H    0.000000
    12  C    2.148178   0.000000
    13  C    3.398584   1.396073   0.000000
    14  C    3.854071   2.401700   1.393925   0.000000
    15  H    4.795319   6.302134   6.868712   6.247977   0.000000
    16  H    7.005953   7.004005   6.538103   5.204585   4.945688
    17  H    7.960075   8.550987   8.404300   7.197514   4.306471
    18  H    2.463892   1.092641   2.166533   3.399664   7.069340
    19  H    4.306480   2.169254   1.091872   2.161316   7.960093
    20  N    2.655280   3.710823   4.218312   3.705632   2.655319
    21  C    2.416564   4.186665   5.053838   4.851440   2.416700
    22  C    2.844129   4.700935   5.661714   5.580415   2.844553
    23  C    2.886856   4.745741   5.697900   5.601109   2.886858
    24  C    3.417692   4.819767   5.593818   5.430273   3.418193
    25  C    3.597853   5.651488   6.774709   6.858953   3.598274
    26  C    3.626282   5.679639   6.793507   6.862529   3.626371
    27  H    3.285657   4.806335   5.610147   5.431700   3.285486
    28  C    4.442066   5.800788   6.609533   6.556388   4.442623
    29  H    3.495922   4.469997   4.999902   4.650511   3.496338
    30  C    4.604959   6.521240   7.643979   7.789157   4.605461
    31  C    3.921481   6.069019   7.258503   7.397518   3.921741
    32  H    4.397479   6.353430   7.465925   7.574851   4.397479
    33  C    4.954781   6.587443   7.575376   7.663274   4.955342
    34  H    5.167725   6.220557   6.873546   6.771046   5.168274
    35  H    5.399619   7.367225   8.557399   8.777320   5.400092
    36  H    4.832453   6.971790   8.216318   8.433129   4.832720
    37  H    5.932445   7.474398   8.449051   8.577945   5.933017
    38  H    4.945698   3.386446   2.143545   1.091677   7.005973
    39  H    7.069333   8.259228   8.527620   7.598102   2.463888
    40  C    5.626177   5.044148   4.359174   3.073849   5.626185
    41  H    5.348141   4.984095   4.506831   3.417948   5.348118
    42  H    6.605052   6.118656   5.413168   4.085755   5.923336
    43  H    5.923291   4.939618   4.008589   2.776875   6.605048
    44  C    5.719601   5.065853   4.325192   3.011099   5.719617
    45  H    6.688181   6.136734   5.383902   4.036455   6.019232
    46  H    5.517269   5.022912   4.451057   3.321413   5.517259
    47  H    6.019174   4.968150   3.976791   2.711594   6.688181
                   16         17         18         19         20
    16  H    0.000000
    17  H    2.468653   0.000000
    18  H    8.091911   9.585371   0.000000
    19  H    7.354288   9.346033   2.511866   0.000000
    20  N    4.590749   5.310177   4.580404   5.310156   0.000000
    21  C    5.830886   6.118936   4.800494   6.118846   1.429822
    22  C    6.567600   6.679769   5.168535   6.679433   2.466723
    23  C    6.583015   6.719635   5.224232   6.719643   2.432551
    24  C    6.325161   6.563435   5.345345   6.562947   2.887135
    25  C    7.884572   7.743582   5.903982   7.743214   3.768566
    26  C    7.883305   7.766701   5.945857   7.766627   3.735476
    27  H    6.342798   6.604595   5.347509   6.604768   2.634945
    28  C    7.420293   7.493561   6.170904   7.492939   4.265462
    29  H    5.455980   5.970341   5.158920   5.969890   2.528825
    30  C    8.793419   8.553501   6.673956   8.552988   4.925007
    31  C    8.444940   8.217589   6.246853   8.217356   4.239813
    32  H    8.577935   8.397352   6.549156   8.397356   4.603500
    33  C    8.596119   8.446208   6.793179   8.445584   5.122228
    34  H    7.534362   7.688015   6.610474   7.687318   4.910407
    35  H    9.801995   9.439592   7.416046   9.439076   5.889950
    36  H    9.491891   9.137567   7.035772   9.137300   5.332709
    37  H    9.484249   9.266201   7.610040   9.265506   6.187387
    38  H    5.134933   7.354285   4.297088   2.468664   4.590743
    39  H    4.297079   2.511863   9.155755   9.585383   4.580440
    40  C    2.932651   5.055135   6.097265   5.055134   3.980818
    41  H    3.510340   5.256056   5.984663   5.256112   3.770044
    42  H    2.319357   4.499626   7.181304   6.073941   4.698404
    43  H    3.811228   6.073964   5.938300   4.499593   4.698374
    44  C    2.798842   4.993007   6.120409   4.992997   4.111190
    45  H    2.149241   4.433986   7.201006   6.018978   4.815164
    46  H    3.317697   5.153576   6.026199   5.153625   4.004902
    47  H    3.704367   6.019010   5.968523   4.433933   4.815132
                   21         22         23         24         25
    21  C    0.000000
    22  C    1.428271   0.000000
    23  C    1.379199   2.439946   0.000000
    24  C    2.494978   1.420924   3.749177   0.000000
    25  C    2.460974   1.434193   2.819273   2.462270   0.000000
    26  C    2.427076   2.827781   1.415617   4.248434   2.435322
    27  H    2.131836   3.422271   1.091439   4.624207   3.910694
    28  C    3.748300   2.430664   4.870548   1.378429   2.820713
    29  H    2.720798   2.168632   4.093398   1.090520   3.445967
    30  C    3.755825   2.458349   4.241473   2.811300   1.422447
    31  C    2.810027   2.462956   2.422165   3.756788   1.422118
    32  H    3.408571   3.919900   2.172414   5.340621   3.427663
    33  C    4.247234   2.819372   5.071910   2.427603   2.435319
    34  H    4.635145   3.421498   5.845512   2.143422   3.913083
    35  H    4.627825   3.444573   4.874002   3.904298   2.170207
    36  H    3.902919   3.448001   3.417995   4.629193   2.170304
    37  H    5.339740   3.911811   6.139675   3.410475   3.426699
    38  H    5.830842   6.567423   6.583027   6.324895   7.884385
    39  H    4.800620   5.168976   5.224229   5.345953   5.904469
    40  C    5.350410   6.420046   5.874566   6.457451   7.749328
    41  H    5.004017   6.230793   5.284101   6.510289   7.461007
    42  H    6.057447   7.096665   6.579412   7.082122   8.428416
    43  H    6.057400   7.096580   6.579376   7.082021   8.428324
    44  C    5.494685   6.061925   6.507673   5.539069   7.495869
    45  H    6.191596   6.770881   7.165837   6.240407   8.194586
    46  H    5.267448   5.582025   6.435303   4.844154   7.003445
    47  H    6.191547   6.770777   7.165812   6.240264   8.194478
                   26         27         28         29         30
    26  C    0.000000
    27  H    2.183987   0.000000
    28  C    5.072941   5.835935   0.000000
    29  H    4.882241   4.781666   2.149862   0.000000
    30  C    3.744799   5.332823   2.424254   3.901814   0.000000
    31  C    1.378244   3.411916   4.242572   4.628180   2.489003
    32  H    1.092209   2.509543   6.141157   5.956218   4.633345
    33  C    4.870630   6.134915   1.417660   3.421558   1.378140
    34  H    6.140929   6.759375   1.092427   2.478756   3.407612
    35  H    4.085928   5.950686   3.420613   4.994808   1.093005
    36  H    2.149686   4.322221   4.875973   5.578501   2.714089
    37  H    5.844983   7.210617   2.176295   4.316227   2.145441
    38  H    7.883273   6.342902   7.419961   5.455719   8.793157
    39  H    5.945957   5.347302   6.171667   5.159453   6.674617
    40  C    7.289601   5.368296   7.747522   5.620592   8.868197
    41  H    6.677707   4.625124   7.859684   5.811996   8.685484
    42  H    7.983343   6.060900   8.340706   6.216782   9.524250
    43  H    7.983291   6.060894   8.340588   6.216691   9.524139
    44  C    7.845566   6.416192   6.580381   4.488360   8.293594
    45  H    8.508448   7.028424   7.247712   5.195011   8.983415
    46  H    7.686077   6.529324   5.749193   3.757960   7.649457
    47  H    8.508405   7.028435   7.247540   5.194868   8.983276
                   31         32         33         34         35
    31  C    0.000000
    32  H    2.147386   0.000000
    33  C    3.744507   5.846159   0.000000
    34  H    5.334991   7.216398   2.175711   0.000000
    35  H    2.713494   4.790998   2.150319   4.315732   0.000000
    36  H    1.092896   2.483259   4.086361   5.950526   2.478954
    37  H    4.631497   6.770675   1.092512   2.498130   2.481083
    38  H    8.444826   8.577944   8.595795   7.533984   9.801735
    39  H    6.247164   6.549154   6.793959   6.611292   7.416705
    40  C    8.098848   7.862063   8.869833   8.030455   9.861232
    41  H    7.623920   7.134070   8.857996   8.283154   9.618529
    42  H    8.790058   8.540948   9.488793   8.572535  10.522009
    43  H    8.789982   8.540906   9.488671   8.572411  10.521895
    44  C    8.263265   8.674047   7.907403   6.538887   9.373016
    45  H    8.948808   9.313109   8.578983   7.164359  10.059469
    46  H    7.922872   8.602028   7.122920   5.592858   8.740972
    47  H    8.948730   9.313082   8.578817   7.164166  10.059331
                   36         37         38         39         40
    36  H    0.000000
    37  H    4.789265   0.000000
    38  H    9.491760   9.483890   0.000000
    39  H    7.036121   7.610891   8.091923   0.000000
    40  C    9.178391   9.866592   2.932641   6.097269   0.000000
    41  H    8.675972   9.900349   3.510379   5.984615   1.100138
    42  H    9.865111  10.466938   3.811185   5.938345   1.100572
    43  H    9.865029  10.466807   2.319332   7.181312   1.100573
    44  C    9.346287   8.754138   2.798831   6.120429   2.529529
    45  H   10.028683   9.405070   3.704321   5.968591   2.784261
    46  H    8.980256   7.901896   3.317743   6.026174   3.494257
    47  H   10.028599   9.404889   2.149202   7.201028   2.784292
                   41         42         43         44         45
    41  H    0.000000
    42  H    1.781628   0.000000
    43  H    1.781629   1.781121   0.000000
    44  C    3.493531   2.783262   2.783291   0.000000
    45  H    3.796971   2.585125   3.136962   1.099607   0.000000
    46  H    4.347421   3.795662   3.795700   1.100193   1.781189
    47  H    3.797007   3.136966   2.585189   1.099607   1.772762
                   46         47
    46  H    0.000000
    47  H    1.781189   0.000000
 Symmetry turned off by external request.
 Stoichiometry    C25H21N
 Framework group  C1[X(C25H21N)]
 Deg. of freedom   135
 Full point group                 C1      NOp   1
 Rotational constants (GHZ):      0.3150006      0.1817429      0.1465634
 Leave Link  202 at Fri Feb 19 12:02:45 2021, MaxMem=  5242880000 cpu:         0.3
 (Enter /opt/nce/packages/global/g09/l301.exe)
 Standard basis: def2TZVP (5D, 7F)
 Ernie: Thresh=  0.10000D-02 Tol=  0.10000D-05 Strict=F.
   932 basis functions,  1494 primitive gaussians,  1062 cartesian basis functions
    89 alpha electrons       89 beta electrons
       nuclear repulsion energy      2226.8289668978 Hartrees.
 IExCor= 4235 DFT=T Ex+Corr=M06 ExCW=0 ScaHFX=  0.270000
 ScaDFX=  1.000000  1.000000  1.000000  1.000000 ScalE2=  1.000000  1.000000
 IRadAn=      5 IRanWt=     -1 IRanGd=            0 ICorTp=0 IEmpDi=  4
 NAtoms=   47 NActive=   47 NUniq=   47 SFac= 1.00D+00 NAtFMM=   60 NAOKFM=F Big=F
 Integral buffers will be    131072 words long.
 Raffenetti 2 integral format.
 Two-electron integral symmetry is turned off.
 ------------------------------------------------------------------------------
 Polarizable Continuum Model (PCM)
 =================================
 Model                : PCM (using non-symmetric T matrix).
 Atomic radii         : SMD-Coulomb.
 Polarization charges : Total charges.
 Charge compensation  : None.
 Solution method      : On-the-fly selection.
 Cavity type          : VdW (van der Waals Surface) (Alpha=1.000).
 Cavity algorithm     : GePol (No added spheres)
                        Default sphere list used, NSphG=   47.
                        Lebedev-Laikov grids with approx.  5.0 points / Ang**2.
                        Smoothing algorithm: York/Karplus (Gamma=1.0000).
                        Polarization charges: spherical gaussians, with
                                              point-specific exponents (IZeta= 3).
                        Self-potential: point-specific (ISelfS= 7).
                        Self-field    : sphere-specific E.n sum rule (ISelfD= 2).
 1st derivatives      : Analytical E(r).r(x)/FMM algorithm (CHGder, D1EAlg=3).
                        Cavity 1st derivative terms included.
 Solvent              : n,n-DiMethylFormamide, Eps=  37.219000 Eps(inf)=   2.046330
 ------------------------------------------------------------------------------
 GePol: Number of generator spheres                  =      47
 GePol: Total number of spheres                      =      47
 GePol: Number of exposed spheres                    =      47 (100.00%)
 GePol: Number of points                             =    3448
 GePol: Average weight of points                     =       0.10
 GePol: Minimum weight of points                     =   0.11D-10
 GePol: Maximum weight of points                     =    0.17992
 GePol: Number of points with low weight             =     254
 GePol: Fraction of low-weight points (<1% of avg)   =       7.37%
 GePol: Cavity surface area                          =    360.262 Ang**2
 GePol: Cavity volume                                =    354.637 Ang**3
 ------------------------------------------------------------------------------
 Atomic radii for non-electrostatic terms: SMD-CDS.
 ------------------------------------------------------------------------------
 PCM non-electrostatic energy =        -0.0052118738 Hartrees.
 Nuclear repulsion after PCM non-electrostatic terms =     2226.8237550239 Hartrees.
 Leave Link  301 at Fri Feb 19 12:02:48 2021, MaxMem=  5242880000 cpu:        16.4
 (Enter /opt/nce/packages/global/g09/l302.exe)
 NPDir=0 NMtPBC=     1 NCelOv=     1 NCel=       1 NClECP=     1 NCelD=      1
         NCelK=      1 NCelE2=     1 NClLst=     1 CellRange=     0.0.
 One-electron integrals computed using PRISM.
   1 Symmetry operations used in ECPInt.
 ECPInt:  NShTT=   68635 NPrTT=  209616 LenC2=   60285 LenP2D=  129458.
 LDataN:  DoStor=T MaxTD1= 6 Len=  172
 NBasis=   932 RedAO= T EigKep=  4.04D-06  NBF=   932
 NBsUse=   932 1.00D-06 EigRej= -1.00D+00 NBFU=   932
 Precomputing XC quadrature grid using
 IXCGrd= 4 IRadAn=           5 IRanWt=          -1 IRanGd=           0 AccXCQ= 0.00D+00.
 Generated NRdTot=       0 NPtTot=           0 NUsed=           0 NTot=          32
 NSgBfM=  1044  1044  1044  1045  1045 MxSgAt=    47 MxSgA2=    47.
 Leave Link  302 at Fri Feb 19 12:02:52 2021, MaxMem=  5242880000 cpu:        36.4
 (Enter /opt/nce/packages/global/g09/l303.exe)
 DipDrv:  MaxL=1.
 Leave Link  303 at Fri Feb 19 12:02:53 2021, MaxMem=  5242880000 cpu:         3.8
 (Enter /opt/nce/packages/global/g09/l401.exe)
 ExpMin= 9.52D-02 ExpMax= 1.97D+04 ExpMxC= 6.73D+02 IAcc=3 IRadAn=         5 AccDes= 0.00D+00
 Harris functional with IExCor= 1009 and IRadAn=       5 diagonalized for initial guess.
 HarFok:  IExCor= 1009 AccDes= 0.00D+00 IRadAn=         5 IDoV= 1 UseB2=F ITyADJ=14
 ICtDFT=  3500011 ScaDFX=  1.000000  1.000000  1.000000  1.000000
 FoFCou: FMM=F IPFlag=           0 FMFlag=      100000 FMFlg1=           0
         NFxFlg=           0 DoJE=T BraDBF=F KetDBF=T FulRan=T
         wScrn=  0.000000 ICntrl=     500 IOpCl=  0 I1Cent=   200000004 NGrid=           0
         NMat0=    1 NMatS0=      1 NMatT0=    0 NMatD0=    1 NMtDS0=    0 NMtDT0=    0
 Symmetry not used in FoFCou.
 Harris En= -1019.57863069810    
 JPrj=0 DoOrth=F DoCkMO=F.
 Leave Link  401 at Fri Feb 19 12:03:05 2021, MaxMem=  5242880000 cpu:       129.3
 (Enter /opt/nce/packages/global/g09/l502.exe)
 Closed shell SCF:
 Using DIIS extrapolation, IDIIS=  1040.
 Two-electron integral symmetry not used.
 IVT=     3421292 IEndB=     3421292 NGot=  5242880000 MDV=  5240604255
 LenX=  5240604255 LenY=  5239475349
 Requested convergence on RMS density matrix=1.00D-08 within 128 cycles.
 Requested convergence on MAX density matrix=1.00D-06.
 Requested convergence on             energy=1.00D-06.
 No special actions if energy rises.
 Fock matrices will be formed incrementally for  20 cycles.

 Cycle   1  Pass 1  IDiag  1:
 FoFJK:  IHMeth= 1 ICntrl=       0 DoSepK=F KAlg= 0 I1Cent=   0 FoldK=F
 IRaf= 780000000 NMat=   1 IRICut=       1 DoRegI=T DoRafI=F ISym2E= 0.
 FoFCou: FMM=F IPFlag=           0 FMFlag=      100000 FMFlg1=           0
         NFxFlg=           0 DoJE=F BraDBF=F KetDBF=F FulRan=T
         wScrn=  0.000000 ICntrl=       0 IOpCl=  0 I1Cent=           0 NGrid=           0
         NMat0=    1 NMatS0=      1 NMatT0=    0 NMatD0=    1 NMtDS0=    0 NMtDT0=    0
 Symmetry not used in FoFCou.
 Inv3:  Mode=1 IEnd=    35666112.
 Iteration    1 A*A^-1 deviation from unit magnitude is 6.44D-15 for   3438.
 Iteration    1 A*A^-1 deviation from orthogonality  is 4.08D-15 for   1420   1192.
 Iteration    1 A^-1*A deviation from unit magnitude is 6.22D-15 for   3438.
 Iteration    1 A^-1*A deviation from orthogonality  is 1.20D-12 for   1550   1515.
 E= -1019.12860932416    
 DIIS: error= 2.11D-02 at cycle   1 NSaved=   1.
 NSaved= 1 IEnMin= 1 EnMin= -1019.12860932416     IErMin= 1 ErrMin= 2.11D-02
 ErrMax= 2.11D-02  0.00D+00 EMaxC= 1.00D-01 BMatC= 5.09D-01 BMatP= 5.09D-01
 IDIUse=3 WtCom= 7.89D-01 WtEn= 2.11D-01
 Coeff-Com:  0.100D+01
 Coeff-En:   0.100D+01
 Coeff:      0.100D+01
 Gap=     0.186 Goal=   None    Shift=    0.000
 GapD=    0.186 DampG=1.000 DampE=0.500 DampFc=0.5000 IDamp=-1.
 Damping current iteration by 5.00D-01
 RMSDP=3.80D-03 MaxDP=4.08D-01              OVMax= 2.48D-01

 Cycle   2  Pass 1  IDiag  1:
 RMSU=  1.90D-03    CP:  1.02D+00
 E= -1019.36370692685     Delta-E=       -0.235097602691 Rises=F Damp=T
 DIIS: error= 5.42D-03 at cycle   2 NSaved=   2.
 NSaved= 2 IEnMin= 2 EnMin= -1019.36370692685     IErMin= 2 ErrMin= 5.42D-03
 ErrMax= 5.42D-03  0.00D+00 EMaxC= 1.00D-01 BMatC= 3.87D-02 BMatP= 5.09D-01
 IDIUse=3 WtCom= 9.46D-01 WtEn= 5.42D-02
 Coeff-Com:  0.600D-01 0.940D+00
 Coeff-En:   0.950D-01 0.905D+00
 Coeff:      0.619D-01 0.938D+00
 Gap=     0.159 Goal=   None    Shift=    0.000
 RMSDP=1.39D-03 MaxDP=9.14D-02 DE=-2.35D-01 OVMax= 2.22D-01

 Cycle   3  Pass 1  IDiag  1:
 RMSU=  1.38D-03    CP:  1.02D+00  1.09D+00
 E= -1019.61949070367     Delta-E=       -0.255783776825 Rises=F Damp=F
 DIIS: error= 7.40D-03 at cycle   3 NSaved=   3.
 NSaved= 3 IEnMin= 3 EnMin= -1019.61949070367     IErMin= 2 ErrMin= 5.42D-03
 ErrMax= 7.40D-03  0.00D+00 EMaxC= 1.00D-01 BMatC= 4.14D-02 BMatP= 3.87D-02
 IDIUse=3 WtCom= 9.26D-01 WtEn= 7.40D-02
 Coeff-Com: -0.210D-01 0.518D+00 0.503D+00
 Coeff-En:   0.000D+00 0.000D+00 0.100D+01
 Coeff:     -0.195D-01 0.480D+00 0.540D+00
 Gap=     0.163 Goal=   None    Shift=    0.000
 RMSDP=4.29D-04 MaxDP=3.75D-02 DE=-2.56D-01 OVMax= 1.03D-01

 Cycle   4  Pass 1  IDiag  1:
 RMSU=  4.12D-04    CP:  1.02D+00  1.04D+00  9.57D-01
 E= -1019.65417311187     Delta-E=       -0.034682408193 Rises=F Damp=F
 DIIS: error= 3.24D-03 at cycle   4 NSaved=   4.
 NSaved= 4 IEnMin= 4 EnMin= -1019.65417311187     IErMin= 4 ErrMin= 3.24D-03
 ErrMax= 3.24D-03  0.00D+00 EMaxC= 1.00D-01 BMatC= 8.20D-03 BMatP= 3.87D-02
 IDIUse=3 WtCom= 9.68D-01 WtEn= 3.24D-02
 Coeff-Com: -0.989D-02 0.911D-01 0.323D+00 0.595D+00
 Coeff-En:   0.000D+00 0.000D+00 0.195D+00 0.805D+00
 Coeff:     -0.957D-02 0.882D-01 0.319D+00 0.602D+00
 Gap=     0.153 Goal=   None    Shift=    0.000
 RMSDP=1.45D-04 MaxDP=1.02D-02 DE=-3.47D-02 OVMax= 2.93D-02

 Cycle   5  Pass 1  IDiag  1:
 RMSU=  1.13D-04    CP:  1.02D+00  1.05D+00  9.69D-01  7.87D-01
 E= -1019.66244304231     Delta-E=       -0.008269930442 Rises=F Damp=F
 DIIS: error= 3.46D-04 at cycle   5 NSaved=   5.
 NSaved= 5 IEnMin= 5 EnMin= -1019.66244304231     IErMin= 5 ErrMin= 3.46D-04
 ErrMax= 3.46D-04  0.00D+00 EMaxC= 1.00D-01 BMatC= 1.81D-04 BMatP= 8.20D-03
 IDIUse=3 WtCom= 9.97D-01 WtEn= 3.46D-03
 Coeff-Com: -0.171D-02 0.964D-02 0.104D+00 0.242D+00 0.645D+00
 Coeff-En:   0.000D+00 0.000D+00 0.000D+00 0.000D+00 0.100D+01
 Coeff:     -0.170D-02 0.960D-02 0.104D+00 0.242D+00 0.647D+00
 Gap=     0.153 Goal=   None    Shift=    0.000
 RMSDP=3.89D-05 MaxDP=4.45D-03 DE=-8.27D-03 OVMax= 6.46D-03

 Cycle   6  Pass 1  IDiag  1:
 RMSU=  3.71D-05    CP:  1.02D+00  1.05D+00  9.68D-01  7.90D-01  1.06D+00
 E= -1019.66258228531     Delta-E=       -0.000139243004 Rises=F Damp=F
 DIIS: error= 2.14D-04 at cycle   6 NSaved=   6.
 NSaved= 6 IEnMin= 6 EnMin= -1019.66258228531     IErMin= 6 ErrMin= 2.14D-04
 ErrMax= 2.14D-04  0.00D+00 EMaxC= 1.00D-01 BMatC= 4.20D-05 BMatP= 1.81D-04
 IDIUse=3 WtCom= 9.98D-01 WtEn= 2.14D-03
 Coeff-Com:  0.419D-03-0.283D-02 0.223D-01 0.623D-01 0.356D+00 0.562D+00
 Coeff-En:   0.000D+00 0.000D+00 0.000D+00 0.000D+00 0.166D+00 0.834D+00
 Coeff:      0.418D-03-0.283D-02 0.223D-01 0.622D-01 0.355D+00 0.563D+00
 Gap=     0.153 Goal=   None    Shift=    0.000
 RMSDP=1.67D-05 MaxDP=1.26D-03 DE=-1.39D-04 OVMax= 2.60D-03

 Cycle   7  Pass 1  IDiag  1:
 RMSU=  1.24D-05    CP:  1.02D+00  1.05D+00  9.70D-01  8.01D-01  1.15D+00
                    CP:  1.02D+00
 E= -1019.66262287859     Delta-E=       -0.000040593276 Rises=F Damp=F
 DIIS: error= 4.48D-05 at cycle   7 NSaved=   7.
 NSaved= 7 IEnMin= 7 EnMin= -1019.66262287859     IErMin= 7 ErrMin= 4.48D-05
 ErrMax= 4.48D-05  0.00D+00 EMaxC= 1.00D-01 BMatC= 2.29D-06 BMatP= 4.20D-05
 IDIUse=1 WtCom= 1.00D+00 WtEn= 0.00D+00
 Coeff-Com:  0.515D-03-0.233D-02-0.111D-02 0.132D-03 0.863D-01 0.229D+00
 Coeff-Com:  0.687D+00
 Coeff:      0.515D-03-0.233D-02-0.111D-02 0.132D-03 0.863D-01 0.229D+00
 Coeff:      0.687D+00
 Gap=     0.153 Goal=   None    Shift=    0.000
 RMSDP=9.36D-06 MaxDP=6.16D-04 DE=-4.06D-05 OVMax= 6.66D-04

 Cycle   8  Pass 1  IDiag  1:
 RMSU=  4.94D-06    CP:  1.02D+00  1.05D+00  9.70D-01  8.07D-01  1.19D+00
                    CP:  1.14D+00  1.27D+00
 E= -1019.66262475138     Delta-E=       -0.000001872797 Rises=F Damp=F
 DIIS: error= 2.13D-05 at cycle   8 NSaved=   8.
 NSaved= 8 IEnMin= 8 EnMin= -1019.66262475138     IErMin= 8 ErrMin= 2.13D-05
 ErrMax= 2.13D-05  0.00D+00 EMaxC= 1.00D-01 BMatC= 5.59D-07 BMatP= 2.29D-06
 IDIUse=1 WtCom= 1.00D+00 WtEn= 0.00D+00
 Coeff-Com:  0.289D-03-0.102D-02-0.388D-02-0.966D-02-0.613D-02 0.348D-01
 Coeff-Com:  0.366D+00 0.620D+00
 Coeff:      0.289D-03-0.102D-02-0.388D-02-0.966D-02-0.613D-02 0.348D-01
 Coeff:      0.366D+00 0.620D+00
 Gap=     0.153 Goal=   None    Shift=    0.000
 RMSDP=4.38D-06 MaxDP=3.39D-04 DE=-1.87D-06 OVMax= 2.21D-04

 Cycle   9  Pass 1  IDiag  1:
 RMSU=  1.63D-06    CP:  1.02D+00  1.05D+00  9.71D-01  8.09D-01  1.21D+00
                    CP:  1.21D+00  1.46D+00  1.15D+00
 E= -1019.66262532892     Delta-E=       -0.000000577532 Rises=F Damp=F
 DIIS: error= 6.70D-06 at cycle   9 NSaved=   9.
 NSaved= 9 IEnMin= 9 EnMin= -1019.66262532892     IErMin= 9 ErrMin= 6.70D-06
 ErrMax= 6.70D-06  0.00D+00 EMaxC= 1.00D-01 BMatC= 3.18D-08 BMatP= 5.59D-07
 IDIUse=1 WtCom= 1.00D+00 WtEn= 0.00D+00
 Coeff-Com:  0.871D-04-0.236D-03-0.129D-02-0.358D-02-0.102D-01-0.104D-01
 Coeff-Com:  0.661D-01 0.225D+00 0.735D+00
 Coeff:      0.871D-04-0.236D-03-0.129D-02-0.358D-02-0.102D-01-0.104D-01
 Coeff:      0.661D-01 0.225D+00 0.735D+00
 Gap=     0.153 Goal=   None    Shift=    0.000
 RMSDP=1.85D-06 MaxDP=1.31D-04 DE=-5.78D-07 OVMax= 5.30D-05

 Cycle  10  Pass 1  IDiag  1:
 RMSU=  5.12D-07    CP:  1.02D+00  1.05D+00  9.71D-01  8.10D-01  1.22D+00
                    CP:  1.23D+00  1.53D+00  1.28D+00  1.20D+00
 E= -1019.66262535550     Delta-E=       -0.000000026586 Rises=F Damp=F
 DIIS: error= 3.38D-06 at cycle  10 NSaved=  10.
 NSaved=10 IEnMin=10 EnMin= -1019.66262535550     IErMin=10 ErrMin= 3.38D-06
 ErrMax= 3.38D-06  0.00D+00 EMaxC= 1.00D-01 BMatC= 1.01D-08 BMatP= 3.18D-08
 IDIUse=1 WtCom= 1.00D+00 WtEn= 0.00D+00
 Coeff-Com:  0.680D-05 0.313D-04-0.108D-03-0.497D-03-0.494D-02-0.120D-01
 Coeff-Com: -0.216D-01 0.262D-01 0.417D+00 0.596D+00
 Coeff:      0.680D-05 0.313D-04-0.108D-03-0.497D-03-0.494D-02-0.120D-01
 Coeff:     -0.216D-01 0.262D-01 0.417D+00 0.596D+00
 Gap=     0.153 Goal=   None    Shift=    0.000
 RMSDP=7.63D-07 MaxDP=5.40D-05 DE=-2.66D-08 OVMax= 3.74D-05

 Cycle  11  Pass 1  IDiag  1:
 RMSU=  2.16D-07    CP:  1.02D+00  1.05D+00  9.71D-01  8.10D-01  1.22D+00
                    CP:  1.24D+00  1.56D+00  1.32D+00  1.33D+00  1.17D+00
 E= -1019.66262536600     Delta-E=       -0.000000010497 Rises=F Damp=F
 DIIS: error= 6.02D-07 at cycle  11 NSaved=  11.
 NSaved=11 IEnMin=11 EnMin= -1019.66262536600     IErMin=11 ErrMin= 6.02D-07
 ErrMax= 6.02D-07  0.00D+00 EMaxC= 1.00D-01 BMatC= 5.22D-10 BMatP= 1.01D-08
 IDIUse=1 WtCom= 1.00D+00 WtEn= 0.00D+00
 Coeff-Com: -0.378D-05 0.313D-04 0.787D-04 0.160D-03-0.961D-03-0.378D-02
 Coeff-Com: -0.133D-01-0.986D-02 0.961D-01 0.235D+00 0.696D+00
 Coeff:     -0.378D-05 0.313D-04 0.787D-04 0.160D-03-0.961D-03-0.378D-02
 Coeff:     -0.133D-01-0.986D-02 0.961D-01 0.235D+00 0.696D+00
 Gap=     0.153 Goal=   None    Shift=    0.000
 RMSDP=2.43D-07 MaxDP=2.47D-05 DE=-1.05D-08 OVMax= 7.59D-06

 Cycle  12  Pass 1  IDiag  1:
 RMSU=  6.36D-08    CP:  1.02D+00  1.05D+00  9.71D-01  8.10D-01  1.22D+00
                    CP:  1.25D+00  1.56D+00  1.34D+00  1.38D+00  1.28D+00
                    CP:  1.19D+00
 E= -1019.66262536646     Delta-E=       -0.000000000459 Rises=F Damp=F
 DIIS: error= 3.89D-07 at cycle  12 NSaved=  12.
 NSaved=12 IEnMin=12 EnMin= -1019.66262536646     IErMin=12 ErrMin= 3.89D-07
 ErrMax= 3.89D-07  0.00D+00 EMaxC= 1.00D-01 BMatC= 1.26D-10 BMatP= 5.22D-10
 IDIUse=1 WtCom= 1.00D+00 WtEn= 0.00D+00
 Coeff-Com: -0.294D-05 0.114D-04 0.482D-04 0.141D-03 0.170D-03-0.277D-03
 Coeff-Com: -0.336D-02-0.880D-02-0.113D-01 0.367D-01 0.367D+00 0.619D+00
 Coeff:     -0.294D-05 0.114D-04 0.482D-04 0.141D-03 0.170D-03-0.277D-03
 Coeff:     -0.336D-02-0.880D-02-0.113D-01 0.367D-01 0.367D+00 0.619D+00
 Gap=     0.153 Goal=   None    Shift=    0.000
 RMSDP=9.84D-08 MaxDP=9.62D-06 DE=-4.59D-10 OVMax= 4.22D-06

 Cycle  13  Pass 1  IDiag  1:
 RMSU=  2.25D-08    CP:  1.02D+00  1.05D+00  9.71D-01  8.10D-01  1.22D+00
                    CP:  1.25D+00  1.57D+00  1.35D+00  1.40D+00  1.33D+00
                    CP:  1.32D+00  1.18D+00
 E= -1019.66262536661     Delta-E=       -0.000000000153 Rises=F Damp=F
 DIIS: error= 6.39D-08 at cycle  13 NSaved=  13.
 NSaved=13 IEnMin=13 EnMin= -1019.66262536661     IErMin=13 ErrMin= 6.39D-08
 ErrMax= 6.39D-08  0.00D+00 EMaxC= 1.00D-01 BMatC= 6.14D-12 BMatP= 1.26D-10
 IDIUse=1 WtCom= 1.00D+00 WtEn= 0.00D+00
 Coeff-Com: -0.741D-06 0.138D-05 0.743D-05 0.260D-04 0.157D-03 0.323D-03
 Coeff-Com:  0.623D-03-0.168D-02-0.148D-01-0.139D-01 0.372D-01 0.196D+00
 Coeff-Com:  0.796D+00
 Coeff:     -0.741D-06 0.138D-05 0.743D-05 0.260D-04 0.157D-03 0.323D-03
 Coeff:      0.623D-03-0.168D-02-0.148D-01-0.139D-01 0.372D-01 0.196D+00
 Coeff:      0.796D+00
 Gap=     0.153 Goal=   None    Shift=    0.000
 RMSDP=3.91D-08 MaxDP=3.91D-06 DE=-1.53D-10 OVMax= 8.15D-07

 Cycle  14  Pass 1  IDiag  1:
 RMSU=  8.51D-09    CP:  1.02D+00  1.05D+00  9.71D-01  8.10D-01  1.22D+00
                    CP:  1.25D+00  1.57D+00  1.35D+00  1.40D+00  1.35D+00
                    CP:  1.36D+00  1.31D+00  1.29D+00
 E= -1019.66262536661     Delta-E=        0.000000000003 Rises=F Damp=F
 DIIS: error= 5.18D-08 at cycle  14 NSaved=  14.
 NSaved=14 IEnMin=13 EnMin= -1019.66262536661     IErMin=14 ErrMin= 5.18D-08
 ErrMax= 5.18D-08  0.00D+00 EMaxC= 1.00D-01 BMatC= 1.27D-12 BMatP= 6.14D-12
 IDIUse=1 WtCom= 1.00D+00 WtEn= 0.00D+00
 Coeff-Com: -0.994D-07-0.502D-06-0.142D-05-0.256D-05 0.548D-04 0.168D-03
 Coeff-Com:  0.627D-03 0.420D-04-0.577D-02-0.966D-02-0.191D-01 0.314D-01
 Coeff-Com:  0.372D+00 0.631D+00
 Coeff:     -0.994D-07-0.502D-06-0.142D-05-0.256D-05 0.548D-04 0.168D-03
 Coeff:      0.627D-03 0.420D-04-0.577D-02-0.966D-02-0.191D-01 0.314D-01
 Coeff:      0.372D+00 0.631D+00
 Gap=     0.153 Goal=   None    Shift=    0.000
 RMSDP=1.06D-08 MaxDP=1.21D-06 DE= 3.18D-12 OVMax= 4.89D-07

 Cycle  15  Pass 1  IDiag  1:
 RMSU=  2.74D-09    CP:  1.02D+00  1.05D+00  9.71D-01  8.10D-01  1.22D+00
                    CP:  1.25D+00  1.57D+00  1.35D+00  1.41D+00  1.36D+00
                    CP:  1.38D+00  1.34D+00  1.38D+00  1.19D+00
 E= -1019.66262536662     Delta-E=       -0.000000000007 Rises=F Damp=F
 DIIS: error= 1.11D-08 at cycle  15 NSaved=  15.
 NSaved=15 IEnMin=15 EnMin= -1019.66262536662     IErMin=15 ErrMin= 1.11D-08
 ErrMax= 1.11D-08  0.00D+00 EMaxC= 1.00D-01 BMatC= 1.69D-13 BMatP= 1.27D-12
 IDIUse=1 WtCom= 1.00D+00 WtEn= 0.00D+00
 Coeff-Com:  0.778D-07-0.518D-06-0.203D-05-0.609D-05-0.510D-05 0.909D-05
 Coeff-Com:  0.153D-03 0.293D-03 0.199D-03-0.146D-02-0.145D-01-0.217D-01
 Coeff-Com:  0.106D-01 0.278D+00 0.749D+00
 Coeff:      0.778D-07-0.518D-06-0.203D-05-0.609D-05-0.510D-05 0.909D-05
 Coeff:      0.153D-03 0.293D-03 0.199D-03-0.146D-02-0.145D-01-0.217D-01
 Coeff:      0.106D-01 0.278D+00 0.749D+00
 Gap=     0.153 Goal=   None    Shift=    0.000
 RMSDP=4.77D-09 MaxDP=4.33D-07 DE=-7.28D-12 OVMax= 1.54D-07

 Error on total polarization charges =  0.06958
 SCF Done:  E(RM06) =  -1019.66262537     A.U. after   15 cycles
            NFock= 15  Conv=0.48D-08     -V/T= 2.0059
 KE= 1.013646627768D+03 PE=-6.820008492570D+03 EE= 2.559875484412D+03
 SMD-CDS (non-electrostatic) energy       (kcal/mol) =      -3.27
 (included in total energy above)
 Leave Link  502 at Fri Feb 19 12:33:56 2021, MaxMem=  5242880000 cpu:     22137.2
 (Enter /opt/nce/packages/global/g09/l601.exe)
 Copying SCF densities to generalized density rwf, IOpCl= 0 IROHF=0.

 **********************************************************************

            Population analysis using the SCF density.

 **********************************************************************

 Alpha  occ. eigenvalues --  -14.42546 -10.28835 -10.28833 -10.28392 -10.26419
 Alpha  occ. eigenvalues --  -10.25846 -10.25794 -10.24785 -10.24743 -10.24707
 Alpha  occ. eigenvalues --  -10.24706 -10.24647 -10.24572 -10.24559 -10.24495
 Alpha  occ. eigenvalues --  -10.24432 -10.23900 -10.23899 -10.23830 -10.23830
 Alpha  occ. eigenvalues --  -10.23601 -10.23600 -10.23192 -10.23192 -10.22331
 Alpha  occ. eigenvalues --  -10.22274  -0.99151  -0.89083  -0.86692  -0.86635
 Alpha  occ. eigenvalues --   -0.83495  -0.82042  -0.78744  -0.76746  -0.75690
 Alpha  occ. eigenvalues --   -0.75364  -0.74317  -0.73531  -0.71253  -0.69089
 Alpha  occ. eigenvalues --   -0.65248  -0.63696  -0.63671  -0.62992  -0.61756
 Alpha  occ. eigenvalues --   -0.60220  -0.58064  -0.55295  -0.55189  -0.54068
 Alpha  occ. eigenvalues --   -0.52708  -0.51105  -0.49772  -0.47862  -0.47485
 Alpha  occ. eigenvalues --   -0.46864  -0.46607  -0.46302  -0.44593  -0.44449
 Alpha  occ. eigenvalues --   -0.44016  -0.43407  -0.43118  -0.42863  -0.42647
 Alpha  occ. eigenvalues --   -0.41265  -0.40716  -0.40255  -0.39826  -0.38916
 Alpha  occ. eigenvalues --   -0.38830  -0.37902  -0.37592  -0.37427  -0.35873
 Alpha  occ. eigenvalues --   -0.35830  -0.35141  -0.34889  -0.34701  -0.33487
 Alpha  occ. eigenvalues --   -0.33213  -0.32429  -0.30268  -0.27274  -0.26383
 Alpha  occ. eigenvalues --   -0.26074  -0.25861  -0.23603  -0.20463
 Alpha virt. eigenvalues --   -0.05136  -0.02528  -0.01678  -0.01206  -0.00092
 Alpha virt. eigenvalues --    0.01625   0.02534   0.03612   0.05073   0.05677
 Alpha virt. eigenvalues --    0.06088   0.06177   0.06617   0.07666   0.07902
 Alpha virt. eigenvalues --    0.08194   0.08220   0.08599   0.09892   0.09902
 Alpha virt. eigenvalues --    0.10009   0.10498   0.11643   0.11934   0.12024
 Alpha virt. eigenvalues --    0.12189   0.12874   0.13035   0.13670   0.14764
 Alpha virt. eigenvalues --    0.15678   0.15906   0.16207   0.16640   0.17388
 Alpha virt. eigenvalues --    0.17525   0.17753   0.17883   0.18097   0.18514
 Alpha virt. eigenvalues --    0.19212   0.19312   0.19958   0.20219   0.20799
 Alpha virt. eigenvalues --    0.21272   0.21449   0.21877   0.21994   0.22383
 Alpha virt. eigenvalues --    0.22405   0.23037   0.23604   0.24062   0.24121
 Alpha virt. eigenvalues --    0.24181   0.24279   0.25298   0.25378   0.26523
 Alpha virt. eigenvalues --    0.26656   0.26964   0.27044   0.27558   0.27784
 Alpha virt. eigenvalues --    0.27808   0.27968   0.28760   0.29255   0.29462
 Alpha virt. eigenvalues --    0.29857   0.30564   0.31032   0.31257   0.31566
 Alpha virt. eigenvalues --    0.31753   0.31883   0.31925   0.32642   0.33096
 Alpha virt. eigenvalues --    0.33329   0.34113   0.34599   0.34634   0.34950
 Alpha virt. eigenvalues --    0.34965   0.35210   0.35641   0.35780   0.36112
 Alpha virt. eigenvalues --    0.36326   0.36559   0.36636   0.37002   0.37444
 Alpha virt. eigenvalues --    0.37715   0.37967   0.38237   0.38332   0.38656
 Alpha virt. eigenvalues --    0.38934   0.39220   0.39344   0.39468   0.39845
 Alpha virt. eigenvalues --    0.40392   0.40767   0.41371   0.41553   0.41965
 Alpha virt. eigenvalues --    0.42863   0.43393   0.43984   0.44061   0.44506
 Alpha virt. eigenvalues --    0.44589   0.44835   0.45863   0.46145   0.46387
 Alpha virt. eigenvalues --    0.46786   0.46845   0.47097   0.47437   0.47832
 Alpha virt. eigenvalues --    0.48513   0.48634   0.48921   0.49174   0.49587
 Alpha virt. eigenvalues --    0.50283   0.50714   0.50860   0.51571   0.51819
 Alpha virt. eigenvalues --    0.52427   0.53639   0.54159   0.54571   0.55300
 Alpha virt. eigenvalues --    0.55906   0.56538   0.56946   0.57066   0.57747
 Alpha virt. eigenvalues --    0.58218   0.58967   0.59553   0.60117   0.61095
 Alpha virt. eigenvalues --    0.61831   0.63100   0.63258   0.63762   0.63848
 Alpha virt. eigenvalues --    0.64032   0.64309   0.65549   0.65823   0.66216
 Alpha virt. eigenvalues --    0.66430   0.66649   0.66820   0.67434   0.67499
 Alpha virt. eigenvalues --    0.68060   0.68070   0.69316   0.69407   0.70217
 Alpha virt. eigenvalues --    0.70289   0.70804   0.70816   0.71507   0.72488
 Alpha virt. eigenvalues --    0.72780   0.72978   0.73423   0.74176   0.74892
 Alpha virt. eigenvalues --    0.74976   0.75485   0.76075   0.76414   0.76946
 Alpha virt. eigenvalues --    0.77528   0.78312   0.79083   0.79893   0.80140
 Alpha virt. eigenvalues --    0.80713   0.81886   0.82100   0.83322   0.83698
 Alpha virt. eigenvalues --    0.83773   0.84071   0.84199   0.84470   0.85095
 Alpha virt. eigenvalues --    0.86076   0.86383   0.86762   0.87548   0.88010
 Alpha virt. eigenvalues --    0.88452   0.89202   0.89499   0.90859   0.91464
 Alpha virt. eigenvalues --    0.91521   0.92010   0.93173   0.93836   0.94717
 Alpha virt. eigenvalues --    0.94943   0.95581   0.96133   0.96904   0.97324
[...]
     6  C   -0.000063   0.000018  -0.000055   0.000050  -0.000043   0.000007
     7  C    0.000484   0.000331  -0.000676  -0.000047   0.001787   0.000020
     8  C   -0.002620  -0.001078   0.000872   0.000504  -0.000892   0.000011
     9  C    0.001037  -0.000887   0.000238  -0.003078  -0.004194  -0.000105
    10  C    0.014999   0.007366  -0.002952  -0.001289  -0.001837   0.001054
    11  H    0.000316   0.001066  -0.000168   0.000431   0.000155   0.000111
    12  C    0.001067   0.000039   0.000024   0.000066  -0.000001  -0.000008
    13  C   -0.000063   0.000018  -0.000055   0.000050  -0.000043   0.000007
    14  C    0.000035  -0.000035   0.000111  -0.000014   0.000047  -0.000008
    15  H    0.000316   0.001066  -0.000168   0.000431   0.000155   0.000111
    16  H    0.000000   0.000000   0.000000  -0.000001  -0.000002  -0.000000
    17  H   -0.000000  -0.000000  -0.000000  -0.000000  -0.000001   0.000000
    18  H    0.000004   0.000000   0.000004   0.000001   0.000003  -0.000003
    19  H   -0.000000  -0.000000  -0.000000  -0.000000  -0.000001   0.000000
    20  N    0.022414   0.019179  -0.010968   0.002004  -0.002982  -0.000095
    21  C    0.138518   0.234603  -0.102519   0.020105   0.007458   0.026692
    22  C   -0.514943  -0.341940   0.045227   0.051304  -0.098488   0.045419
    23  C   -0.296966  -0.013766   0.522139   0.001387  -0.000644  -0.003709
    24  C    0.061666  -0.017156   0.000976   0.328710   0.437706  -0.157921
    25  C    5.989372   0.250827  -0.012570  -0.138625   0.006748   0.306602
    26  C    0.250827   5.380783  -0.100903  -0.000547  -0.000153   0.007721
    27  H   -0.012570  -0.100903   0.523514  -0.000029   0.000042  -0.000122
    28  C   -0.138625  -0.000547  -0.000029   5.153467   0.000421   0.078183
    29  H    0.006748  -0.000153   0.000042   0.000421   0.465414  -0.001881
    30  C    0.306602   0.007721  -0.000122   0.078183  -0.001881   5.183528
    31  C    0.112194   0.154045   0.026046  -0.002831   0.000371  -0.125417
    32  H    0.027194   0.517338  -0.007969   0.000006  -0.000000  -0.000240
    33  C    0.120368   0.000271   0.000031   0.227542   0.007583   0.312889
    34  H   -0.003510   0.000028  -0.000001   0.481771  -0.005707   0.017083
    35  H   -0.070896  -0.003685  -0.000001   0.013605  -0.000017   0.439418
    36  H   -0.074283  -0.081719   0.000080   0.000827  -0.000004  -0.006717
    37  H    0.020225   0.000008   0.000000  -0.085102  -0.000036  -0.092172
    38  H    0.000000   0.000000   0.000000  -0.000001  -0.000002  -0.000000
    39  H    0.000004   0.000000   0.000004   0.000001   0.000003  -0.000003
    40  C    0.000006   0.000005  -0.000012  -0.000007   0.000075   0.000000
    41  H   -0.000001  -0.000002   0.000026   0.000000  -0.000005  -0.000000
    42  H   -0.000000   0.000000  -0.000000   0.000000  -0.000001   0.000000
    43  H   -0.000000   0.000000  -0.000000   0.000000  -0.000001   0.000000
    44  C    0.000001  -0.000005   0.000009   0.000121   0.001428  -0.000001
    45  H    0.000000   0.000000   0.000000  -0.000003  -0.000019  -0.000000
    46  H    0.000002   0.000001  -0.000001   0.000014   0.002004   0.000001
    47  H    0.000000   0.000000   0.000000  -0.000003  -0.000019  -0.000000
              31         32         33         34         35         36
     1  C   -0.000217   0.000003   0.000016  -0.000001  -0.000001  -0.000003
     2  C   -0.005240   0.000143  -0.000605   0.000110  -0.000008  -0.000071
     3  C    0.001801  -0.000100  -0.000352   0.000106   0.000001   0.000021
     4  C    0.000263  -0.000008  -0.000027   0.000009   0.000001   0.000002
     5  C    0.000022   0.000000   0.000010  -0.000005  -0.000000  -0.000000
     6  C   -0.000012  -0.000000  -0.000006   0.000001   0.000000   0.000000
     7  C   -0.000150   0.000002  -0.000019   0.000012   0.000000  -0.000000
     8  C    0.000263  -0.000008  -0.000027   0.000009   0.000001   0.000002
     9  C    0.001802  -0.000100  -0.000352   0.000106   0.000001   0.000021
    10  C   -0.005240   0.000143  -0.000605   0.000110  -0.000008  -0.000071
    11  H   -0.001573  -0.000005  -0.000115   0.000001   0.000008   0.000020
    12  C   -0.000217   0.000003   0.000016  -0.000001  -0.000001  -0.000003
    13  C   -0.000012  -0.000000  -0.000006   0.000001   0.000000   0.000000
    14  C    0.000022   0.000000   0.000010  -0.000005  -0.000000  -0.000000
    15  H   -0.001572  -0.000005  -0.000115   0.000001   0.000008   0.000020
    16  H    0.000000  -0.000000   0.000000  -0.000000  -0.000000  -0.000000
    17  H    0.000000  -0.000000  -0.000000   0.000000   0.000000   0.000000
    18  H    0.000006   0.000000   0.000001  -0.000000  -0.000000  -0.000000
    19  H    0.000000  -0.000000  -0.000000   0.000000   0.000000   0.000000
    20  N   -0.003291  -0.000350   0.000114  -0.000019   0.000002  -0.000017
    21  C   -0.340707   0.030741  -0.013683  -0.000808  -0.000474  -0.008451
    22  C    0.286515  -0.011923  -0.187203   0.024413   0.050779   0.050302
    23  C    0.222880  -0.099613  -0.000169  -0.000058   0.001033   0.019576
    24  C    0.036574   0.000024   0.117307  -0.080476  -0.007763  -0.000885
    25  C    0.112194   0.027194   0.120368  -0.003510  -0.070896  -0.074283
    26  C    0.154045   0.517338   0.000271   0.000028  -0.003685  -0.081719
    27  H    0.026046  -0.007969   0.000031  -0.000001  -0.000001   0.000080
    28  C   -0.002831   0.000006   0.227542   0.481771   0.013605   0.000827
    29  H    0.000371  -0.000000   0.007583  -0.005707  -0.000017  -0.000004
    30  C   -0.125417  -0.000240   0.312889   0.017083   0.439418  -0.006717
    31  C    5.366331  -0.107874   0.008797  -0.000038  -0.008013   0.448795
    32  H   -0.107874   0.536710   0.000002   0.000000  -0.000046  -0.007984
    33  C    0.008797   0.000002   5.195888  -0.080849  -0.070733  -0.003245
    34  H   -0.000038   0.000000  -0.080849   0.529279  -0.000050  -0.000003
    35  H   -0.008013  -0.000046  -0.070733  -0.000050   0.531986   0.013127
    36  H    0.448795  -0.007984  -0.003245  -0.000003   0.013127   0.535499
    37  H   -0.000434  -0.000000   0.496826  -0.007471  -0.006913  -0.000054
    38  H    0.000000  -0.000000   0.000000  -0.000000  -0.000000  -0.000000
    39  H    0.000006   0.000000   0.000001  -0.000000  -0.000000  -0.000000
    40  C   -0.000000  -0.000000  -0.000000   0.000000  -0.000000  -0.000000
    41  H    0.000000  -0.000000   0.000000  -0.000000   0.000000   0.000000
    42  H   -0.000000   0.000000  -0.000000   0.000000   0.000000  -0.000000
    43  H   -0.000000   0.000000  -0.000000   0.000000   0.000000  -0.000000
    44  C    0.000001   0.000000   0.000003  -0.000007  -0.000000  -0.000000
    45  H   -0.000000  -0.000000   0.000000   0.000000  -0.000000   0.000000
    46  H   -0.000001  -0.000000  -0.000002   0.000010   0.000000   0.000000
    47  H   -0.000000  -0.000000   0.000000   0.000000  -0.000000   0.000000
              37         38         39         40         41         42
     1  C    0.000000   0.000003   0.483170  -0.001502  -0.000031   0.000221
     2  C   -0.000003  -0.000006  -0.079151   0.003997  -0.000157  -0.000167
     3  C    0.000001   0.000418   0.020824   0.010442   0.004275   0.002440
     4  C   -0.000000   0.000985  -0.005050  -0.122764  -0.025373  -0.024582
     5  C    0.000000  -0.000009   0.019675  -0.043696  -0.002797   0.002279
     6  C   -0.000000  -0.000007  -0.083776   0.003765  -0.000084  -0.001256
     7  C   -0.000000  -0.008147  -0.000022   0.258153  -0.002145  -0.050018
     8  C   -0.000000  -0.106485  -0.000003  -0.122756  -0.025373   0.028294
     9  C    0.000001   0.031868   0.000023   0.010443   0.004275  -0.000447
    10  C   -0.000003  -0.006795   0.000001   0.003996  -0.000157  -0.000028
    11  H   -0.000001  -0.000033  -0.000000   0.000038  -0.000000  -0.000000
    12  C    0.000000   0.012514   0.000000  -0.001502  -0.000031   0.000005
    13  C   -0.000000  -0.033661  -0.000000   0.003763  -0.000084  -0.000037
    14  C    0.000000   0.456371   0.000000  -0.043694  -0.002797   0.000839
    15  H   -0.000001  -0.000000  -0.005170   0.000038  -0.000000  -0.000001
    16  H    0.000000   0.000008  -0.000090  -0.000809   0.000263   0.005753
    17  H   -0.000000  -0.000000  -0.007874   0.000000   0.000002  -0.000020
    18  H    0.000000  -0.000090  -0.000000  -0.000006  -0.000001   0.000000
    19  H   -0.000000  -0.005164   0.000000   0.000000   0.000002  -0.000001
    20  N   -0.000000  -0.000033  -0.000211  -0.007561   0.000069   0.000061
    21  C    0.000058   0.000029   0.000193  -0.001658   0.000231   0.000013
    22  C   -0.007291   0.000006  -0.000016   0.000270  -0.000002  -0.000003
    23  C   -0.000001  -0.000001   0.000021   0.000007  -0.000024   0.000001
    24  C    0.022918  -0.000007   0.000115  -0.000204   0.000007   0.000002
    25  C    0.020225   0.000000   0.000004   0.000006  -0.000001  -0.000000
    26  C    0.000008   0.000000   0.000000   0.000005  -0.000002   0.000000
    27  H    0.000000   0.000000   0.000004  -0.000012   0.000026  -0.000000
    28  C   -0.085102  -0.000001   0.000001  -0.000007   0.000000   0.000000
    29  H   -0.000036  -0.000002   0.000003   0.000075  -0.000005  -0.000001
    30  C   -0.092172  -0.000000  -0.000003   0.000000  -0.000000   0.000000
    31  C   -0.000434   0.000000   0.000006  -0.000000   0.000000  -0.000000
    32  H   -0.000000  -0.000000   0.000000  -0.000000  -0.000000   0.000000
    33  C    0.496826   0.000000   0.000001  -0.000000   0.000000  -0.000000
    34  H   -0.007471  -0.000000  -0.000000   0.000000  -0.000000   0.000000
    35  H   -0.006913  -0.000000  -0.000000  -0.000000   0.000000   0.000000
    36  H   -0.000054  -0.000000  -0.000000  -0.000000   0.000000  -0.000000
    37  H    0.532506   0.000000   0.000000  -0.000000   0.000000  -0.000000
    38  H    0.000000   0.507535   0.000000  -0.000809   0.000263  -0.000169
    39  H    0.000000   0.000000   0.534779  -0.000006  -0.000001   0.000000
    40  C   -0.000000  -0.000809  -0.000006   5.301406   0.402440   0.416985
    41  H    0.000000   0.000263  -0.000001   0.402440   0.550697  -0.022970
    42  H   -0.000000  -0.000169   0.000000   0.416985  -0.022970   0.549250
    43  H   -0.000000   0.005753   0.000000   0.416985  -0.022970  -0.024110
    44  C    0.000000   0.000209  -0.000004  -0.107447   0.013539  -0.009460
    45  H    0.000000  -0.000087   0.000000  -0.009604  -0.000188   0.000744
    46  H   -0.000000   0.000012  -0.000003   0.014255  -0.000282  -0.000193
    47  H    0.000000   0.004706   0.000000  -0.009605  -0.000188   0.000284
              43         44         45         46         47
     1  C    0.000005  -0.000081   0.000223  -0.000395   0.000016
     2  C   -0.000028   0.000065  -0.000160   0.001041  -0.000050
     3  C   -0.000447  -0.008793   0.002715   0.000947   0.000310
     4  C    0.028295  -0.085494  -0.022922  -0.028491   0.025673
     5  C    0.000839  -0.024621  -0.000113  -0.003747   0.000687
     6  C   -0.000037   0.000552  -0.001666   0.000725  -0.000079
     7  C   -0.050020   0.177679  -0.045596   0.018955  -0.045596
     8  C   -0.024579  -0.085490   0.025673  -0.028490  -0.022922
     9  C    0.002439  -0.008794   0.000311   0.000948   0.002713
    10  C   -0.000167   0.000065  -0.000050   0.001041  -0.000160
    11  H   -0.000001   0.000013  -0.000001   0.000012  -0.000001
    12  C    0.000221  -0.000081   0.000016  -0.000395   0.000223
    13  C   -0.001256   0.000552  -0.000079   0.000725  -0.001666
    14  C    0.002280  -0.024623   0.000687  -0.003748  -0.000111
    15  H   -0.000000   0.000013  -0.000001   0.000012  -0.000001
    16  H   -0.000169   0.000209   0.004705   0.000012  -0.000087
    17  H   -0.000001  -0.000049  -0.000016   0.000008  -0.000002
    18  H    0.000000  -0.000004   0.000000  -0.000003   0.000000
    19  H   -0.000020  -0.000049  -0.000002   0.000008  -0.000016
    20  N    0.000061   0.008352  -0.000105  -0.001851  -0.000105
    21  C    0.000013   0.001538  -0.000015  -0.000129  -0.000015
    22  C   -0.000003  -0.000596   0.000011  -0.000009   0.000011
    23  C    0.000001  -0.000012  -0.000001  -0.000001  -0.000001
    24  C    0.000002  -0.001290   0.000008   0.000080   0.000008
    25  C   -0.000000   0.000001   0.000000   0.000002   0.000000
    26  C    0.000000  -0.000005   0.000000   0.000001   0.000000
    27  H   -0.000000   0.000009   0.000000  -0.000001   0.000000
    28  C    0.000000   0.000121  -0.000003   0.000014  -0.000003
    29  H   -0.000001   0.001428  -0.000019   0.002004  -0.000019
    30  C    0.000000  -0.000001  -0.000000   0.000001  -0.000000
    31  C   -0.000000   0.000001  -0.000000  -0.000001  -0.000000
    32  H    0.000000   0.000000  -0.000000  -0.000000  -0.000000
    33  C   -0.000000   0.000003   0.000000  -0.000002   0.000000
    34  H    0.000000  -0.000007   0.000000   0.000010   0.000000
    35  H    0.000000  -0.000000  -0.000000   0.000000  -0.000000
    36  H   -0.000000  -0.000000   0.000000   0.000000   0.000000
    37  H   -0.000000   0.000000   0.000000  -0.000000   0.000000
    38  H    0.005753   0.000209  -0.000087   0.000012   0.004706
    39  H    0.000000  -0.000004   0.000000  -0.000003   0.000000
    40  C    0.416985  -0.107447  -0.009604   0.014255  -0.009605
    41  H   -0.022970   0.013539  -0.000188  -0.000282  -0.000188
    42  H   -0.024110  -0.009460   0.000744  -0.000193   0.000284
    43  H    0.549250  -0.009461   0.000284  -0.000193   0.000744
    44  C   -0.009461   5.296921   0.415543   0.397418   0.415545
    45  H    0.000284   0.415543   0.551005  -0.023062  -0.024157
    46  H   -0.000193   0.397418  -0.023062   0.547045  -0.023062
    47  H    0.000744   0.415545  -0.024157  -0.023062   0.551004
 Mulliken charges:
               1
     1  C   -0.114924
     2  C   -0.248418
     3  C    0.252904
     4  C   -0.211321
     5  C   -0.124581
     6  C   -0.205623
     7  C    0.138815
     8  C   -0.211341
     9  C    0.252921
    10  C   -0.248432
    11  H    0.164725
    12  C   -0.114920
    13  C   -0.205620
    14  C   -0.124570
    15  H    0.164723
    16  H    0.140822
    17  H    0.115236
    18  H    0.122560
    19  H    0.115236
    20  N    0.074120
    21  C   -0.000012
    22  C   -0.237341
    23  C   -0.180926
    24  C   -0.184934
    25  C    0.025627
    26  C   -0.018240
    27  H    0.121535
    28  C   -0.125611
    29  H    0.192456
    30  C   -0.031399
    31  C   -0.063896
    32  H    0.123920
    33  C   -0.129563
    34  H    0.125954
    35  H    0.118640
    36  H    0.115217
    37  H    0.126939
    38  H    0.140823
    39  H    0.122560
    40  C   -0.373427
    41  H    0.129576
    42  H    0.126293
    43  H    0.126292
    44  C   -0.363416
    45  H    0.125921
    46  H    0.128780
    47  H    0.125921
 Sum of Mulliken charges =  -0.00000
 Mulliken charges with hydrogens summed into heavy atoms:
               1
     1  C    0.007636
     2  C   -0.083695
     3  C    0.252904
     4  C   -0.211321
     5  C    0.016241
     6  C   -0.090387
     7  C    0.138815
     8  C   -0.211341
     9  C    0.252921
    10  C   -0.083707
    12  C    0.007640
    13  C   -0.090384
    14  C    0.016253
    20  N    0.074120
    21  C   -0.000012
    22  C   -0.237341
    23  C   -0.059391
    24  C    0.007522
    25  C    0.025627
    26  C    0.105680
    28  C    0.000343
    30  C    0.087240
    31  C    0.051321
    33  C   -0.002624
    40  C    0.008734
    44  C    0.017206
 Electronic spatial extent (au):  <R**2>=           7927.5059
 Charge=              0.0000 electrons
 Dipole moment (field-independent basis, Debye):
    X=              1.2844    Y=             -0.0000    Z=              0.0211  Tot=              1.2845
 Quadrupole moment (field-independent basis, Debye-Ang):
   XX=           -128.9140   YY=           -151.7401   ZZ=           -146.0284
   XY=             -0.0001   XZ=             -5.4058   YZ=              0.0004
 Traceless Quadrupole moment (field-independent basis, Debye-Ang):
   XX=             13.3135   YY=             -9.5126   ZZ=             -3.8009
   XY=             -0.0001   XZ=             -5.4058   YZ=              0.0004
 Octapole moment (field-independent basis, Debye-Ang**2):
  XXX=             41.5842  YYY=              0.0004  ZZZ=              2.9212  XYY=            -22.0239
  XXY=             -0.0007  XXZ=             13.9209  XZZ=             38.5581  YZZ=             -0.0002
  YYZ=             -2.5503  XYZ=              0.0007
 Hexadecapole moment (field-independent basis, Debye-Ang**3):
 XXXX=          -5701.5797 YYYY=          -2980.0810 ZZZZ=          -1372.6085 XXXY=             -0.0029
 XXXZ=            -49.6665 YYYX=              0.0037 YYYZ=             -0.0013 ZZZX=             13.9811
 ZZZY=              0.0064 XXYY=          -1602.1746 XXZZ=          -1223.4490 YYZZ=           -881.6038
 XXYZ=              0.0026 YYXZ=            -47.0724 ZZXY=             -0.0008
 N-N= 2.244400544230D+03 E-N=-6.855967129067D+03  KE= 1.014647308798D+03
 Leave Link  601 at Sat Feb 20 06:45:22 2021, MaxMem=  5242880000 cpu:        14.1
 (Enter /opt/nce/packages/global/g09/l9999.exe)
 1\1\GINC-CN044\SP\RM06 TD-FC\Gen\C25H21N1\PNG4RJV\20-Feb-2021\0\\#p m0
 6 chkbasis geom=allcheck Guess=Read int=ultrafine scrf=(SMD,solvent=n,
 n-DiMethylFormamide) td=(NStates=30)\\Title\\0,1\C,0,-0.6928649981,-3.
 6355345559,-0.4198676806\C,0,-0.0708148916,-2.4167493217,-0.593820681\
 C,0,-0.7632400501,-1.216973975,-0.3924701106\C,0,-2.1070014235,-1.2552
 665272,-0.0028539923\C,0,-2.703791588,-2.5010516605,0.1628319613\C,0,-
 2.0229288639,-3.6868979884,-0.0396704751\C,0,-2.920521397,0.0002214493
 ,0.2645028283\C,0,-2.1068226012,1.2555507298,-0.0030813775\C,0,-0.7630
 666332,1.2169938267,-0.3926900823\C,0,-0.0704593289,2.4166292011,-0.59
 42437074\H,0,0.969356704,2.3908732162,-0.8948812866\C,0,-0.6923249495,
 3.6355377575,-0.4205004262\C,0,-2.0223802053,3.6871653599,-0.040309469
 8\C,0,-2.7034209316,2.5014561721,0.1623983836\H,0,0.9690023329,-2.3912
 031519,-0.8944709329\H,0,-3.7435412215,-2.5453369901,0.468886319\H,0,-
 2.5251499279,-4.6366830181,0.1012860045\H,0,-0.129402404,4.5474921685,
 -0.5851920719\H,0,-2.5244573111,4.6370500007,0.1004886669\N,0,-0.10724
 63461,-0.0000529968,-0.5798354442\C,0,1.2930041562,-0.0001684238,-0.85
 19144571\C,0,2.2066779832,-0.0001141354,0.2315375294\C,0,1.7370937141,
 -0.0003151059,-2.1432621755\C,0,1.7891997082,0.0000476607,1.5800550587
 \C,0,3.5968681788,-0.0002246122,-0.0593337864\C,0,3.1140368043,-0.0004
 245797,-2.4249237463\H,0,1.0103695326,-0.0003481662,-2.9489369075\C,0,
 2.7078272925,0.000092365,2.5913394298\H,0,0.7276173362,0.0001367479,1.
 8063164572\C,0,4.5175278999,-0.0001726573,1.0105744583\C,0,4.021615842
 7,-0.000380851,-1.4053534787\H,0,3.4477508958,-0.0005432344,-3.4559307
 327\C,0,4.085276038,-0.0000191628,2.3055360187\H,0,2.375566302,0.00021
 54678,3.6232077004\H,0,5.5779984613,-0.0002575106,0.7793851129\H,0,5.0
 871422151,-0.0004621146,-1.6116143449\H,0,4.8014365313,0.0000192643,3.
 119339864\H,0,-3.7431605109,2.545955089,0.4684525447\H,0,-0.1300808682
 ,-4.5476020746,-0.5844059381\C,0,-4.1630085544,0.000213444,-0.63235353
 04\H,0,-3.8792821105,0.0001371792,-1.6881958624\H,0,-4.7828509278,-0.8
 794645179,-0.4467142129\H,0,-4.7827841275,0.8799605303,-0.446823594\C,
 0,-3.3567283984,0.0003753732,1.7345438841\H,0,-3.9585124146,-0.8816047
 823,1.9660451639\H,0,-2.4845236556,0.0004172407,2.3951904336\H,0,-3.95
 84682888,0.8824298704,1.9658746857\\Version=ES64L-G09RevE.01\State=1-A
 \HF=-1019.6669834\RMSD=5.694e-09\PG=C01 [X(C25H21N1)]\\@


 A MAN IS EXACTLY AS GREAT AS THE TIDE SURGING
 BENEATH HIM.      - BISMARCK
 Job cpu time:       2 days  5 hours 39 minutes 37.7 seconds.
 File lengths (MBytes):  RWF=   4280 Int=      0 D2E=      0 Chk=    774 Scr=      1
 Normal termination of Gaussian 09 at Sat Feb 20 06:45:25 2021.
