
                                 *****************
                                 * O   R   C   A *
                                 *****************

                                            #,                                       
                                            ###                                      
                                            ####                                     
                                            #####                                    
                                            ######                                   
                                           ########,                                 
                                     ,,################,,,,,                         
                               ,,#################################,,                 
                          ,,##########################################,,             
                       ,#########################################, ''#####,          
                    ,#############################################,,   '####,        
                  ,##################################################,,,,####,       
                ,###########''''           ''''###############################       
              ,#####''   ,,,,##########,,,,          '''####'''          '####       
            ,##' ,,,,###########################,,,                        '##       
           ' ,,###''''                  '''############,,,                           
         ,,##''                                '''############,,,,        ,,,,,,###''
      ,#''                                            '''#######################'''  
     '                                                          ''''####''''         
             ,#######,   #######,   ,#######,      ##                                
            ,#'     '#,  ##    ##  ,#'     '#,    #''#        ######   ,####,        
            ##       ##  ##   ,#'  ##            #'  '#       #        #'  '#        
            ##       ##  #######   ##           ,######,      #####,   #    #        
            '#,     ,#'  ##    ##  '#,     ,#' ,#      #,         ##   #,  ,#        
             '#######'   ##     ##  '#######'  #'      '#     #####' # '####'        



                  #######################################################
                  #                        -***-                        #
                  #          Department of theory and spectroscopy      #
                  #    Directorship and core code : Frank Neese         #
                  #        Max Planck Institute fuer Kohlenforschung    #
                  #                Kaiser Wilhelm Platz 1               #
                  #                 D-45470 Muelheim/Ruhr               #
                  #                      Germany                        #
                  #                                                     #
                  #                  All rights reserved                #
                  #                        -***-                        #
                  #######################################################


                         Program Version 5.0.2 -  RELEASE  -


 With contributions from (in alphabetic order):
   Daniel Aravena         : Magnetic Suceptibility
   Michael Atanasov       : Ab Initio Ligand Field Theory (pilot matlab implementation)
   Alexander A. Auer      : GIAO ZORA, VPT2 properties, NMR spectrum
   Ute Becker             : Parallelization
   Giovanni Bistoni       : ED, misc. LED, open-shell LED, HFLD
   Martin Brehm           : Molecular dynamics
   Dmytro Bykov           : SCF Hessian
   Vijay G. Chilkuri      : MRCI spin determinant printing, contributions to CSF-ICE
   Dipayan Datta          : RHF DLPNO-CCSD density
   Achintya Kumar Dutta   : EOM-CC, STEOM-CC
   Dmitry Ganyushin       : Spin-Orbit,Spin-Spin,Magnetic field MRCI
   Miquel Garcia          : C-PCM and meta-GGA Hessian, CC/C-PCM, Gaussian charge scheme
   Yang Guo               : DLPNO-NEVPT2, F12-NEVPT2, CIM, IAO-localization
   Andreas Hansen         : Spin unrestricted coupled pair/coupled cluster methods
   Benjamin Helmich-Paris : MC-RPA, TRAH-SCF, COSX integrals
   Lee Huntington         : MR-EOM, pCC
   Robert Izsak           : Overlap fitted RIJCOSX, COSX-SCS-MP3, EOM
   Marcus Kettner         : VPT2
   Christian Kollmar      : KDIIS, OOCD, Brueckner-CCSD(T), CCSD density, CASPT2, CASPT2-K
   Simone Kossmann        : Meta GGA functionals, TD-DFT gradient, OOMP2, MP2 Hessian
   Martin Krupicka        : Initial AUTO-CI
   Lucas Lang             : DCDCAS
   Marvin Lechner         : AUTO-CI (C++ implementation), FIC-MRCC
   Dagmar Lenk            : GEPOL surface, SMD
   Dimitrios Liakos       : Extrapolation schemes; Compound Job, initial MDCI parallelization
   Dimitrios Manganas     : Further ROCIS development; embedding schemes
   Dimitrios Pantazis     : SARC Basis sets
   Anastasios Papadopoulos: AUTO-CI, single reference methods and gradients
   Taras Petrenko         : DFT Hessian,TD-DFT gradient, ASA, ECA, R-Raman, ABS, FL, XAS/XES, NRVS
   Peter Pinski           : DLPNO-MP2, DLPNO-MP2 Gradient
   Christoph Reimann      : Effective Core Potentials
   Marius Retegan         : Local ZFS, SOC
   Christoph Riplinger    : Optimizer, TS searches, QM/MM, DLPNO-CCSD(T), (RO)-DLPNO pert. Triples
   Tobias Risthaus        : Range-separated hybrids, TD-DFT gradient, RPA, STAB
   Michael Roemelt        : Original ROCIS implementation
   Masaaki Saitow         : Open-shell DLPNO-CCSD energy and density
   Barbara Sandhoefer     : DKH picture change effects
   Avijit Sen             : IP-ROCIS
   Kantharuban Sivalingam : CASSCF convergence, NEVPT2, FIC-MRCI
   Bernardo de Souza      : ESD, SOC TD-DFT
   Georgi Stoychev        : AutoAux, RI-MP2 NMR, DLPNO-MP2 response
   Willem Van den Heuvel  : Paramagnetic NMR
   Boris Wezisla          : Elementary symmetry handling
   Frank Wennmohs         : Technical directorship


 We gratefully acknowledge several colleagues who have allowed us to
 interface, adapt or use parts of their codes:
   Stefan Grimme, W. Hujo, H. Kruse, P. Pracht,  : VdW corrections, initial TS optimization,
                  C. Bannwarth, S. Ehlert          DFT functionals, gCP, sTDA/sTD-DF
   Ed Valeev, F. Pavosevic, A. Kumar             : LibInt (2-el integral package), F12 methods
   Garnet Chan, S. Sharma, J. Yang, R. Olivares  : DMRG
   Ulf Ekstrom                                   : XCFun DFT Library
   Mihaly Kallay                                 : mrcc  (arbitrary order and MRCC methods)
   Jiri Pittner, Ondrej Demel                    : Mk-CCSD
   Frank Weinhold                                : gennbo (NPA and NBO analysis)
   Christopher J. Cramer and Donald G. Truhlar   : smd solvation model
   Lars Goerigk                                  : TD-DFT with DH, B97 family of functionals
   V. Asgeirsson, H. Jonsson                     : NEB implementation
   FAccTs GmbH                                   : IRC, NEB, NEB-TS, DLPNO-Multilevel, CI-OPT
                                                   MM, QMMM, 2- and 3-layer-ONIOM, Crystal-QMMM,
                                                   LR-CPCM, SF, NACMEs, symmetry and pop. for TD-DFT,
                                                   nearIR, NL-DFT gradient (VV10), updates on ESD,
                                                   ML-optimized integration grids
   S Lehtola, MJT Oliveira, MAL Marques          : LibXC Library
   Liviu Ungur et al                             : ANISO software


 Your calculation uses the libint2 library for the computation of 2-el integrals
 For citations please refer to: http://libint.valeyev.net

 Your ORCA version has been built with support for libXC version: 5.1.0
 For citations please refer to: https://tddft.org/programs/libxc/

 This ORCA versions uses:
   CBLAS   interface :  Fast vector & matrix operations
   LAPACKE interface :  Fast linear algebra routines
   SCALAPACK package :  Parallel linear algebra routines
   Shared memory     :  Shared parallel matrices
   BLAS/LAPACK       :  OpenBLAS 0.3.15  USE64BITINT DYNAMIC_ARCH NO_AFFINITY Prescott SINGLE_THREADED
        Core in use  :  Prescott
   Copyright (c) 2011-2014, The OpenBLAS Project


Your calculation utilizes the SMD solvation module
Please cite in your paper:
A.V. Marenich, C.J. Cramer, D.G. Truhlar J. Phys. Chem. B, 113, (2009), 6378 

================================================================================

----- Orbital basis set information -----
Your calculation utilizes the basis: def2-TZVP
   F. Weigend and R. Ahlrichs, Phys. Chem. Chem. Phys. 7, 3297 (2005).

----- AuxJ basis set information -----
Your calculation utilizes the auxiliary basis: def2/J
   F. Weigend, Phys. Chem. Chem. Phys. 8, 1057 (2006).

----- AuxC basis set information -----
Your calculation utilizes the auxiliary basis: def2-TZVP/C
  H-La, Hf-Rn : A. Hellweg, C. Hattig, S. Hofener and W. Klopper, Theor. Chem. Acc. 117, 587 (2007).
        Ce-Lu : J. Chmela and M. E. Harding, Mol. Phys. (2018).

================================================================================
                                        WARNINGS
                       Please study these warnings very carefully!
================================================================================

INFO   : Checking CIS options ...
  ===> : (D) CORRECTION FOUND - SETTING MODE=3
  ===> : JK MODE FOUND - ACTIVATING RI-MP2 CODE
  ===> : MP2 AND CIS FOUND - CHECKING
WARNING: CIS(D) and MP2 runs must have the same orbital window
  ===> : adjusting orbital windows

WARNING: No MP2 level density has been requested!
         To caclulate MP2 level properties use
         %mp2 Density relaxed end
         or
         %mp2 Density unrelaxed end
         Otherwise for double-hybrid DFT only the energy is correct!

WARNING: The frozen-core approximation is turned on by default for 
         the MP2 part of double-hybrid DFT.

WARNING: CIS/ROCIS methods need fully converged wavefunctions
  ===> : Setting SCFConvForced true
         You can overwrite this default with %scf ConvForced false 


INFO   : the flag for use of the SHARK integral package has been found!

================================================================================
                                       INPUT FILE
================================================================================
NAME = Me2-Acr_1_M06L_def2TZVP_coords.inp
|  1> %maxcore 20000
|  2> %pal
|  3>  nprocs= 6
|  4> end
|  5> ! RI-SCS-PBE-QIDH   def2-TZVP def2/J def2-TZVP/C RIJCOSX CPCM TightSCF
|  6> %TDDFT  
|  7>    NROOTS   30
|  8>    dcorr 4
|  9>    doscs true 
| 10>    TDA      FALSE
| 11> END
| 12> 
| 13> %CPCM
| 14>    SMD          TRUE
| 15>    SMDsolvent   "N,N-DIMETHYLFORMAMIDE"
| 16> END
| 17>    
| 18> 
| 19> * xyz 0 1
| 20> C                  -0.68772600   -3.64018700   -0.29792100
| 21> C                  -0.05985600   -2.42065700   -0.46439600
| 22> C                  -0.76280300   -1.21840200   -0.29972400
| 23> C                  -2.12197800   -1.25661500    0.04491300
| 24> C                  -2.72334300   -2.50211200    0.20230500
| 25> C                  -2.03232400   -3.69111800    0.03669800
| 26> C                  -2.95150100    0.00002700    0.25573900
| 27> C                  -2.12194400    1.25664400    0.04490400
| 28> C                  -0.76277500    1.21839100   -0.29974600
| 29> C                  -0.05979900    2.42062600   -0.46445200
| 30> H                   0.98853900    2.39418000   -0.72769700
| 31> C                  -0.68763400    3.64017500   -0.29798200
| 32> C                  -2.03222300    3.69114500    0.03667100
| 33> C                  -2.72327100    2.50215900    0.20230200
| 34> H                   0.98848800   -2.39424400   -0.72762000
| 35> H                  -3.77400100   -2.53816500    0.46614800
| 36> H                  -2.53643000   -4.63960100    0.16839000
| 37> H                  -0.11838100    4.55160600   -0.43221300
| 38> H                  -2.53629900    4.63964300    0.16836700
| 39> N                  -0.10559900   -0.00001400   -0.47542200
| 40> C                   1.28388500   -0.00002800   -0.81346900
| 41> C                   2.25084800   -0.00001600    0.22320200
| 42> C                   1.66241000   -0.00004700   -2.13014900
| 43> C                   1.90300100   -0.00000100    1.59151800
| 44> C                   3.63127600   -0.00001700   -0.14019800
| 45> C                   3.02280300   -0.00005300   -2.48019000
| 46> H                   0.89863100   -0.00005700   -2.89816200
| 47> C                   2.87379700    0.00001300    2.55784500
| 48> H                   0.85552600   -0.00000100    1.86857700
| 49> C                   4.60314900   -0.00000000    0.88437900
| 50> C                   3.98496300   -0.00003600   -1.50674700
| 51> H                   3.30290900   -0.00006900   -3.52569400
| 52> C                   4.23490800    0.00001400    2.20271100
| 53> H                   2.59410200    0.00002400    3.60380800
| 54> H                   5.64980500   -0.00000000    0.60349100
| 55> H                   5.03613600   -0.00003800   -1.76975100
| 56> H                   4.99056900    0.00002600    2.97810500
| 57> H                  -3.77392100    2.53824600    0.46617000
| 58> H                  -0.11849300   -4.55163500   -0.43212500
| 59> C                  -4.13028600    0.00004000   -0.72900200
| 60> H                  -3.78089100    0.00003500   -1.76199700
| 61> H                  -4.75878500   -0.87895200   -0.58567700
| 62> H                  -4.75876600    0.87904700   -0.58567900
| 63> C                  -3.50470800    0.00004200    1.68925000
| 64> H                  -4.12321100   -0.87935000    1.86946000
| 65> H                  -2.69638900    0.00001900    2.42182100
| 66> H                  -4.12316100    0.87947000    1.86945900
| 67> *
| 68> 
| 69> 
| 70>                          ****END OF INPUT****
================================================================================

                       ****************************
                       * Single Point Calculation *
                       ****************************

---------------------------------
CARTESIAN COORDINATES (ANGSTROEM)
---------------------------------
  C     -0.687726   -3.640187   -0.297921
  C     -0.059856   -2.420657   -0.464396
  C     -0.762803   -1.218402   -0.299724
  C     -2.121978   -1.256615    0.044913
  C     -2.723343   -2.502112    0.202305
  C     -2.032324   -3.691118    0.036698
  C     -2.951501    0.000027    0.255739
  C     -2.121944    1.256644    0.044904
  C     -0.762775    1.218391   -0.299746
  C     -0.059799    2.420626   -0.464452
  H      0.988539    2.394180   -0.727697
  C     -0.687634    3.640175   -0.297982
  C     -2.032223    3.691145    0.036671
  C     -2.723271    2.502159    0.202302
  H      0.988488   -2.394244   -0.727620
  H     -3.774001   -2.538165    0.466148
  H     -2.536430   -4.639601    0.168390
  H     -0.118381    4.551606   -0.432213
  H     -2.536299    4.639643    0.168367
  N     -0.105599   -0.000014   -0.475422
  C      1.283885   -0.000028   -0.813469
  C      2.250848   -0.000016    0.223202
  C      1.662410   -0.000047   -2.130149
  C      1.903001   -0.000001    1.591518
  C      3.631276   -0.000017   -0.140198
  C      3.022803   -0.000053   -2.480190
  H      0.898631   -0.000057   -2.898162
  C      2.873797    0.000013    2.557845
  H      0.855526   -0.000001    1.868577
  C      4.603149   -0.000000    0.884379
  C      3.984963   -0.000036   -1.506747
  H      3.302909   -0.000069   -3.525694
  C      4.234908    0.000014    2.202711
  H      2.594102    0.000024    3.603808
  H      5.649805   -0.000000    0.603491
  H      5.036136   -0.000038   -1.769751
  H      4.990569    0.000026    2.978105
  H     -3.773921    2.538246    0.466170
  H     -0.118493   -4.551635   -0.432125
  C     -4.130286    0.000040   -0.729002
  H     -3.780891    0.000035   -1.761997
  H     -4.758785   -0.878952   -0.585677
  H     -4.758766    0.879047   -0.585679
  C     -3.504708    0.000042    1.689250
  H     -4.123211   -0.879350    1.869460
  H     -2.696389    0.000019    2.421821
  H     -4.123161    0.879470    1.869459

----------------------------
CARTESIAN COORDINATES (A.U.)
----------------------------
  NO LB      ZA    FRAG     MASS         X           Y           Z
   0 C     6.0000    0    12.011   -1.299614   -6.878957   -0.562989
   1 C     6.0000    0    12.011   -0.113111   -4.574379   -0.877581
   2 C     6.0000    0    12.011   -1.441489   -2.302446   -0.566396
   3 C     6.0000    0    12.011   -4.009957   -2.374658    0.084873
   4 C     6.0000    0    12.011   -5.146372   -4.728306    0.382301
   5 C     6.0000    0    12.011   -3.840536   -6.975202    0.069349
   6 C     6.0000    0    12.011   -5.577529    0.000051    0.483277
   7 C     6.0000    0    12.011   -4.009893    2.374713    0.084856
   8 C     6.0000    0    12.011   -1.441436    2.302425   -0.566438
   9 C     6.0000    0    12.011   -0.113004    4.574320   -0.877687
  10 H     1.0000    0     1.008    1.868068    4.524345   -1.375148
  11 C     6.0000    0    12.011   -1.299440    6.878934   -0.563104
  12 C     6.0000    0    12.011   -3.840345    6.975253    0.069298
  13 C     6.0000    0    12.011   -5.146236    4.728395    0.382295
  14 H     1.0000    0     1.008    1.867972   -4.524465   -1.375003
  15 H     1.0000    0     1.008   -7.131828   -4.796437    0.880892
  16 H     1.0000    0     1.008   -4.793158   -8.767575    0.318211
  17 H     1.0000    0     1.008   -0.223708    8.601289   -0.816764
  18 H     1.0000    0     1.008   -4.792911    8.767655    0.318168
  19 N     7.0000    0    14.007   -0.199553   -0.000026   -0.898417
  20 C     6.0000    0    12.011    2.426191   -0.000053   -1.537234
  21 C     6.0000    0    12.011    4.253486   -0.000030    0.421791
  22 C     6.0000    0    12.011    3.141500   -0.000089   -4.025398
  23 C     6.0000    0    12.011    3.596151   -0.000002    3.007533
  24 C     6.0000    0    12.011    6.862117   -0.000032   -0.264936
  25 C     6.0000    0    12.011    5.712270   -0.000100   -4.686880
  26 H     1.0000    0     1.008    1.698166   -0.000108   -5.476732
  27 C     6.0000    0    12.011    5.430689    0.000025    4.833627
  28 H     1.0000    0     1.008    1.616710   -0.000002    3.531099
  29 C     6.0000    0    12.011    8.698691   -0.000000    1.671234
  30 C     6.0000    0    12.011    7.530489   -0.000068   -2.847339
  31 H     1.0000    0     1.008    6.241593   -0.000130   -6.662596
  32 C     6.0000    0    12.011    8.002816    0.000026    4.162521
  33 H     1.0000    0     1.008    4.902142    0.000045    6.810210
  34 H     1.0000    0     1.008   10.676584   -0.000000    1.140433
  35 H     1.0000    0     1.008    9.516918   -0.000072   -3.344345
  36 H     1.0000    0     1.008    9.430809    0.000049    5.627803
  37 H     1.0000    0     1.008   -7.131677    4.796590    0.880934
  38 H     1.0000    0     1.008   -0.223919   -8.601344   -0.816598
  39 C     6.0000    0    12.011   -7.805109    0.000076   -1.377614
  40 H     1.0000    0     1.008   -7.144849    0.000066   -3.329692
  41 H     1.0000    0     1.008   -8.992800   -1.660979   -1.106769
  42 H     1.0000    0     1.008   -8.992764    1.661158   -1.106773
  43 C     6.0000    0    12.011   -6.622938    0.000079    3.192220
  44 H     1.0000    0     1.008   -7.791740   -1.661731    3.532767
  45 H     1.0000    0     1.008   -5.095437    0.000036    4.576578
  46 H     1.0000    0     1.008   -7.791645    1.661957    3.532766

--------------------------------
INTERNAL COORDINATES (ANGSTROEM)
--------------------------------
 C      0   0   0     0.000000000000     0.00000000     0.00000000
 C      1   0   0     1.381733723778     0.00000000     0.00000000
 C      2   1   0     1.402379562536   120.97985182     0.00000000
 C      3   2   1     1.402708656765   119.41895130     0.28485418
 C      4   3   2     1.392003908722   118.08373792   359.60498445
 C      5   4   3     1.385159992508   122.61600352     0.22767357
 C      4   3   2     1.520429257141   122.69758508   179.36179733
 C      7   4   3     1.520428392974   111.48106929     0.03773281
 C      8   7   4     1.402707127333   122.69757483   359.96295096
 C      9   8   7     1.402380946190   119.41901256   180.63696247
 H     10   9   8     1.081207604110   119.58146388   179.84923806
 C     10   9   8     1.381733987252   120.97981171   359.71589631
 C     12  10   9     1.386546122648   120.14276456     0.00000000
 C     13  12  10     1.385160162097   118.75749842     0.18369657
 H      2   1   3     1.081207502324   119.43849211   180.13323895
 H      5   4   3     1.083879689090   118.42826269   180.15099490
 H      6   5   4     1.082167105113   120.35854162   179.98146526
 H     12  10   9     1.082946631710   119.27839074   180.01951014
 H     13  12  10     1.082166764504   120.88385113   180.10163855
 N      9   8   7     1.395440108345   120.73520942     0.43914606
 C     20   9   8     1.430014531626   119.16762481   180.62252147
 C     21  20   9     1.417640365450   119.33362399    89.27759193
 C     21  20   9     1.370009999374   119.71293387   269.27786869
 C     22  21  20     1.411837884281   122.72922712     0.00000000
 C     22  21  20     1.427459639774   118.25884994   180.00060971
 C     23  21  20     1.404705597684   120.46880668   179.99962409
 H     23  21  20     1.083144648286   119.11925054     0.00000000
 C     24  22  21     1.369756454535   120.60448282   180.00013503
 H     24  22  21     1.083496915135   119.07888522     0.00000000
 C     25  22  21     1.412195155546   118.73921949   179.99976356
 C     26  23  21     1.368701260370   120.23632838     0.00000000
 H     26  23  21     1.082376083211   119.42784903   179.99994357
 C     30  25  22     1.368795345003   120.90589884     0.00000000
 H     28  24  22     1.082713207879   119.89695003   180.00002609
 H     30  25  22     1.083691307929   118.46547184   180.00005005
 H     31  26  23     1.083575461123   120.61896124   180.00015399
 H     33  30  25     1.082709287991   120.13212260   179.99994104
 H     14  13  12     1.083879151701   118.95551504   179.85972370
 H      1   2   3     1.082947080244   119.27837795   179.98054128
 C      7   4   3     1.535984672279   109.25757700   120.89673346
 H     40   7   4     1.090484083366   111.18759124   298.89749505
 H     40   7   4     1.090036689607   110.98928218    59.16252239
 H     40   7   4     1.090037567599   110.98935341   178.63243329
 C      7   4   3     1.536551910023   109.01400282   239.64449392
 H     44   7   4     1.090115541937   111.00757905   300.73450114
 H     44   7   4     1.090889488597   111.08355803    60.94877814
 H     44   7   4     1.090116050737   111.00746943   181.16301998

---------------------------
INTERNAL COORDINATES (A.U.)
---------------------------
 C      0   0   0     0.000000000000     0.00000000     0.00000000
 C      1   0   0     2.611098327943     0.00000000     0.00000000
 C      2   1   0     2.650113309001   120.97985182     0.00000000
 C      3   2   1     2.650735206966   119.41895130     0.28485418
 C      4   3   2     2.630506164833   118.08373792   359.60498445
 C      5   4   3     2.617573037505   122.61600352     0.22767357
 C      4   3   2     2.873194901997   122.69758508   179.36179733
 C      7   4   3     2.873193268960   111.48106929     0.03773281
 C      8   7   4     2.650732316758   122.69757483   359.96295096
 C      9   8   7     2.650115923729   119.41901256   180.63696247
 H     10   9   8     2.043186265681   119.58146388   179.84923806
 C     10   9   8     2.611098825836   120.97981171   359.71589631
 C     12  10   9     2.620192443855   120.14276456     0.00000000
 C     13  12  10     2.617573357982   118.75749842     0.18369657
 H      2   1   3     2.043186073333   119.43849211   180.13323895
 H      5   4   3     2.048235774500   118.42826269   180.15099490
 H      6   5   4     2.044999459802   120.35854162   179.98146526
 H     12  10   9     2.046472551583   119.27839074   180.01951014
 H     13  12  10     2.044998816143   120.88385113   180.10163855
 N      9   8   7     2.636999641061   120.73520942     0.43914606
 C     20   9   8     2.702335832300   119.16762481   180.62252147
 C     21  20   9     2.678952047093   119.33362399    89.27759193
 C     21  20   9     2.588943699551   119.71293387   269.27786869
 C     22  21  20     2.667986946785   122.72922712     0.00000000
 C     22  21  20     2.697507786400   118.25884994   180.00060971
 C     23  21  20     2.654508878410   120.46880668   179.99962409
 H     23  21  20     2.046846748682   119.11925054     0.00000000
 C     24  22  21     2.588464569243   120.60448282   180.00013503
 H     24  22  21     2.047512436553   119.07888522     0.00000000
 C     25  22  21     2.668662091632   118.73921949   179.99976356
 C     26  23  21     2.586470541252   120.23632838     0.00000000
 H     26  23  21     2.045394371176   119.42784903   179.99994357
 C     30  25  22     2.586648335441   120.90589884     0.00000000
 H     28  24  22     2.046031444470   119.89695003   180.00002609
 H     30  25  22     2.047879785696   118.46547184   180.00005005
 H     31  26  23     2.047660866961   120.61896124   180.00015399
 H     33  30  25     2.046024036955   120.13212260   179.99994104
 H     14  13  12     2.048234758983   118.95551504   179.85972370
 H      1   2   3     2.046473399191   119.27837795   179.98054128
 C      7   4   3     2.902590376507   109.25757700   120.89673346
 H     40   7   4     2.060716270962   111.18759124   298.89749505
 H     40   7   4     2.059870819284   110.98928218    59.16252239
 H     40   7   4     2.059872478449   110.98935341   178.63243329
 C      7   4   3     2.903662300497   109.01400282   239.64449392
 H     44   7   4     2.060019828592   111.00757905   300.73450114
 H     44   7   4     2.061482375821   111.08355803    60.94877814
 H     44   7   4     2.060020790084   111.00746943   181.16301998

---------------------
BASIS SET INFORMATION
---------------------
There are 3 groups of distinct atoms

 Group   1 Type C   : 11s6p2d1f contracted to 5s3p2d1f pattern {62111/411/11/1}
 Group   2 Type H   : 5s1p contracted to 3s1p pattern {311/1}
 Group   3 Type N   : 11s6p2d1f contracted to 5s3p2d1f pattern {62111/411/11/1}

Atom   0C    basis set group =>   1
Atom   1C    basis set group =>   1
Atom   2C    basis set group =>   1
Atom   3C    basis set group =>   1
Atom   4C    basis set group =>   1
Atom   5C    basis set group =>   1
Atom   6C    basis set group =>   1
Atom   7C    basis set group =>   1
Atom   8C    basis set group =>   1
Atom   9C    basis set group =>   1
Atom  10H    basis set group =>   2
Atom  11C    basis set group =>   1
Atom  12C    basis set group =>   1
Atom  13C    basis set group =>   1
Atom  14H    basis set group =>   2
Atom  15H    basis set group =>   2
Atom  16H    basis set group =>   2
Atom  17H    basis set group =>   2
Atom  18H    basis set group =>   2
Atom  19N    basis set group =>   3
Atom  20C    basis set group =>   1
Atom  21C    basis set group =>   1
Atom  22C    basis set group =>   1
Atom  23C    basis set group =>   1
Atom  24C    basis set group =>   1
Atom  25C    basis set group =>   1
Atom  26H    basis set group =>   2
Atom  27C    basis set group =>   1
Atom  28H    basis set group =>   2
Atom  29C    basis set group =>   1
Atom  30C    basis set group =>   1
Atom  31H    basis set group =>   2
Atom  32C    basis set group =>   1
Atom  33H    basis set group =>   2
Atom  34H    basis set group =>   2
Atom  35H    basis set group =>   2
Atom  36H    basis set group =>   2
Atom  37H    basis set group =>   2
Atom  38H    basis set group =>   2
Atom  39C    basis set group =>   1
Atom  40H    basis set group =>   2
Atom  41H    basis set group =>   2
Atom  42H    basis set group =>   2
Atom  43C    basis set group =>   1
Atom  44H    basis set group =>   2
Atom  45H    basis set group =>   2
Atom  46H    basis set group =>   2
---------------------------------
AUXILIARY/J BASIS SET INFORMATION
---------------------------------
There are 3 groups of distinct atoms

 Group   1 Type C   : 12s5p4d2f1g contracted to 6s4p3d1f1g pattern {711111/2111/211/2/1}
 Group   2 Type H   : 5s2p1d contracted to 3s1p1d pattern {311/2/1}
 Group   3 Type N   : 12s5p4d2f1g contracted to 6s4p3d1f1g pattern {711111/2111/211/2/1}

Atom   0C    basis set group =>   1
Atom   1C    basis set group =>   1
Atom   2C    basis set group =>   1
Atom   3C    basis set group =>   1
Atom   4C    basis set group =>   1
Atom   5C    basis set group =>   1
Atom   6C    basis set group =>   1
Atom   7C    basis set group =>   1
Atom   8C    basis set group =>   1
Atom   9C    basis set group =>   1
Atom  10H    basis set group =>   2
Atom  11C    basis set group =>   1
Atom  12C    basis set group =>   1
Atom  13C    basis set group =>   1
Atom  14H    basis set group =>   2
Atom  15H    basis set group =>   2
Atom  16H    basis set group =>   2
Atom  17H    basis set group =>   2
Atom  18H    basis set group =>   2
Atom  19N    basis set group =>   3
Atom  20C    basis set group =>   1
Atom  21C    basis set group =>   1
Atom  22C    basis set group =>   1
Atom  23C    basis set group =>   1
Atom  24C    basis set group =>   1
Atom  25C    basis set group =>   1
Atom  26H    basis set group =>   2
Atom  27C    basis set group =>   1
Atom  28H    basis set group =>   2
Atom  29C    basis set group =>   1
Atom  30C    basis set group =>   1
Atom  31H    basis set group =>   2
Atom  32C    basis set group =>   1
Atom  33H    basis set group =>   2
Atom  34H    basis set group =>   2
Atom  35H    basis set group =>   2
Atom  36H    basis set group =>   2
Atom  37H    basis set group =>   2
Atom  38H    basis set group =>   2
Atom  39C    basis set group =>   1
Atom  40H    basis set group =>   2
Atom  41H    basis set group =>   2
Atom  42H    basis set group =>   2
Atom  43C    basis set group =>   1
Atom  44H    basis set group =>   2
Atom  45H    basis set group =>   2
Atom  46H    basis set group =>   2
---------------------------------
AUXILIARY/C BASIS SET INFORMATION
---------------------------------
There are 3 groups of distinct atoms

 Group   1 Type C   : 8s6p5d3f1g contracted to 8s6p4d3f1g pattern {11111111/111111/2111/111/1}
 Group   2 Type H   : 4s3p2d contracted to 4s2p1d pattern {1111/21/2}
 Group   3 Type N   : 8s6p5d3f1g contracted to 8s6p4d3f1g pattern {11111111/111111/2111/111/1}

Atom   0C    basis set group =>   1
Atom   1C    basis set group =>   1
Atom   2C    basis set group =>   1
Atom   3C    basis set group =>   1
Atom   4C    basis set group =>   1
Atom   5C    basis set group =>   1
Atom   6C    basis set group =>   1
Atom   7C    basis set group =>   1
Atom   8C    basis set group =>   1
Atom   9C    basis set group =>   1
Atom  10H    basis set group =>   2
Atom  11C    basis set group =>   1
Atom  12C    basis set group =>   1
Atom  13C    basis set group =>   1
Atom  14H    basis set group =>   2
Atom  15H    basis set group =>   2
Atom  16H    basis set group =>   2
Atom  17H    basis set group =>   2
Atom  18H    basis set group =>   2
Atom  19N    basis set group =>   3
Atom  20C    basis set group =>   1
Atom  21C    basis set group =>   1
Atom  22C    basis set group =>   1
Atom  23C    basis set group =>   1
Atom  24C    basis set group =>   1
Atom  25C    basis set group =>   1
Atom  26H    basis set group =>   2
Atom  27C    basis set group =>   1
Atom  28H    basis set group =>   2
Atom  29C    basis set group =>   1
Atom  30C    basis set group =>   1
Atom  31H    basis set group =>   2
Atom  32C    basis set group =>   1
Atom  33H    basis set group =>   2
Atom  34H    basis set group =>   2
Atom  35H    basis set group =>   2
Atom  36H    basis set group =>   2
Atom  37H    basis set group =>   2
Atom  38H    basis set group =>   2
Atom  39C    basis set group =>   1
Atom  40H    basis set group =>   2
Atom  41H    basis set group =>   2
Atom  42H    basis set group =>   2
Atom  43C    basis set group =>   1
Atom  44H    basis set group =>   2
Atom  45H    basis set group =>   2
Atom  46H    basis set group =>   2


           ************************************************************
           *        Program running with 6 parallel MPI-processes     *
           *              working on a common directory               *
           ************************************************************
------------------------------------------------------------------------------
                           ORCA GTO INTEGRAL CALCULATION
                           -- RI-GTO INTEGRALS CHOSEN --
------------------------------------------------------------------------------
------------------------------------------------------------------------------
                   ___                                                        
                  /   \      - P O W E R E D   B Y -                         
                 /     \                                                     
                 |  |  |   _    _      __       _____    __    __             
                 |  |  |  | |  | |    /  \     |  _  \  |  |  /  |          
                  \  \/   | |  | |   /    \    | | | |  |  | /  /          
                 / \  \   | |__| |  /  /\  \   | |_| |  |  |/  /          
                |  |  |   |  __  | /  /__\  \  |    /   |      \           
                |  |  |   | |  | | |   __   |  |    \   |  |\   \          
                \     /   | |  | | |  |  |  |  | |\  \  |  | \   \       
                 \___/    |_|  |_| |__|  |__|  |_| \__\ |__|  \__/        
                                                                              
                      - O R C A' S   B I G   F R I E N D -                    
                                      &                                       
                       - I N T E G R A L  F E E D E R -                       
                                                                              
 v1 FN, 2020, v2 2021                                                         
------------------------------------------------------------------------------


Reading SHARK input file Me2-Acr_1_M06L_def2TZVP_coords.SHARKINP.tmp ... ok
----------------------
SHARK INTEGRAL PACKAGE
----------------------

Number of atoms                             ...     47
Number of basis functions                   ...    932
Number of shells                            ...    370
Maximum angular momentum                    ...      3
Integral batch strategy                     ... SHARK/LIBINT Hybrid
RI-J (if used) integral strategy            ... SPLIT-RIJ (Revised 2003 algorithm where possible)
Printlevel                                  ...      1
Contraction scheme used                     ... SEGMENTED contraction
Coulomb Range Separation                    ... NOT USED
Exchange Range Separation                   ... NOT USED
Finite Nucleus Model                        ... NOT USED
Auxiliary Coulomb fitting basis             ... AVAILABLE
   # of basis functions in Aux-J            ...   1505
   # of shells in Aux-J                     ...    495
   Maximum angular momentum in Aux-J        ...      4
Auxiliary J/K fitting basis                 ... NOT available
Auxiliary Correlation fitting basis         ... AVAILABLE
   # of basis functions in Aux-C            ...   2291
   # of shells in Aux-C                     ...    719
   Maximum angular momentum in Aux-C        ...      4
Auxiliary 'external' fitting basis          ... NOT available
Integral threshold                          ...     2.500000e-11
Primitive cut-off                           ...     2.500000e-12
Primitive pair pre-selection threshold      ...     2.500000e-12

Calculating pre-screening integrals         ... done (  0.1 sec) Dimension = 370
Organizing shell pair data                  ... done (  2.8 sec)
Shell pair information
Total number of shell pairs                 ...     68635
Shell pairs after pre-screening             ...     49934
Total number of primitive shell pairs       ...    209616
Primitive shell pairs kept                  ...    100617
          la=0 lb=0:  12983 shell pairs
          la=1 lb=0:  14389 shell pairs
          la=1 lb=1:   3985 shell pairs
          la=2 lb=0:   7144 shell pairs
          la=2 lb=1:   3982 shell pairs
          la=2 lb=2:   1043 shell pairs
          la=3 lb=0:   3333 shell pairs
          la=3 lb=1:   1895 shell pairs
          la=3 lb=2:    941 shell pairs
          la=3 lb=3:    239 shell pairs

Calculating one electron integrals          ... done (  0.1 sec)
Calculating RI/J V-Matrix + Cholesky decomp.... done (  0.2 sec)
Calculating RI/C V-Matrix + Cholesky decomp.... done (  0.3 sec)
Calculating Nuclear repulsion               ... done (  0.0 sec) ENN=   2238.522328077757 Eh

SHARK setup successfully completed in   4.0 seconds

Maximum memory used throughout the entire GTOINT-calculation: 82.0 MB


           ************************************************************
           *        Program running with 6 parallel MPI-processes     *
           *              working on a common directory               *
           ************************************************************
-------------------------------------------------------------------------------
                                 ORCA SCF
-------------------------------------------------------------------------------

------------
SCF SETTINGS
------------
Hamiltonian:
 Density Functional     Method          .... DFT(GTOs)
 Exchange Functional    Exchange        .... PBE
   PBE kappa parameter   XKappa         ....  0.804000
   PBE mue parameter    XMuePBE         ....  0.219520
 Correlation Functional Correlation     .... PBE
   PBE beta parameter  CBetaPBE         ....  0.066725
 LDA part of GGA corr.  LDAOpt          .... PW91-LDA
 Gradients option       PostSCFGGA      .... off
 Hybrid DFT is turned on
   Fraction HF Exchange ScalHFX         ....  0.690000
   Scaling of DF-GGA-X  ScalDFX         ....  0.310000
   Scaling of DF-GGA-C  ScalDFC         ....  0.670000
   Scaling of DF-LDA-C  ScalLDAC        ....  0.670000
   Perturbative correction              ....  0.330000
   Density functional embedding theory  .... OFF
 RI-approximation to the Coulomb term is turned on
   Number of AuxJ basis functions       .... 1505
   RIJ-COSX (HFX calculated with COS-X)).... on


General Settings:
 Integral files         IntName         .... Me2-Acr_1_M06L_def2TZVP_coords
 Hartree-Fock type      HFTyp           .... RHF
 Total Charge           Charge          ....    0
 Multiplicity           Mult            ....    1
 Number of Electrons    NEL             ....  178
 Basis Dimension        Dim             ....  932
 Nuclear Repulsion      ENuc            ....   2238.5223280778 Eh

Convergence Acceleration:
 DIIS                   CNVDIIS         .... on
   Start iteration      DIISMaxIt       ....    12
   Startup error        DIISStart       ....  0.200000
   # of expansion vecs  DIISMaxEq       ....     5
   Bias factor          DIISBfac        ....   1.050
   Max. coefficient     DIISMaxC        ....  10.000
 Trust-Rad. Augm. Hess. CNVTRAH         .... auto
   Auto Start mean grad. ratio tolernc. ....  1.125000
   Auto Start start iteration           ....    20
   Auto Start num. interpolation iter.  ....    10
   Max. Number of Micro iterations      ....    16
   Max. Number of Macro iterations      .... Maxiter - #DIIS iter
   Number of Davidson start vectors     ....     2
   Converg. threshold I  (grad. norm)   ....   1.000e-05
   Converg. threshold II (energy diff.) ....   1.000e-08
   Grad. Scal. Fac. for Micro threshold ....   0.100
   Minimum threshold for Micro iter.    ....   0.010
   NR start threshold (gradient norm)   ....   0.001
   Initial trust radius                 ....   0.400
   Minimum AH scaling param. (alpha)    ....   1.000
   Maximum AH scaling param. (alpha)    .... 1000.000
   Orbital update algorithm             .... Taylor
   White noise on init. David. guess    .... on
   Maximum white noise                  ....   0.010
   Quad. conv. algorithm                .... NR
 SOSCF                  CNVSOSCF        .... on
   Start iteration      SOSCFMaxIt      ....   150
   Startup grad/error   SOSCFStart      ....  0.003300
 Level Shifting         CNVShift        .... on
   Level shift para.    LevelShift      ....    0.2500
   Turn off err/grad.   ShiftErr        ....    0.0010
 Zerner damping         CNVZerner       .... off
 Static damping         CNVDamp         .... on
   Fraction old density DampFac         ....    0.7000
   Max. Damping (<1)    DampMax         ....    0.9800
   Min. Damping (>=0)   DampMin         ....    0.0000
   Turn off err/grad.   DampErr         ....    0.1000
 Fernandez-Rico         CNVRico         .... off

SCF Procedure:
 Maximum # iterations   MaxIter         ....   125
 SCF integral mode      SCFMode         .... Direct
   Integral package                     .... SHARK and LIBINT hybrid scheme
 Reset frequency        DirectResetFreq ....    20
 Integral Threshold     Thresh          ....  2.500e-11 Eh
 Primitive CutOff       TCut            ....  2.500e-12 Eh

Convergence Tolerance:
 Convergence Check Mode ConvCheckMode   .... Total+1el-Energy
 Convergence forced     ConvForced      .... 1
 Energy Change          TolE            ....  1.000e-08 Eh
 1-El. energy change                    ....  1.000e-05 Eh
 Orbital Gradient       TolG            ....  1.000e-05
 Orbital Rotation angle TolX            ....  1.000e-05
 DIIS Error             TolErr          ....  5.000e-07


Diagonalization of the overlap matrix:
Smallest eigenvalue                        ... 3.645e-06
Time for diagonalization                   ...    0.406 sec
Threshold for overlap eigenvalues          ... 1.000e-08
Number of eigenvalues below threshold      ... 0
Time for construction of square roots      ...    0.327 sec
Total time needed                          ...    0.737 sec

Time for model grid setup =    0.426 sec

------------------------------
INITIAL GUESS: MODEL POTENTIAL
------------------------------
Loading Hartree-Fock densities                     ... done
Calculating cut-offs                               ... done
Initializing the effective Hamiltonian             ... done
Setting up the integral package (SHARK)            ... done
Starting the Coulomb interaction                   ... done (   0.9 sec)
Reading the grid                                   ... done
Mapping shells                                     ... done
Starting the XC term evaluation                    ... done (   0.6 sec)
  promolecular density results
     # of electrons  =    178.010420364
     EX              =   -140.751327997
     EC              =     -2.257613684
     EX+EC           =   -143.008941681
Transforming the Hamiltonian                       ... done (   0.3 sec)
Diagonalizing the Hamiltonian                      ... done (   0.4 sec)
Back transforming the eigenvectors                 ... done (   0.2 sec)
Now organizing SCF variables                       ... done
                      ------------------
                      INITIAL GUESS DONE (   2.9 sec)
                      ------------------
-------------------
DFT GRID GENERATION
-------------------

General Integration Accuracy     IntAcc      ... 4.388
Radial Grid Type                 RadialGrid  ... OptM3 with GC (2021)
Angular Grid (max. ang.)         AngularGrid ... 4 (Lebedev-302)
Angular grid pruning method      GridPruning ... 4 (adaptive)
Weight generation scheme         WeightScheme... Becke
Basis function cutoff            BFCut       ... 1.0000e-11
Integration weight cutoff        WCut        ... 1.0000e-14
Angular grids for H and He will be reduced by one unit
Partially contracted basis set               ... off
Rotationally invariant grid construction     ... off

Total number of grid points                  ...   220540
Total number of batches                      ...     3470
Average number of points per batch           ...       63
Average number of grid points per atom       ...     4692
Time for grid setup =    1.644 sec

--------------------
COSX GRID GENERATION
--------------------

GRIDX 1
-------
General Integration Accuracy     IntAcc      ... 3.816
Radial Grid Type                 RadialGrid  ... OptM3 with GC (2021)
Angular Grid (max. ang.)         AngularGrid ... 1 (Lebedev-50)
Angular grid pruning method      GridPruning ... 4 (adaptive)
Weight generation scheme         WeightScheme... Becke
Basis function cutoff            BFCut       ... 1.0000e-11
Integration weight cutoff        WCut        ... 1.0000e-14
Angular grids for H and He will be reduced by one unit
Partially contracted basis set               ... on
Rotationally invariant grid construction     ... off

Total number of grid points                  ...    28016
Total number of batches                      ...      457
Average number of points per batch           ...       61
Average number of grid points per atom       ...      596
UseSFitting                                  ... on

GRIDX 2
-------
General Integration Accuracy     IntAcc      ... 4.020
Radial Grid Type                 RadialGrid  ... OptM3 with GC (2021)
Angular Grid (max. ang.)         AngularGrid ... 2 (Lebedev-110)
Angular grid pruning method      GridPruning ... 4 (adaptive)
Weight generation scheme         WeightScheme... Becke
Basis function cutoff            BFCut       ... 1.0000e-11
Integration weight cutoff        WCut        ... 1.0000e-14
Angular grids for H and He will be reduced by one unit
Partially contracted basis set               ... on
Rotationally invariant grid construction     ... off

Total number of grid points                  ...    60231
Total number of batches                      ...      964
Average number of points per batch           ...       62
Average number of grid points per atom       ...     1282
UseSFitting                                  ... on

GRIDX 3
-------
General Integration Accuracy     IntAcc      ... 4.338
Radial Grid Type                 RadialGrid  ... OptM3 with GC (2021)
Angular Grid (max. ang.)         AngularGrid ... 3 (Lebedev-194)
Angular grid pruning method      GridPruning ... 4 (adaptive)
Weight generation scheme         WeightScheme... Becke
Basis function cutoff            BFCut       ... 1.0000e-11
Integration weight cutoff        WCut        ... 1.0000e-14
Angular grids for H and He will be reduced by one unit
Partially contracted basis set               ... on
Rotationally invariant grid construction     ... off

Total number of grid points                  ...   131157
Total number of batches                      ...     2073
Average number of points per batch           ...       63
Average number of grid points per atom       ...     2791
UseSFitting                                  ... on

Time for X-Grid setup             =    3.926 sec


--------------------
CPCM SOLVATION MODEL
--------------------
CPCM parameters:
  Epsilon                                         ...      37.2190
  Refrac                                          ...       1.4305
  Rsolv                                           ...       1.3000
  Surface type                                    ... GAUSSIAN VDW
  Epsilon function type                           ...         CPCM
Solvent:                                     ... N,N-DIMETHYLFORMAMIDE
SMD-CDS solvent descriptors:
  Soln                                       ...    1.4305
  Soln25                                     ...    1.4280
  Sola                                       ...    0.0000
  Solb                                       ...    0.7400
  Solg                                       ...   49.5600
  Solc                                       ...    0.0000
  Solh                                       ...    0.0000
Radii:
 Radius for C  used is    3.4960 Bohr (=   1.8500 Ang.)
 Radius for H  used is    2.2677 Bohr (=   1.2000 Ang.)
 Radius for N  used is    3.5716 Bohr (=   1.8900 Ang.)
Calculating surface                               ...        done! (  0.0s)
GEPOL surface points                              ...         2627
GEPOL Volume                                      ...    2356.2800
GEPOL Surface-area                                ...    1266.0629
Calculating surface distance matrix               ...        done! (  0.0s)
Performing Cholesky decomposition & store         ...        done! (  0.3s)
Overall time for CPCM initialization              ...                 0.4s
--------------
SCF ITERATIONS
--------------
ITER       Energy         Delta-E        Max-DP      RMS-DP      [F,P]     Damp
               ***  Starting incremental Fock matrix formation  ***
  0  -1016.9020535186   0.000000000000 0.06042276  0.00060333  0.1705971 0.7000
  1  -1017.1327596980  -0.230706179455 0.05125745  0.00051186  0.1046771 0.7000
                               ***Turning on DIIS***
  2  -1017.2674740159  -0.134714317837 0.11452156  0.00120605  0.0570219 0.0000
  3  -1017.5116386335  -0.244164617621 0.06128410  0.00031896  0.0345269 0.0000
  4  -1017.5325791495  -0.020940516030 0.01289089  0.00010977  0.0080515 0.0000
                      *** Initiating the SOSCF procedure ***
                           *** Shutting down DIIS ***
                      *** Re-Reading the Fockian *** 
                      *** Removing any level shift *** 
ITER      Energy       Delta-E        Grad      Rot      Max-DP    RMS-DP
  5  -1017.53328170  -0.0007025457  0.001037  0.001037  0.004038  0.000046
               *** Restarting incremental Fock matrix formation ***
  6  -1017.53331400  -0.0000323054  0.000828  0.002365  0.017925  0.000185
  7  -1017.53334416  -0.0000301628  0.000273  0.001258  0.007484  0.000069
  8  -1017.53334906  -0.0000049010  0.000108  0.000215  0.007013  0.000057
  9  -1017.53335090  -0.0000018332  0.000054  0.000156  0.000777  0.000009
 10  -1017.53335103  -0.0000001290  0.000021  0.000054  0.000542  0.000005
 11  -1017.53335106  -0.0000000308  0.000005  0.000024  0.000347  0.000003
 12  -1017.53335107  -0.0000000130  0.000003  0.000017  0.000339  0.000002
                  ***Gradient check signals convergence***
              ***Rediagonalizing the Fockian in SOSCF/NRSCF***

               *****************************************************
               *                     SUCCESS                       *
               *           SCF CONVERGED AFTER  13 CYCLES          *
               *****************************************************

Old exchange energy                            =    -99.428345930 Eh
New exchange energy                            =    -99.428471030 Eh
Exchange energy change after final integration =     -0.000125100 Eh
Total energy after final integration           =  -1017.533476259 Eh
Final COS-X integration done in                =    54.932 sec

SMD CDS free energy correction energy :                -3.58485     Kcal/mol
Total Energy after SMD CDS correction =             -1017.539189073 Eh

----------------
TOTAL SCF ENERGY
----------------

Total Energy       :        -1017.53918907 Eh          -27688.64900 eV

Components:
Nuclear Repulsion  :         2238.52232808 Eh           60913.28932 eV
Electronic Energy  :        -3256.06151715 Eh          -88601.93832 eV
One Electron Energy:        -5828.12630646 Eh         -158591.37943 eV
Two Electron Energy:         2572.06478931 Eh           69989.44111 eV
Max COSX asymmetry :            0.00000852 Eh               0.00023 eV
CPCM Dielectric    :           -0.02335852 Eh              -0.63562 eV
SMD CDS (Gcds)     :           -0.00571281 Eh              -0.15545 eV

Virial components:
Potential Energy   :        -2030.89594736 Eh          -55263.48827 eV
Kinetic Energy     :         1013.35675828 Eh           27574.83927 eV
Virial Ratio       :            2.00412730


DFT components:
N(Alpha)           :       88.999897537265 electrons
N(Beta)            :       88.999897537265 electrons
N(Total)           :      177.999795074531 electrons
E(X)               :      -44.453927950546 Eh       
E(C)               :       -4.009469440528 Eh       
E(XC)              :      -48.463397391074 Eh       
DFET-embed. en.    :        0.000000000000 Eh       
CPCM Solvation Model Properties:
Surface-charge          :           -0.06837363
Charge-correction       :            0.00005646 Eh               0.00154 eV
Free-energy (cav+disp)  :           -0.00571281 Eh              -0.15545 eV

---------------
SCF CONVERGENCE
---------------

  Last Energy change         ...   -8.9055e-08  Tolerance :   1.0000e-08
  Last MAX-Density change    ...    1.1102e-15  Tolerance :   1.0000e-07
  Last RMS-Density change    ...    1.2000e-17  Tolerance :   5.0000e-09
  Last Orbital Gradient      ...    9.1345e-07  Tolerance :   1.0000e-05
  Last Orbital Rotation      ...    3.2492e-06  Tolerance :   1.0000e-05

             **** THE GBW FILE WAS UPDATED (Me2-Acr_1_M06L_def2TZVP_coords.gbw) ****
             **** DENSITY Me2-Acr_1_M06L_def2TZVP_coords.scfp WAS UPDATED ****
             **** ENERGY FILE WAS UPDATED (Me2-Acr_1_M06L_def2TZVP_coords.en.tmp) ****
             **** THE GBW FILE WAS UPDATED (Me2-Acr_1_M06L_def2TZVP_coords.gbw) ****
             **** DENSITY Me2-Acr_1_M06L_def2TZVP_coords.scfp WAS UPDATED ****
----------------
ORBITAL ENERGIES
----------------

  NO   OCC          E(Eh)            E(eV) 
   0   2.0000     -15.114704      -411.2920 
   1   2.0000     -10.870256      -295.7947 
   2   2.0000     -10.870240      -295.7943 
   3   2.0000     -10.864633      -295.6417 
   4   2.0000     -10.838497      -294.9305 
   5   2.0000     -10.837215      -294.8956 
   6   2.0000     -10.836288      -294.8704 
   7   2.0000     -10.826009      -294.5907 
   8   2.0000     -10.825705      -294.5824 
   9   2.0000     -10.824286      -294.5438 
  10   2.0000     -10.824274      -294.5435 
  11   2.0000     -10.824005      -294.5362 
  12   2.0000     -10.823967      -294.5351 
  13   2.0000     -10.823835      -294.5315 
  14   2.0000     -10.822845      -294.5046 
  15   2.0000     -10.821859      -294.4778 
  16   2.0000     -10.817579      -294.3613 
  17   2.0000     -10.817579      -294.3613 
  18   2.0000     -10.816735      -294.3383 
  19   2.0000     -10.816734      -294.3383 
  20   2.0000     -10.813369      -294.2467 
  21   2.0000     -10.813369      -294.2467 
  22   2.0000     -10.808812      -294.1227 
  23   2.0000     -10.808812      -294.1227 
  24   2.0000     -10.794137      -293.7234 
  25   2.0000     -10.794128      -293.7231 
  26   2.0000      -1.189755       -32.3749 
  27   2.0000      -1.081891       -29.4398 
  28   2.0000      -1.054432       -28.6926 
  29   2.0000      -1.052477       -28.6393 
  30   2.0000      -1.016636       -27.6641 
  31   2.0000      -0.999602       -27.2006 
  32   2.0000      -0.960455       -26.1353 
  33   2.0000      -0.936190       -25.4750 
  34   2.0000      -0.924499       -25.1569 
  35   2.0000      -0.921907       -25.0864 
  36   2.0000      -0.907505       -24.6945 
  37   2.0000      -0.899921       -24.4881 
  38   2.0000      -0.870941       -23.6995 
  39   2.0000      -0.844493       -22.9798 
  40   2.0000      -0.796070       -21.6622 
  41   2.0000      -0.779682       -21.2162 
  42   2.0000      -0.777006       -21.1434 
  43   2.0000      -0.770685       -20.9714 
  44   2.0000      -0.754261       -20.5245 
  45   2.0000      -0.737978       -20.0814 
  46   2.0000      -0.710585       -19.3360 
  47   2.0000      -0.679554       -18.4916 
  48   2.0000      -0.671325       -18.2677 
  49   2.0000      -0.658131       -17.9086 
  50   2.0000      -0.647764       -17.6265 
  51   2.0000      -0.626688       -17.0531 
  52   2.0000      -0.610097       -16.6016 
  53   2.0000      -0.589647       -16.0451 
  54   2.0000      -0.583968       -15.8906 
  55   2.0000      -0.575663       -15.6646 
  56   2.0000      -0.571991       -15.5647 
  57   2.0000      -0.569051       -15.4847 
  58   2.0000      -0.549211       -14.9448 
  59   2.0000      -0.546003       -14.8575 
  60   2.0000      -0.541927       -14.7466 
  61   2.0000      -0.534098       -14.5335 
  62   2.0000      -0.531907       -14.4739 
  63   2.0000      -0.528206       -14.3732 
  64   2.0000      -0.525920       -14.3110 
  65   2.0000      -0.511784       -13.9264 
  66   2.0000      -0.498133       -13.5549 
  67   2.0000      -0.495200       -13.4751 
  68   2.0000      -0.490843       -13.3565 
  69   2.0000      -0.484058       -13.1719 
  70   2.0000      -0.482481       -13.1290 
  71   2.0000      -0.470926       -12.8146 
  72   2.0000      -0.467645       -12.7253 
  73   2.0000      -0.459894       -12.5143 
  74   2.0000      -0.448236       -12.1971 
  75   2.0000      -0.445955       -12.1351 
  76   2.0000      -0.436220       -11.8702 
  77   2.0000      -0.433278       -11.7901 
  78   2.0000      -0.423661       -11.5284 
  79   2.0000      -0.413228       -11.2445 
  80   2.0000      -0.412970       -11.2375 
  81   2.0000      -0.404372       -11.0035 
  82   2.0000      -0.366262        -9.9665 
  83   2.0000      -0.326469        -8.8837 
  84   2.0000      -0.316398        -8.6096 
  85   2.0000      -0.311129        -8.4662 
  86   2.0000      -0.309667        -8.4265 
  87   2.0000      -0.280148        -7.6232 
  88   2.0000      -0.249450        -6.7879 
  89   0.0000       0.013463         0.3663 
  90   0.0000       0.040144         1.0924 
  91   0.0000       0.052724         1.4347 
  92   0.0000       0.058088         1.5807 
  93   0.0000       0.072964         1.9855 
  94   0.0000       0.093617         2.5475 
  95   0.0000       0.101247         2.7551 
  96   0.0000       0.104143         2.8339 
  97   0.0000       0.121744         3.3128 
  98   0.0000       0.127029         3.4566 
  99   0.0000       0.132276         3.5994 
 100   0.0000       0.134793         3.6679 
 101   0.0000       0.137043         3.7291 
 102   0.0000       0.150786         4.1031 
 103   0.0000       0.152593         4.1523 
 104   0.0000       0.154043         4.1917 
 105   0.0000       0.160813         4.3759 
 106   0.0000       0.168201         4.5770 
 107   0.0000       0.172811         4.7024 
 108   0.0000       0.175110         4.7650 
 109   0.0000       0.175798         4.7837 
 110   0.0000       0.183411         4.9909 
 111   0.0000       0.187460         5.1010 
 112   0.0000       0.190589         5.1862 
 113   0.0000       0.195927         5.3315 
 114   0.0000       0.197644         5.3782 
 115   0.0000       0.201826         5.4920 
 116   0.0000       0.212797         5.7905 
 117   0.0000       0.217425         5.9164 
 118   0.0000       0.221352         6.0233 
 119   0.0000       0.235324         6.4035 
 120   0.0000       0.241788         6.5794 
 121   0.0000       0.244512         6.6535 
 122   0.0000       0.248427         6.7600 
 123   0.0000       0.250135         6.8065 
 124   0.0000       0.255308         6.9473 
 125   0.0000       0.258003         7.0206 
 126   0.0000       0.260215         7.0808 
 127   0.0000       0.267945         7.2912 
 128   0.0000       0.272164         7.4060 
 129   0.0000       0.272397         7.4123 
 130   0.0000       0.273618         7.4455 
 131   0.0000       0.281675         7.6648 
 132   0.0000       0.282145         7.6776 
 133   0.0000       0.287359         7.8194 
 134   0.0000       0.287689         7.8284 
 135   0.0000       0.293752         7.9934 
 136   0.0000       0.298728         8.1288 
 137   0.0000       0.300134         8.1671 
 138   0.0000       0.304502         8.2859 
 139   0.0000       0.307416         8.3652 
 140   0.0000       0.315256         8.5785 
 141   0.0000       0.315936         8.5971 
 142   0.0000       0.322563         8.7774 
 143   0.0000       0.322797         8.7837 
 144   0.0000       0.328792         8.9469 
 145   0.0000       0.336716         9.1625 
 146   0.0000       0.337054         9.1717 
 147   0.0000       0.348392         9.4802 
 148   0.0000       0.348513         9.4835 
 149   0.0000       0.355506         9.6738 
 150   0.0000       0.356126         9.6907 
 151   0.0000       0.359664         9.7870 
 152   0.0000       0.363927         9.9029 
 153   0.0000       0.370503        10.0819 
 154   0.0000       0.377136        10.2624 
 155   0.0000       0.382370        10.4048 
 156   0.0000       0.386935        10.5290 
 157   0.0000       0.392403        10.6778 
 158   0.0000       0.392559        10.6821 
 159   0.0000       0.396272        10.7831 
 160   0.0000       0.403275        10.9737 
 161   0.0000       0.403641        10.9836 
 162   0.0000       0.407575        11.0907 
 163   0.0000       0.408712        11.1216 
 164   0.0000       0.415036        11.2937 
 165   0.0000       0.417041        11.3483 
 166   0.0000       0.420449        11.4410 
 167   0.0000       0.423589        11.5264 
 168   0.0000       0.425377        11.5751 
 169   0.0000       0.438368        11.9286 
 170   0.0000       0.444096        12.0845 
 171   0.0000       0.449684        12.2365 
 172   0.0000       0.451915        12.2972 
 173   0.0000       0.453155        12.3310 
 174   0.0000       0.454070        12.3559 
 175   0.0000       0.456844        12.4314 
 176   0.0000       0.465770        12.6743 
 177   0.0000       0.474945        12.9239 
 178   0.0000       0.480609        13.0780 
 179   0.0000       0.481405        13.0997 
 180   0.0000       0.482020        13.1164 
 181   0.0000       0.483935        13.1685 
 182   0.0000       0.487401        13.2629 
 183   0.0000       0.492212        13.3938 
 184   0.0000       0.493713        13.4346 
 185   0.0000       0.497952        13.5500 
 186   0.0000       0.499682        13.5970 
 187   0.0000       0.499709        13.5978 
 188   0.0000       0.503675        13.7057 
 189   0.0000       0.504322        13.7233 
 190   0.0000       0.508451        13.8356 
 191   0.0000       0.512981        13.9589 
 192   0.0000       0.516054        14.0425 
 193   0.0000       0.518949        14.1213 
 194   0.0000       0.523210        14.2373 
 195   0.0000       0.531531        14.4637 
 196   0.0000       0.533252        14.5105 
 197   0.0000       0.538418        14.6511 
 198   0.0000       0.544806        14.8249 
 199   0.0000       0.545936        14.8557 
 200   0.0000       0.549946        14.9648 
 201   0.0000       0.552770        15.0416 
 202   0.0000       0.558111        15.1870 
 203   0.0000       0.560241        15.2449 
 204   0.0000       0.568293        15.4640 
 205   0.0000       0.569403        15.4943 
 206   0.0000       0.574956        15.6453 
 207   0.0000       0.577556        15.7161 
 208   0.0000       0.583637        15.8816 
 209   0.0000       0.586532        15.9604 
 210   0.0000       0.587517        15.9871 
 211   0.0000       0.594945        16.1893 
 212   0.0000       0.597815        16.2674 
 213   0.0000       0.598594        16.2886 
 214   0.0000       0.604221        16.4417 
 215   0.0000       0.605111        16.4659 
 216   0.0000       0.606707        16.5093 
 217   0.0000       0.615766        16.7558 
 218   0.0000       0.627753        17.0820 
 219   0.0000       0.628379        17.0990 
 220   0.0000       0.635534        17.2938 
 221   0.0000       0.637875        17.3575 
 222   0.0000       0.641526        17.4568 
 223   0.0000       0.645233        17.5577 
 224   0.0000       0.652479        17.7549 
 225   0.0000       0.659680        17.9508 
 226   0.0000       0.665902        18.1201 
 227   0.0000       0.673072        18.3152 
 228   0.0000       0.673548        18.3282 
 229   0.0000       0.684012        18.6129 
 230   0.0000       0.690733        18.7958 
 231   0.0000       0.695664        18.9300 
 232   0.0000       0.701390        19.0858 
 233   0.0000       0.701631        19.0924 
 234   0.0000       0.709257        19.2999 
 235   0.0000       0.718478        19.5508 
 236   0.0000       0.723338        19.6830 
 237   0.0000       0.735264        20.0076 
 238   0.0000       0.740470        20.1492 
 239   0.0000       0.748548        20.3690 
 240   0.0000       0.755125        20.5480 
 241   0.0000       0.760396        20.6914 
 242   0.0000       0.766243        20.8505 
 243   0.0000       0.774770        21.0826 
 244   0.0000       0.781161        21.2565 
 245   0.0000       0.783880        21.3304 
 246   0.0000       0.785781        21.3822 
 247   0.0000       0.789839        21.4926 
 248   0.0000       0.790464        21.5096 
 249   0.0000       0.793819        21.6009 
 250   0.0000       0.799000        21.7419 
 251   0.0000       0.806009        21.9326 
 252   0.0000       0.808188        21.9919 
 253   0.0000       0.813309        22.1313 
 254   0.0000       0.817111        22.2347 
 255   0.0000       0.817477        22.2447 
 256   0.0000       0.825119        22.4526 
 257   0.0000       0.829065        22.5600 
 258   0.0000       0.837968        22.8023 
 259   0.0000       0.842874        22.9358 
 260   0.0000       0.850897        23.1541 
 261   0.0000       0.852329        23.1931 
 262   0.0000       0.854995        23.2656 
 263   0.0000       0.858647        23.3650 
 264   0.0000       0.861554        23.4441 
 265   0.0000       0.868340        23.6287 
 266   0.0000       0.873255        23.7625 
 267   0.0000       0.881298        23.9813 
 268   0.0000       0.881853        23.9964 
 269   0.0000       0.887632        24.1537 
 270   0.0000       0.888111        24.1667 
 271   0.0000       0.898837        24.4586 
 272   0.0000       0.904645        24.6166 
 273   0.0000       0.906158        24.6578 
 274   0.0000       0.910159        24.7667 
 275   0.0000       0.916404        24.9366 
 276   0.0000       0.929295        25.2874 
 277   0.0000       0.930750        25.3270 
 278   0.0000       0.941258        25.6129 
 279   0.0000       0.942500        25.6467 
 280   0.0000       0.955779        26.0081 
 281   0.0000       0.955954        26.0128 
 282   0.0000       0.964666        26.2499 
 283   0.0000       0.970954        26.4210 
 284   0.0000       0.971527        26.4366 
 285   0.0000       0.972406        26.4605 
 286   0.0000       0.980680        26.6857 
 287   0.0000       0.982776        26.7427 
 288   0.0000       0.991045        26.9677 
 289   0.0000       0.991908        26.9912 
 290   0.0000       0.996566        27.1179 
 291   0.0000       1.008960        27.4552 
 292   0.0000       1.009888        27.4805 
 293   0.0000       1.015452        27.6319 
 294   0.0000       1.018452        27.7135 
 295   0.0000       1.020409        27.7667 
 296   0.0000       1.037046        28.2195 
 297   0.0000       1.041449        28.3393 
 298   0.0000       1.045646        28.4535 
 299   0.0000       1.046199        28.4685 
 300   0.0000       1.059028        28.8176 
 301   0.0000       1.065423        28.9916 
 302   0.0000       1.073825        29.2203 
 303   0.0000       1.075932        29.2776 
 304   0.0000       1.085677        29.5428 
 305   0.0000       1.092058        29.7164 
 306   0.0000       1.093945        29.7678 
 307   0.0000       1.103739        30.0343 
 308   0.0000       1.107082        30.1252 
 309   0.0000       1.120282        30.4844 
 310   0.0000       1.129346        30.7311 
 311   0.0000       1.137118        30.9426 
 312   0.0000       1.143023        31.1032 
 313   0.0000       1.155084        31.4314 
 314   0.0000       1.163230        31.6531 
 315   0.0000       1.168540        31.7976 
 316   0.0000       1.169423        31.8216 
 317   0.0000       1.172178        31.8966 
 318   0.0000       1.188208        32.3328 
 319   0.0000       1.190832        32.4042 
 320   0.0000       1.200977        32.6803 
 321   0.0000       1.215342        33.0711 
 322   0.0000       1.225171        33.3386 
 323   0.0000       1.227969        33.4147 
 324   0.0000       1.236170        33.6379 
 325   0.0000       1.239429        33.7266 
 326   0.0000       1.252055        34.0702 
 327   0.0000       1.260706        34.3056 
 328   0.0000       1.265631        34.4396 
 329   0.0000       1.266728        34.4694 
 330   0.0000       1.268218        34.5100 
 331   0.0000       1.270064        34.5602 
 332   0.0000       1.278379        34.7865 
 333   0.0000       1.286873        35.0176 
 334   0.0000       1.299958        35.3736 
 335   0.0000       1.308398        35.6033 
 336   0.0000       1.316481        35.8233 
 337   0.0000       1.319064        35.8936 
 338   0.0000       1.325550        36.0701 
 339   0.0000       1.334088        36.3024 
 340   0.0000       1.340483        36.4764 
 341   0.0000       1.349586        36.7241 
 342   0.0000       1.358497        36.9666 
 343   0.0000       1.361715        37.0542 
 344   0.0000       1.363709        37.1084 
 345   0.0000       1.372552        37.3490 
 346   0.0000       1.376612        37.4595 
 347   0.0000       1.378011        37.4976 
 348   0.0000       1.382467        37.6188 
 349   0.0000       1.390605        37.8403 
 350   0.0000       1.390651        37.8415 
 351   0.0000       1.393457        37.9179 
 352   0.0000       1.398385        38.0520 
 353   0.0000       1.403137        38.1813 
 354   0.0000       1.412999        38.4497 
 355   0.0000       1.414666        38.4950 
 356   0.0000       1.423407        38.7329 
 357   0.0000       1.423881        38.7458 
 358   0.0000       1.445468        39.3332 
 359   0.0000       1.449393        39.4400 
 360   0.0000       1.454823        39.5877 
 361   0.0000       1.461502        39.7695 
 362   0.0000       1.473577        40.0981 
 363   0.0000       1.479070        40.2475 
 364   0.0000       1.497469        40.7482 
 365   0.0000       1.502713        40.8909 
 366   0.0000       1.507743        41.0278 
 367   0.0000       1.525887        41.5215 
 368   0.0000       1.533789        41.7365 
 369   0.0000       1.537957        41.8499 
 370   0.0000       1.542648        41.9776 
 371   0.0000       1.553264        42.2665 
 372   0.0000       1.560510        42.4636 
 373   0.0000       1.569169        42.6993 
 374   0.0000       1.577745        42.9326 
 375   0.0000       1.588361        43.2215 
 376   0.0000       1.599046        43.5123 
 377   0.0000       1.602146        43.5966 
 378   0.0000       1.604111        43.6501 
 379   0.0000       1.612486        43.8780 
 380   0.0000       1.615671        43.9646 
 381   0.0000       1.623353        44.1737 
 382   0.0000       1.631034        44.3827 
 383   0.0000       1.638468        44.5850 
 384   0.0000       1.643530        44.7227 
 385   0.0000       1.643763        44.7291 
 386   0.0000       1.656717        45.0816 
 387   0.0000       1.666082        45.3364 
 388   0.0000       1.666955        45.3602 
 389   0.0000       1.677580        45.6493 
 390   0.0000       1.684614        45.8407 
 391   0.0000       1.686124        45.8818 
 392   0.0000       1.691007        46.0146 
 393   0.0000       1.703344        46.3503 
 394   0.0000       1.704684        46.3868 
 395   0.0000       1.710771        46.5525 
 396   0.0000       1.718043        46.7503 
 397   0.0000       1.726898        46.9913 
 398   0.0000       1.728281        47.0289 
 399   0.0000       1.738100        47.2961 
 400   0.0000       1.740697        47.3668 
 401   0.0000       1.745390        47.4945 
 402   0.0000       1.751981        47.6738 
 403   0.0000       1.752064        47.6761 
 404   0.0000       1.758194        47.8429 
 405   0.0000       1.771778        48.2125 
 406   0.0000       1.774625        48.2900 
 407   0.0000       1.780163        48.4407 
 408   0.0000       1.786960        48.6257 
 409   0.0000       1.789876        48.7050 
 410   0.0000       1.795340        48.8537 
 411   0.0000       1.796229        48.8779 
 412   0.0000       1.805235        49.1229 
 413   0.0000       1.811742        49.3000 
 414   0.0000       1.814153        49.3656 
 415   0.0000       1.817384        49.4535 
 416   0.0000       1.821530        49.5664 
 417   0.0000       1.837148        49.9913 
 418   0.0000       1.837676        50.0057 
 419   0.0000       1.848817        50.3089 
 420   0.0000       1.852459        50.4080 
 421   0.0000       1.854340        50.4591 
 422   0.0000       1.858789        50.5802 
 423   0.0000       1.861326        50.6493 
 424   0.0000       1.876099        51.0512 
 425   0.0000       1.879729        51.1500 
 426   0.0000       1.885928        51.3187 
 427   0.0000       1.886346        51.3301 
 428   0.0000       1.897220        51.6260 
 429   0.0000       1.901051        51.7302 
 430   0.0000       1.909763        51.9673 
 431   0.0000       1.910129        51.9772 
 432   0.0000       1.911888        52.0251 
 433   0.0000       1.912593        52.0443 
 434   0.0000       1.935126        52.6574 
 435   0.0000       1.936241        52.6878 
 436   0.0000       1.946795        52.9750 
 437   0.0000       1.954200        53.1765 
 438   0.0000       1.955881        53.2222 
 439   0.0000       1.963610        53.4325 
 440   0.0000       1.974057        53.7168 
 441   0.0000       1.975008        53.7427 
 442   0.0000       1.986704        54.0610 
 443   0.0000       1.992082        54.2073 
 444   0.0000       2.010488        54.7082 
 445   0.0000       2.018530        54.9270 
 446   0.0000       2.020218        54.9729 
 447   0.0000       2.029808        55.2339 
 448   0.0000       2.035918        55.4001 
 449   0.0000       2.043386        55.6034 
 450   0.0000       2.046687        55.6932 
 451   0.0000       2.049725        55.7759 
 452   0.0000       2.067870        56.2696 
 453   0.0000       2.078572        56.5608 
 454   0.0000       2.084108        56.7115 
 455   0.0000       2.107594        57.3506 
 456   0.0000       2.108804        57.3835 
 457   0.0000       2.120783        57.7094 
 458   0.0000       2.133677        58.0603 
 459   0.0000       2.142341        58.2961 
 460   0.0000       2.142372        58.2969 
 461   0.0000       2.157067        58.6968 
 462   0.0000       2.163819        58.8805 
 463   0.0000       2.169029        59.0223 
 464   0.0000       2.175583        59.2006 
 465   0.0000       2.178845        59.2894 
 466   0.0000       2.181956        59.3740 
 467   0.0000       2.191051        59.6215 
 468   0.0000       2.202791        59.9410 
 469   0.0000       2.220582        60.4251 
 470   0.0000       2.222873        60.4874 
 471   0.0000       2.240705        60.9727 
 472   0.0000       2.250320        61.2343 
 473   0.0000       2.265346        61.6432 
 474   0.0000       2.265792        61.6553 
 475   0.0000       2.274589        61.8947 
 476   0.0000       2.279990        62.0417 
 477   0.0000       2.286437        62.2171 
 478   0.0000       2.297319        62.5132 
 479   0.0000       2.313151        62.9440 
 480   0.0000       2.321725        63.1774 
 481   0.0000       2.322806        63.2068 
 482   0.0000       2.338066        63.6220 
 483   0.0000       2.342400        63.7400 
 484   0.0000       2.350516        63.9608 
 485   0.0000       2.354532        64.0701 
 486   0.0000       2.369425        64.4753 
 487   0.0000       2.372089        64.5478 
 488   0.0000       2.376727        64.6740 
 489   0.0000       2.381574        64.8059 
 490   0.0000       2.385762        64.9199 
 491   0.0000       2.390456        65.0476 
 492   0.0000       2.399157        65.2844 
 493   0.0000       2.403462        65.4015 
 494   0.0000       2.410458        65.5919 
 495   0.0000       2.419068        65.8262 
 496   0.0000       2.425913        66.0124 
 497   0.0000       2.432761        66.1988 
 498   0.0000       2.449926        66.6659 
 499   0.0000       2.450405        66.6789 
 500   0.0000       2.456439        66.8431 
 501   0.0000       2.465266        67.0833 
 502   0.0000       2.473804        67.3156 
 503   0.0000       2.479015        67.4574 
 504   0.0000       2.481080        67.5136 
 505   0.0000       2.500414        68.0397 
 506   0.0000       2.508881        68.2701 
 507   0.0000       2.510550        68.3155 
 508   0.0000       2.525811        68.7308 
 509   0.0000       2.529624        68.8346 
 510   0.0000       2.531224        68.8781 
 511   0.0000       2.538973        69.0890 
 512   0.0000       2.559582        69.6498 
 513   0.0000       2.561172        69.6930 
 514   0.0000       2.567860        69.8750 
 515   0.0000       2.580381        70.2157 
 516   0.0000       2.597056        70.6695 
 517   0.0000       2.600098        70.7523 
 518   0.0000       2.602510        70.8179 
 519   0.0000       2.616794        71.2066 
 520   0.0000       2.623125        71.3789 
 521   0.0000       2.634698        71.6938 
 522   0.0000       2.651324        72.1462 
 523   0.0000       2.654480        72.2321 
 524   0.0000       2.662145        72.4406 
 525   0.0000       2.668308        72.6083 
 526   0.0000       2.677281        72.8525 
 527   0.0000       2.681999        72.9809 
 528   0.0000       2.686060        73.0914 
 529   0.0000       2.690106        73.2015 
 530   0.0000       2.706825        73.6565 
 531   0.0000       2.721736        74.0622 
 532   0.0000       2.732020        74.3420 
 533   0.0000       2.736499        74.4639 
 534   0.0000       2.746136        74.7262 
 535   0.0000       2.748212        74.7826 
 536   0.0000       2.755335        74.9765 
 537   0.0000       2.755666        74.9855 
 538   0.0000       2.768182        75.3261 
 539   0.0000       2.770017        75.3760 
 540   0.0000       2.777648        75.5836 
 541   0.0000       2.786428        75.8226 
 542   0.0000       2.791596        75.9632 
 543   0.0000       2.796367        76.0930 
 544   0.0000       2.802507        76.2601 
 545   0.0000       2.803864        76.2970 
 546   0.0000       2.807902        76.4069 
 547   0.0000       2.819618        76.7257 
 548   0.0000       2.827196        76.9319 
 549   0.0000       2.827382        76.9370 
 550   0.0000       2.830507        77.0220 
 551   0.0000       2.836567        77.1869 
 552   0.0000       2.840075        77.2824 
 553   0.0000       2.849144        77.5292 
 554   0.0000       2.853464        77.6467 
 555   0.0000       2.866919        78.0128 
 556   0.0000       2.867240        78.0216 
 557   0.0000       2.871172        78.1286 
 558   0.0000       2.873800        78.2001 
 559   0.0000       2.885857        78.5282 
 560   0.0000       2.888389        78.5971 
 561   0.0000       2.894676        78.7682 
 562   0.0000       2.899360        78.8956 
 563   0.0000       2.901091        78.9427 
 564   0.0000       2.903412        79.0059 
 565   0.0000       2.905157        79.0533 
 566   0.0000       2.912661        79.2575 
 567   0.0000       2.920202        79.4627 
 568   0.0000       2.922326        79.5205 
 569   0.0000       2.924375        79.5763 
 570   0.0000       2.931271        79.7639 
 571   0.0000       2.938437        79.9589 
 572   0.0000       2.941104        80.0315 
 573   0.0000       2.949875        80.2702 
 574   0.0000       2.954217        80.3883 
 575   0.0000       2.955851        80.4328 
 576   0.0000       2.963638        80.6447 
 577   0.0000       2.971983        80.8718 
 578   0.0000       2.973160        80.9038 
 579   0.0000       2.973528        80.9138 
 580   0.0000       2.981977        81.1437 
[...]
    88a ->  95a  :     0.072766 

STATE  9:  E=   0.214848 au      5.846 eV    47153.8 cm**-1 <S**2> =   0.000000
    83a ->  92a  :     0.074620 
    83a ->  93a  :     0.024669 
    84a ->  90a  :     0.055516 
    84a ->  92a  :     0.024131 
    84a ->  93a  :     0.074652 
    85a ->  91a  :     0.278828 
    86a ->  89a  :     0.055131 
    86a ->  93a  :     0.031165 
    87a ->  90a  :     0.055477 
    87a ->  92a  :     0.012783 
    88a ->  95a  :     0.253469 

STATE 10:  E=   0.221158 au      6.018 eV    48538.6 cm**-1 <S**2> =   0.000000
    82a ->  89a  :     0.016572 
    83a ->  90a  :     0.027960 
    83a ->  92a  :     0.013141 
    83a ->  93a  :     0.017779 
    84a ->  93a  :     0.012725 
    85a ->  91a  :     0.038974 
    86a ->  90a  :     0.663776 
    86a ->  92a  :     0.023604 
    86a ->  93a  :     0.012808 
    87a ->  89a  :     0.059216 
    87a ->  94a  :     0.034758 
    88a ->  95a  :     0.022372 

STATE 11:  E=   0.225819 au      6.145 eV    49561.5 cm**-1 <S**2> =   0.000000
    83a ->  91a  :     0.072235 
    84a ->  91a  :     0.332912 
    85a ->  90a  :     0.117106 
    85a ->  93a  :     0.264019 
    86a ->  91a  :     0.097571 
    87a ->  91a  :     0.026589 
    88a ->  92a  :     0.043937 

STATE 12:  E=   0.230372 au      6.269 eV    50560.9 cm**-1 <S**2> =   0.000000
    82a ->  89a  :     0.293721 
    83a ->  89a  :     0.024647 
    84a ->  90a  :     0.010722 
    85a ->  91a  :     0.016268 
    86a ->  90a  :     0.049178 
    87a ->  92a  :     0.012055 
    87a ->  93a  :     0.031498 
    87a ->  94a  :     0.480872 

STATE 13:  E=   0.214708 au      5.842 eV    47122.9 cm**-1 <S**2> =   0.000000
    83a ->  95a  :     0.031655 
    84a ->  91a  :     0.028974 
    84a ->  95a  :     0.063740 
    85a ->  90a  :     0.091964 
    85a ->  92a  :     0.495541 
    86a ->  95a  :     0.024412 
    88a ->  93a  :     0.207088 
    88a ->  94a  :     0.011640 

STATE 14:  E=   0.219872 au      5.983 eV    48256.3 cm**-1 <S**2> =   0.000000
    79a ->  91a  :     0.010478 
    83a ->  90a  :     0.056538 
    83a ->  92a  :     0.036359 
    83a ->  93a  :     0.016723 
    84a ->  90a  :     0.033149 
    84a ->  92a  :     0.203294 
    84a ->  93a  :     0.013409 
    85a ->  91a  :     0.010463 
    85a ->  95a  :     0.107721 
    86a ->  92a  :     0.083890 
    87a ->  92a  :     0.037002 
    88a ->  91a  :     0.077720 
    88a ->  96a  :     0.206752 
    88a ->  97a  :     0.016835 
    88a -> 101a  :     0.014745 

STATE 15:  E=   0.226242 au      6.156 eV    49654.4 cm**-1 <S**2> =   0.000000
    83a ->  90a  :     0.021158 
    83a ->  92a  :     0.011168 
    84a ->  92a  :     0.072009 
    85a ->  95a  :     0.034967 
    86a ->  92a  :     0.027199 
    87a ->  92a  :     0.014943 
    88a ->  91a  :     0.026068 
    88a ->  95a  :     0.022752 
    88a ->  96a  :     0.550924 
    88a ->  97a  :     0.036737 
    88a ->  98a  :     0.012607 
    88a -> 101a  :     0.047633 
    88a -> 105a  :     0.013063 

STATE 16:  E=   0.210434 au      5.726 eV    46184.9 cm**-1 <S**2> =   0.000000
    85a ->  89a  :     0.349928 
    85a ->  92a  :     0.020865 
    87a ->  91a  :     0.010605 
    88a ->  89a  :     0.029570 
    88a ->  94a  :     0.530344 

STATE 17:  E=   0.211306 au      5.750 eV    46376.3 cm**-1 <S**2> =   0.000000
    85a ->  89a  :     0.621782 
    88a ->  94a  :     0.331305 

STATE 18:  E=   0.229676 au      6.250 eV    50408.2 cm**-1 <S**2> =   0.000000
    84a ->  90a  :     0.012399 
    84a ->  92a  :     0.053665 
    84a ->  93a  :     0.064504 
    85a ->  91a  :     0.230849 
    85a ->  95a  :     0.015654 
    86a ->  90a  :     0.015447 
    86a ->  93a  :     0.011843 
    86a ->  94a  :     0.013494 
    87a ->  94a  :     0.024344 
    88a ->  95a  :     0.452517 

STATE 19:  E=   0.221530 au      6.028 eV    48620.1 cm**-1 <S**2> =   0.000000
    78a ->  89a  :     0.047206 
    82a ->  90a  :     0.280416 
    82a ->  92a  :     0.020328 
    82a ->  93a  :     0.017634 
    83a ->  89a  :     0.079224 
    83a ->  90a  :     0.012304 
    83a ->  94a  :     0.035196 
    84a ->  89a  :     0.018854 
    84a ->  94a  :     0.016502 
    86a ->  93a  :     0.021897 
    86a ->  94a  :     0.357724 
    87a ->  94a  :     0.014584 

STATE 20:  E=   0.225002 au      6.123 eV    49382.3 cm**-1 <S**2> =   0.000000
    84a ->  91a  :     0.035417 
    87a ->  91a  :     0.888949 
    88a ->  93a  :     0.010916 
    88a ->  94a  :     0.019318 

STATE 21:  E=   0.219837 au      5.982 eV    48248.6 cm**-1 <S**2> =   0.000000
    82a ->  89a  :     0.162337 
    82a ->  90a  :     0.029066 
    83a ->  89a  :     0.176179 
    84a ->  89a  :     0.293451 
    86a ->  89a  :     0.048449 
    86a ->  94a  :     0.026196 
    87a ->  92a  :     0.102092 
    87a ->  93a  :     0.016343 
    87a ->  94a  :     0.101221 

STATE 22:  E=   0.219451 au      5.972 eV    48163.9 cm**-1 <S**2> =   0.000000
    82a ->  89a  :     0.102405 
    83a ->  89a  :     0.135085 
    84a ->  89a  :     0.616957 
    87a ->  92a  :     0.024566 
    87a ->  93a  :     0.010884 
    87a ->  94a  :     0.062314 
    88a ->  96a  :     0.011157 

STATE 23:  E=   0.227005 au      6.177 eV    49821.8 cm**-1 <S**2> =   0.000000
    82a ->  92a  :     0.011871 
    83a ->  89a  :     0.152597 
    84a ->  92a  :     0.038769 
    86a ->  89a  :     0.019154 
    86a ->  94a  :     0.010786 
    87a ->  90a  :     0.037593 
    87a ->  92a  :     0.621975 
    87a ->  93a  :     0.013871 
    87a ->  94a  :     0.020386 
    88a ->  95a  :     0.010147 

STATE 24:  E=   0.227366 au      6.187 eV    49901.0 cm**-1 <S**2> =   0.000000
    82a ->  89a  :     0.373070 
    83a ->  89a  :     0.306119 
    83a ->  94a  :     0.010336 
    86a ->  89a  :     0.025684 
    87a ->  92a  :     0.079029 
    87a ->  93a  :     0.037775 
    87a ->  94a  :     0.112007 

STATE 25:  E=   0.238711 au      6.496 eV    52391.0 cm**-1 <S**2> =   0.000000
    79a ->  93a  :     0.023145 
    83a ->  91a  :     0.350653 
    84a ->  91a  :     0.280550 
    85a ->  92a  :     0.080725 
    85a ->  93a  :     0.017813 
    86a ->  91a  :     0.098154 
    87a ->  91a  :     0.029439 
    88a ->  93a  :     0.068433 
    88a ->  94a  :     0.011570 

STATE 26:  E=   0.238248 au      6.483 eV    52289.4 cm**-1 <S**2> =   0.000000
    79a ->  95a  :     0.014649 
    83a ->  90a  :     0.189057 
    83a ->  92a  :     0.115003 
    83a ->  93a  :     0.027026 
    84a ->  90a  :     0.167109 
    84a ->  92a  :     0.174951 
    84a ->  93a  :     0.018328 
    85a ->  91a  :     0.050355 
    86a ->  92a  :     0.017721 
    87a ->  92a  :     0.014741 
    87a ->  93a  :     0.065107 
    88a ->  95a  :     0.072113 

STATE 27:  E=   0.250429 au      6.815 eV    54962.8 cm**-1 <S**2> =   0.000000
    83a -> 100a  :     0.037947 
    84a -> 100a  :     0.010480 
    88a ->  96a  :     0.070997 
    88a ->  97a  :     0.780322 
    88a -> 101a  :     0.011274 

STATE 28:  E=   0.242480 au      6.598 eV    53218.2 cm**-1 <S**2> =   0.000000
    83a ->  90a  :     0.013190 
    83a ->  92a  :     0.035770 
    85a ->  91a  :     0.014034 
    86a ->  92a  :     0.012682 
    87a ->  90a  :     0.042536 
    87a ->  93a  :     0.687726 
    87a ->  94a  :     0.098031 
    88a ->  95a  :     0.011719 

STATE 29:  E=   0.248776 au      6.770 eV    54600.1 cm**-1 <S**2> =   0.000000
    79a ->  91a  :     0.025286 
    83a ->  92a  :     0.154110 
    83a ->  93a  :     0.093795 
    84a ->  90a  :     0.297689 
    84a ->  92a  :     0.065779 
    84a ->  93a  :     0.125646 
    85a ->  91a  :     0.019008 
    86a ->  90a  :     0.019240 
    86a ->  92a  :     0.083272 
    87a ->  93a  :     0.030238 
    88a ->  95a  :     0.018433 

STATE 30:  E=   0.273233 au      7.435 eV    59967.6 cm**-1 <S**2> =   0.000000
    85a ->  90a  :     0.043280 
    87a ->  95a  :     0.010599 
    87a ->  96a  :     0.184601 
    87a ->  97a  :     0.245608 
    87a ->  98a  :     0.299248 
    87a ->  99a  :     0.043663 
    87a -> 104a  :     0.040597 
    87a -> 109a  :     0.018297 
    88a -> 100a  :     0.018689 


-------------------------
TD-DFT-EXCITATION SPECTRA
-------------------------

Center of mass = (  0.0660, -0.0000, -0.0170)
Calculating the Dipole integrals                  ... done
Transforming integrals                            ... done
Calculating the Linear Momentum integrals         ... done
Transforming integrals                            ... done
Calculating angular momentum integrals            ... done
Transforming integrals                            ... done

-----------------------------------------------------------------------------
         ABSORPTION SPECTRUM VIA TRANSITION ELECTRIC DIPOLE MOMENTS
-----------------------------------------------------------------------------
State   Energy    Wavelength  fosc         T2        TX        TY        TZ  
        (cm-1)      (nm)                 (au**2)    (au)      (au)      (au) 
-----------------------------------------------------------------------------
   1   29891.4    334.5   0.000664015   0.00731   0.00003   0.08552  -0.00001
   2   36475.2    274.2   0.192916295   1.74119   1.29636  -0.00001  -0.24627
   3   34705.0    288.1   0.177407127   1.68289   0.00003   1.29726   0.00000
   4   33530.2    298.2   0.003169335   0.03112   0.16367  -0.00002  -0.06581
   5   33311.1    300.2   0.070560492   0.69735   0.81781   0.00002  -0.16890
   6   35360.1    282.8   0.185483514   1.72690   0.00000  -1.31412   0.00001
   7   38077.9    262.6   0.010318018   0.08921   0.00002   0.29868  -0.00001
   8   44891.5    222.8   1.287369948   9.44093  -1.41424  -0.00001  -2.72779
   9   47153.8    212.1   0.183673335   1.28235  -0.00690   0.00001  -1.13239
  10   48538.6    206.0   0.717482500   4.86631  -2.06634   0.00003   0.77236
  11   49561.5    201.8   0.754671463   5.01290  -0.00005  -2.23895  -0.00004
  12   50560.9    197.8   0.010178622   0.06628  -0.23245  -0.00006  -0.11064
  13   47122.9    212.2   0.441659891   3.08554  -0.00004  -1.75657   0.00001
  14   48256.3    207.2   0.146807700   1.00154  -0.94250  -0.00001   0.33651
  15   49654.4    201.4   0.093105766   0.61730  -0.71486   0.00006  -0.32598
  16   46184.9    216.5   0.016102723   0.11478  -0.00040   0.33880   0.00012
  17   46376.3    215.6   0.008481110   0.06020  -0.00013  -0.24537   0.00004
  18   50408.2    198.4   0.534503147   3.49080  -1.76364  -0.00005   0.61675
  19   48620.1    205.7   0.020866652   0.14129  -0.25395   0.00002   0.27712
  20   49382.3    202.5   0.009783669   0.06522  -0.00026   0.25539   0.00011
  21   48248.6    207.3   0.033787716   0.23054  -0.07517  -0.00004   0.47423
  22   48163.9    207.6   0.016493699   0.11274   0.25606   0.00001  -0.21719
  23   49821.8    200.7   0.011005305   0.07272   0.26876   0.00006   0.02211
  24   49901.0    200.4   0.015076930   0.09947  -0.09888  -0.00002   0.29948
  25   52391.0    190.9   0.220285107   1.38422  -0.00025   1.17653   0.00007
  26   52289.4    191.2   0.214060825   1.34772  -1.09509  -0.00025   0.38537
  27   54962.8    181.9   0.000386845   0.00232   0.04763   0.00004   0.00696
  28   53218.2    187.9   0.024812758   0.15349  -0.02330  -0.00003   0.39109
  29   54600.1    183.1   0.032160077   0.19391  -0.43949   0.00002   0.02751
  30   59967.6    166.8   0.000018232   0.00010  -0.00000   0.01000   0.00003

-----------------------------------------------------------------------------
         ABSORPTION SPECTRUM VIA TRANSITION VELOCITY DIPOLE MOMENTS
-----------------------------------------------------------------------------
State   Energy    Wavelength   fosc        P2         PX        PY        PZ  
        (cm-1)      (nm)                 (au**2)     (au)      (au)      (au) 
-----------------------------------------------------------------------------
   1   29891.4    334.5   0.001143408   0.00023  -0.00001  -0.01528   0.00000
   2   36475.2    274.2   0.206327554   0.05144  -0.22276   0.00000   0.04260
   3   34705.0    288.1   0.217973751   0.05170  -0.00001  -0.22738  -0.00000
   4   33530.2    298.2   0.004347432   0.00100  -0.02978   0.00000   0.01047
   5   33311.1    300.2   0.099822219   0.02273  -0.14758  -0.00000   0.03078
   6   35360.1    282.8   0.256605474   0.06201   0.00000   0.24903  -0.00000
   7   38077.9    262.6   0.014399537   0.00375  -0.00000  -0.06122   0.00000
   8   44891.5    222.8   1.450099966   0.44491   0.30795   0.00000   0.59167
   9   47153.8    212.1   0.190970525   0.06154   0.00004  -0.00000   0.24808
  10   48538.6    206.0   0.802131562   0.26610   0.48337  -0.00001  -0.18013
  11   49561.5    201.8   0.813656932   0.27561   0.00001   0.52498   0.00001
  12   50560.9    197.8   0.010583389   0.00366   0.05471   0.00001   0.02576
  13   47122.9    212.2   0.557286225   0.17948   0.00001   0.42365  -0.00000
  14   48256.3    207.2   0.182052189   0.06004   0.23077   0.00000  -0.08239
  15   49654.4    201.4   0.111188259   0.03773   0.17696  -0.00001   0.08013
  16   46184.9    216.5   0.022671896   0.00716   0.00010  -0.08460  -0.00003
  17   46376.3    215.6   0.011848113   0.00376   0.00002   0.06128  -0.00001
  18   50408.2    198.4   0.648422369   0.22339   0.44617   0.00001  -0.15595
  19   48620.1    205.7   0.027235433   0.00905   0.06419  -0.00000  -0.07022
  20   49382.3    202.5   0.012792085   0.00432   0.00006  -0.06571  -0.00003
  21   48248.6    207.3   0.044539764   0.01469   0.01833   0.00001  -0.11980
  22   48163.9    207.6   0.022473965   0.00740  -0.06543   0.00000   0.05583
  23   49821.8    200.7   0.013843450   0.00471  -0.06854  -0.00002  -0.00392
  24   49901.0    200.4   0.019853778   0.00677   0.02714   0.00000  -0.07768
  25   52391.0    190.9   0.281449757   0.10078   0.00007  -0.31746  -0.00002
  26   52289.4    191.2   0.274310133   0.09803   0.29545   0.00007  -0.10362
  27   54962.8    181.9   0.000426863   0.00016  -0.01255  -0.00000   0.00168
  28   53218.2    187.9   0.031926322   0.01161   0.00565   0.00001  -0.10761
  29   54600.1    183.1   0.042256600   0.01577   0.12526  -0.00000  -0.00889
  30   59967.6    166.8   0.000009288   0.00000   0.00000   0.00195  -0.00001

-------------------------------------------------------------------
                             CD SPECTRUM
-------------------------------------------------------------------
State  Energy     Wavelength     R         MX        MY        MZ   
       (cm-1)       (nm)     (1e40*cgs)   (au)      (au)      (au)  
-------------------------------------------------------------------
   1   29891.4    334.5     -0.00260  -0.18697   0.00001  -0.04072
   2   36475.2    274.2      0.00160   0.00000   0.12435   0.00000
   3   34705.0    288.1      0.00944   0.30472   0.00001   0.75071
   4   33530.2    298.2     -0.00023  -0.00000   0.01287  -0.00000
   5   33311.1    300.2      0.00058   0.00000  -0.06371  -0.00001
   6   35360.1    282.8      0.00344   0.05840  -0.00000   0.75596
   7   38077.9    262.6      0.00068   0.02755   0.00000  -0.08587
   8   44891.5    222.8      0.03781   0.00002   2.00401  -0.00004
   9   47153.8    212.1      0.00113   0.00000   0.60852   0.00000
  10   48538.6    206.0     -0.00276   0.00000  -0.16763   0.00001
  11   49561.5    201.8     -0.06284  -0.35662   0.00008  -0.41072
  12   50560.9    197.8      0.03116  -0.00001  -0.98818  -0.00004
  13   47122.9    212.2     -0.00190   0.24029   0.00001   1.79045
  14   48256.3    207.2     -0.00331  -0.00000   0.20709  -0.00003
  15   49654.4    201.4     -0.00586   0.00002   0.17860   0.00004
  16   46184.9    216.5     -0.03555   0.03443  -0.00001  -0.50057
  17   46376.3    215.6     -0.00100   0.10299  -0.00000   0.26316
  18   50408.2    198.4      0.03539  -0.00001  -0.08257   0.00010
  19   48620.1    205.7     -0.00116  -0.00000  -0.17125   0.00000
  20   49382.3    202.5     -0.01493  -0.00294  -0.00002  -0.26420
  21   48248.6    207.3      0.00940  -0.00000  -0.36549   0.00001
  22   48163.9    207.6      0.00159  -0.00001   0.15971  -0.00002
  23   49821.8    200.7     -0.00546  -0.00001  -0.12709  -0.00000
  24   49901.0    200.4      0.00284   0.00002  -0.03051   0.00002
  25   52391.0    190.9     -0.01617  -0.17153   0.00001  -1.29282
  26   52289.4    191.2      0.01322   0.00005   0.09261   0.00027
  27   54962.8    181.9      0.00270  -0.00001   0.17268  -0.00002
  28   53218.2    187.9     -0.00505  -0.00002  -0.14974  -0.00004
  29   54600.1    183.1     -0.00389   0.00003   0.13343   0.00003
  30   59967.6    166.8      0.00202   0.08319  -0.00002   0.18667

Total run time:    14465.661 sec

           *** ORCA-CIS/TD-DFT FINISHED WITHOUT ERROR ***

Maximum memory used throughout the entire CIS-calculation: 4274.2 MB

-----------------------
CIS/TD-DFT TOTAL ENERGY
-----------------------

    E(SCF)  =  -1017.539189073 Eh
    DE(CIS) =      0.136195391 Eh (Root  1)
    ----------------------------- ---------
    E(tot)  =  -1017.402993682 Eh


-------------------------   --------------------
FINAL SINGLE POINT ENERGY     -1017.402993681727
-------------------------   --------------------


                            ***************************************
                            *     ORCA property calculations      *
                            ***************************************


  WARNING: The energy has been calculated at the MP2 level but the densities
           used in the property calculations are still SCF densities
           MP2 response densities have not been calculated 
           use %mp2 Density relaxed end
           or  %mp2 Density unrelaxed end

                                    ---------------------
                                    Active property flags
                                    ---------------------
   (+) Dipole Moment


------------------------------------------------------------------------------
                       ORCA ELECTRIC PROPERTIES CALCULATION
------------------------------------------------------------------------------

Dipole Moment Calculation                       ... on
Quadrupole Moment Calculation                   ... off
Polarizability Calculation                      ... off
GBWName                                         ... Me2-Acr_1_M06L_def2TZVP_coords.gbw
Electron density                                ... Me2-Acr_1_M06L_def2TZVP_coords.scfp
The origin for moment calculation is the CENTER OF MASS  = ( 0.066034, -0.000001 -0.016989)

-------------
DIPOLE MOMENT
-------------
                                X             Y             Z
Electronic contribution:     12.16888      -0.00018      -3.06791
Nuclear contribution   :    -11.75410       0.00018       3.02396
                        -----------------------------------------
Total Dipole Moment    :      0.41478       0.00001      -0.04395
                        -----------------------------------------
Magnitude (a.u.)       :      0.41710
Magnitude (Debye)      :      1.06018



--------------------
Rotational spectrum 
--------------------
 
Rotational constants in cm-1:     0.010615     0.006095     0.004924 
Rotational constants in MHz :   318.221091   182.736497   147.607039 

 Dipole components along the rotational axes: 
x,y,z [a.u.] :    -0.414546     0.000007    -0.046074 
x,y,z [Debye]:    -1.053691     0.000017    -0.117110 

 

Timings for individual modules:

Sum of individual times         ...    15378.664 sec (= 256.311 min)
GTO integral calculation        ...        4.469 sec (=   0.074 min)   0.0 %
SCF iterations                  ...      427.181 sec (=   7.120 min)   2.8 %
MP2 module                      ...      480.387 sec (=   8.006 min)   3.1 %
CIS module                      ...    14466.628 sec (= 241.110 min)  94.1 %
                             ****ORCA TERMINATED NORMALLY****
TOTAL RUN TIME: 0 days 4 hours 16 minutes 30 seconds 393 msec
