 Entering Gaussian System, Link 0=g09
 Input=/home/png4rjv/fotokatalizis/benchmark/OPCs/Me2-Acr_1_wB97XD_def2TZVP.gjf
 Output=/home/png4rjv/fotokatalizis/benchmark/OPCs/Me2-Acr_1_wB97XD_def2TZVP.log
 Initial command:
 /opt/nce/packages/global/g09/l1.exe "/home/png4rjv/fotokatalizis/benchmark/OPCs/Me2-Acr_1_wB97XD_def2TZVP/Gau-55234.inp" -scrdir="/home/png4rjv/fotokatalizis/benchmark/OPCs/Me2-Acr_1_wB97XD_def2TZVP/"
 Default is to use a total of  12 processors:
                               12 via shared-memory
                                1 via Linda
 Entering Link 1 = /opt/nce/packages/global/g09/l1.exe PID=     55235.
  
 Copyright (c) 1988,1990,1992,1993,1995,1998,2003,2009,2015,
            Gaussian, Inc.  All Rights Reserved.
  
 This is part of the Gaussian(R) 09 program.  It is based on
 the Gaussian(R) 03 system (copyright 2003, Gaussian, Inc.),
 the Gaussian(R) 98 system (copyright 1998, Gaussian, Inc.),
 the Gaussian(R) 94 system (copyright 1995, Gaussian, Inc.),
 the Gaussian 92(TM) system (copyright 1992, Gaussian, Inc.),
 the Gaussian 90(TM) system (copyright 1990, Gaussian, Inc.),
 the Gaussian 88(TM) system (copyright 1988, Gaussian, Inc.),
 the Gaussian 86(TM) system (copyright 1986, Carnegie Mellon
 University), and the Gaussian 82(TM) system (copyright 1983,
 Carnegie Mellon University). Gaussian is a federally registered
 trademark of Gaussian, Inc.
  
 This software contains proprietary and confidential information,
 including trade secrets, belonging to Gaussian, Inc.
  
 This software is provided under written license and may be
 used, copied, transmitted, or stored only in accord with that
 written license.
  
 The following legend is applicable only to US Government
 contracts under FAR:
  
                    RESTRICTED RIGHTS LEGEND
  
 Use, reproduction and disclosure by the US Government is
 subject to restrictions as set forth in subparagraphs (a)
 and (c) of the Commercial Computer Software - Restricted
 Rights clause in FAR 52.227-19.
  
 Gaussian, Inc.
 340 Quinnipiac St., Bldg. 40, Wallingford CT 06492
  
  
 ---------------------------------------------------------------
 Warning -- This program may not be used in any manner that
 competes with the business of Gaussian, Inc. or will provide
 assistance to any competitor of Gaussian, Inc.  The licensee
 of this program is prohibited from giving any competitor of
 Gaussian, Inc. access to this program.  By using this program,
 the user acknowledges that Gaussian, Inc. is engaged in the
 business of creating and licensing software in the field of
 computational chemistry and represents and warrants to the
 licensee that it is not a competitor of Gaussian, Inc. and that
 it will not use this program in any manner prohibited above.
 ---------------------------------------------------------------
  

 Cite this work as:
 Gaussian 09, Revision E.01,
 M. J. Frisch, G. W. Trucks, H. B. Schlegel, G. E. Scuseria, 
 M. A. Robb, J. R. Cheeseman, G. Scalmani, V. Barone, B. Mennucci, 
 G. A. Petersson, H. Nakatsuji, M. Caricato, X. Li, H. P. Hratchian, 
 A. F. Izmaylov, J. Bloino, G. Zheng, J. L. Sonnenberg, M. Hada, 
 M. Ehara, K. Toyota, R. Fukuda, J. Hasegawa, M. Ishida, T. Nakajima, 
 Y. Honda, O. Kitao, H. Nakai, T. Vreven, J. A. Montgomery, Jr., 
 J. E. Peralta, F. Ogliaro, M. Bearpark, J. J. Heyd, E. Brothers, 
 K. N. Kudin, V. N. Staroverov, T. Keith, R. Kobayashi, J. Normand, 
 K. Raghavachari, A. Rendell, J. C. Burant, S. S. Iyengar, J. Tomasi, 
 M. Cossi, N. Rega, J. M. Millam, M. Klene, J. E. Knox, J. B. Cross, 
 V. Bakken, C. Adamo, J. Jaramillo, R. Gomperts, R. E. Stratmann, 
 O. Yazyev, A. J. Austin, R. Cammi, C. Pomelli, J. W. Ochterski, 
 R. L. Martin, K. Morokuma, V. G. Zakrzewski, G. A. Voth, 
 P. Salvador, J. J. Dannenberg, S. Dapprich, A. D. Daniels, 
 O. Farkas, J. B. Foresman, J. V. Ortiz, J. Cioslowski, 
 and D. J. Fox, Gaussian, Inc., Wallingford CT, 2013.
 
 ******************************************
 Gaussian 09:  ES64L-G09RevE.01 30-Nov-2015
                 1-Apr-2021 
 ******************************************
 %chk=cp.chk
 Default route:  MaxDisk=500GB
 ----------------------------------------------------------------------
 #p wB97XD/def2TZVP opt freq=noraman nosymm int=ultrafine scrf=(SMD,sol
 vent=n,n-DiMethylFormamide)
 ----------------------------------------------------------------------
 1/14=-1,18=20,19=15,26=4,38=1/1,3;
 2/9=110,12=2,15=1,17=6,18=5,40=1/2;
 3/5=44,7=101,11=2,16=1,25=1,30=1,70=32201,71=1,72=148,74=-58,75=-5/1,2,3;
 4//1;
 5/5=2,38=5,53=148/2;
 6/7=2,8=2,9=2,10=2,28=1/1;
 7/30=1/1,2,3,16;
 1/14=-1,18=20,19=15,26=4/3(2);
 2/9=110,15=1/2;
 99//99;
 2/9=110,15=1/2;
 3/5=44,7=101,11=2,16=1,25=1,30=1,70=32205,71=1,72=148,74=-58,75=-5/1,2,3;
 4/5=5,16=3,69=1/1;
 5/5=2,38=5,53=148/2;
 7/30=1/1,2,3,16;
 1/14=-1,18=20,19=15,26=4/3(-5);
 2/9=110,15=1/2;
 6/7=2,8=2,9=2,10=2,19=2,28=1/1;
 99/9=1/99;
 Leave Link    1 at Thu Apr  1 09:54:19 2021, MaxMem=           0 cpu:         0.9
 (Enter /opt/nce/packages/global/g09/l101.exe)
 -----
 Title
 -----
 Symbolic Z-matrix:
 Charge =  0 Multiplicity = 1
 C                    -0.66421  -3.6601   -0.23066 
 C                    -0.04305  -2.43104  -0.42502 
 C                    -0.76236  -1.22513  -0.28797 
 C                    -2.12966  -1.26544   0.0589 
 C                    -2.72507  -2.52137   0.24291 
 C                    -2.01834  -3.71485   0.10451 
 C                    -2.97856   0.0002    0.21033 
 C                    -2.12942   1.26566   0.05873 
 C                    -0.76214   1.22505  -0.28815 
 C                    -0.04258   2.43078  -0.42534 
 H                     1.01365   2.3974   -0.68692 
 C                    -0.66349   3.65999  -0.23112 
 C                    -2.01762   3.71505   0.10403 
 C                    -2.72459   2.52173   0.24258 
 H                     1.01318  -2.39792  -0.68662 
 H                    -3.78465  -2.56717   0.50164 
 H                    -2.51966  -4.67286   0.25645 
 H                    -0.08132   4.57775  -0.34359 
 H                    -2.51874   4.67318   0.25585 
 N                    -0.11102  -0.00011  -0.49314 
 C                     1.27776  -0.00023  -0.83326 
 C                     2.25341  -0.00007   0.20985 
 C                     1.66295  -0.00041  -2.15758 
 C                     1.89372   0.00015   1.58449 
 C                     3.64185  -0.00017  -0.14953 
 C                     3.03453  -0.0005   -2.50791 
 H                     0.89169  -0.0005   -2.92984 
 C                     2.86539   0.00028   2.56221 
 H                     0.8364    0.00022   1.8515 
 C                     4.61691  -0.00003   0.88615 
 C                     4.00119  -0.00039  -1.5255 
 H                     3.32029  -0.00066  -3.56207 
 C                     4.23897   0.00018   2.21145 
 H                     2.57734   0.00045   3.61598 
 H                     5.6746   -0.00011   0.61056 
 H                     5.06127  -0.00046  -1.79132 
 H                     4.9977    0.00028   2.99752 
 H                    -3.78416   2.56776   0.50131 
 H                    -0.08223  -4.578    -0.34303 
 C                    -4.07238   0.00024  -0.88618 
 H                    -3.61419   0.0001   -1.88636 
 H                    -4.71387  -0.89024  -0.80368 
 H                    -4.71366   0.89088  -0.80384 
 C                    -3.6453    0.00036   1.60703 
 H                    -4.28137  -0.88593   1.745 
 H                    -2.88149   0.00031   2.39887 
 H                    -4.28114   0.88683   1.74491 
 
 NAtoms=     47 NQM=       47 NQMF=       0 NMMI=      0 NMMIF=      0
                NMic=       0 NMicF=      0.
                    Isotopes and Nuclear Properties:
 (Nuclear quadrupole moments (NQMom) in fm**2, nuclear magnetic moments (NMagM)
  in nuclear magnetons)

  Atom         1           2           3           4           5           6           7           8           9          10
 IAtWgt=          12          12          12          12          12          12          12          12          12          12
 AtmWgt=  12.0000000  12.0000000  12.0000000  12.0000000  12.0000000  12.0000000  12.0000000  12.0000000  12.0000000  12.0000000
 NucSpn=           0           0           0           0           0           0           0           0           0           0
 AtZEff=   0.0000000   0.0000000   0.0000000   0.0000000   0.0000000   0.0000000   0.0000000   0.0000000   0.0000000   0.0000000
 NQMom=    0.0000000   0.0000000   0.0000000   0.0000000   0.0000000   0.0000000   0.0000000   0.0000000   0.0000000   0.0000000
 NMagM=    0.0000000   0.0000000   0.0000000   0.0000000   0.0000000   0.0000000   0.0000000   0.0000000   0.0000000   0.0000000
 AtZNuc=   6.0000000   6.0000000   6.0000000   6.0000000   6.0000000   6.0000000   6.0000000   6.0000000   6.0000000   6.0000000

  Atom        11          12          13          14          15          16          17          18          19          20
 IAtWgt=           1          12          12          12           1           1           1           1           1          14
 AtmWgt=   1.0078250  12.0000000  12.0000000  12.0000000   1.0078250   1.0078250   1.0078250   1.0078250   1.0078250  14.0030740
 NucSpn=           1           0           0           0           1           1           1           1           1           2
 AtZEff=   0.0000000   0.0000000   0.0000000   0.0000000   0.0000000   0.0000000   0.0000000   0.0000000   0.0000000   0.0000000
 NQMom=    0.0000000   0.0000000   0.0000000   0.0000000   0.0000000   0.0000000   0.0000000   0.0000000   0.0000000   2.0440000
 NMagM=    2.7928460   0.0000000   0.0000000   0.0000000   2.7928460   2.7928460   2.7928460   2.7928460   2.7928460   0.4037610
 AtZNuc=   1.0000000   6.0000000   6.0000000   6.0000000   1.0000000   1.0000000   1.0000000   1.0000000   1.0000000   7.0000000

  Atom        21          22          23          24          25          26          27          28          29          30
 IAtWgt=          12          12          12          12          12          12           1          12           1          12
 AtmWgt=  12.0000000  12.0000000  12.0000000  12.0000000  12.0000000  12.0000000   1.0078250  12.0000000   1.0078250  12.0000000
 NucSpn=           0           0           0           0           0           0           1           0           1           0
 AtZEff=   0.0000000   0.0000000   0.0000000   0.0000000   0.0000000   0.0000000   0.0000000   0.0000000   0.0000000   0.0000000
 NQMom=    0.0000000   0.0000000   0.0000000   0.0000000   0.0000000   0.0000000   0.0000000   0.0000000   0.0000000   0.0000000
 NMagM=    0.0000000   0.0000000   0.0000000   0.0000000   0.0000000   0.0000000   2.7928460   0.0000000   2.7928460   0.0000000
 AtZNuc=   6.0000000   6.0000000   6.0000000   6.0000000   6.0000000   6.0000000   1.0000000   6.0000000   1.0000000   6.0000000

  Atom        31          32          33          34          35          36          37          38          39          40
 IAtWgt=          12           1          12           1           1           1           1           1           1          12
 AtmWgt=  12.0000000   1.0078250  12.0000000   1.0078250   1.0078250   1.0078250   1.0078250   1.0078250   1.0078250  12.0000000
 NucSpn=           0           1           0           1           1           1           1           1           1           0
 AtZEff=   0.0000000   0.0000000   0.0000000   0.0000000   0.0000000   0.0000000   0.0000000   0.0000000   0.0000000   0.0000000
 NQMom=    0.0000000   0.0000000   0.0000000   0.0000000   0.0000000   0.0000000   0.0000000   0.0000000   0.0000000   0.0000000
 NMagM=    0.0000000   2.7928460   0.0000000   2.7928460   2.7928460   2.7928460   2.7928460   2.7928460   2.7928460   0.0000000
 AtZNuc=   6.0000000   1.0000000   6.0000000   1.0000000   1.0000000   1.0000000   1.0000000   1.0000000   1.0000000   6.0000000

  Atom        41          42          43          44          45          46          47
 IAtWgt=           1           1           1          12           1           1           1
 AtmWgt=   1.0078250   1.0078250   1.0078250  12.0000000   1.0078250   1.0078250   1.0078250
 NucSpn=           1           1           1           0           1           1           1
 AtZEff=   0.0000000   0.0000000   0.0000000   0.0000000   0.0000000   0.0000000   0.0000000
 NQMom=    0.0000000   0.0000000   0.0000000   0.0000000   0.0000000   0.0000000   0.0000000
 NMagM=    2.7928460   2.7928460   2.7928460   0.0000000   2.7928460   2.7928460   2.7928460
 AtZNuc=   1.0000000   1.0000000   1.0000000   6.0000000   1.0000000   1.0000000   1.0000000
 Leave Link  101 at Thu Apr  1 09:54:19 2021, MaxMem=  5242880000 cpu:         4.3
 (Enter /opt/nce/packages/global/g09/l103.exe)

 GradGradGradGradGradGradGradGradGradGradGradGradGradGradGradGradGradGrad
 Berny optimization.
 Initialization pass.
                           ----------------------------
                           !    Initial Parameters    !
                           ! (Angstroms and Degrees)  !
 --------------------------                            --------------------------
 ! Name  Definition              Value          Derivative Info.                !
 --------------------------------------------------------------------------------
 ! R1    R(1,2)                  1.3908         estimate D2E/DX2                !
 ! R2    R(1,6)                  1.3961         estimate D2E/DX2                !
 ! R3    R(1,39)                 1.0926         estimate D2E/DX2                !
 ! R4    R(2,3)                  1.4108         estimate D2E/DX2                !
 ! R5    R(2,15)                 1.0886         estimate D2E/DX2                !
 ! R6    R(3,4)                  1.4112         estimate D2E/DX2                !
 ! R7    R(3,20)                 1.4025         estimate D2E/DX2                !
 ! R8    R(4,5)                  1.402          estimate D2E/DX2                !
 ! R9    R(4,7)                  1.5315         estimate D2E/DX2                !
 ! R10   R(5,6)                  1.3939         estimate D2E/DX2                !
 ! R11   R(5,16)                 1.0917         estimate D2E/DX2                !
 ! R12   R(6,17)                 1.0919         estimate D2E/DX2                !
 ! R13   R(7,8)                  1.5315         estimate D2E/DX2                !
 ! R14   R(7,40)                 1.5488         estimate D2E/DX2                !
 ! R15   R(7,44)                 1.5477         estimate D2E/DX2                !
 ! R16   R(8,9)                  1.4112         estimate D2E/DX2                !
 ! R17   R(8,14)                 1.402          estimate D2E/DX2                !
 ! R18   R(9,10)                 1.4108         estimate D2E/DX2                !
 ! R19   R(9,20)                 1.4025         estimate D2E/DX2                !
 ! R20   R(10,11)                1.0887         estimate D2E/DX2                !
 ! R21   R(10,12)                1.3908         estimate D2E/DX2                !
 ! R22   R(12,13)                1.3961         estimate D2E/DX2                !
 ! R23   R(12,18)                1.0926         estimate D2E/DX2                !
 ! R24   R(13,14)                1.3939         estimate D2E/DX2                !
 ! R25   R(13,19)                1.0919         estimate D2E/DX2                !
 ! R26   R(14,38)                1.0917         estimate D2E/DX2                !
 ! R27   R(20,21)                1.4298         estimate D2E/DX2                !
 ! R28   R(21,22)                1.4283         estimate D2E/DX2                !
 ! R29   R(21,23)                1.3792         estimate D2E/DX2                !
 ! R30   R(22,24)                1.4209         estimate D2E/DX2                !
 ! R31   R(22,25)                1.4342         estimate D2E/DX2                !
 ! R32   R(23,26)                1.4156         estimate D2E/DX2                !
 ! R33   R(23,27)                1.0914         estimate D2E/DX2                !
 ! R34   R(24,28)                1.3784         estimate D2E/DX2                !
 ! R35   R(24,29)                1.0905         estimate D2E/DX2                !
 ! R36   R(25,30)                1.4224         estimate D2E/DX2                !
 ! R37   R(25,31)                1.4221         estimate D2E/DX2                !
 ! R38   R(26,31)                1.3782         estimate D2E/DX2                !
 ! R39   R(26,32)                1.0922         estimate D2E/DX2                !
 ! R40   R(28,33)                1.4177         estimate D2E/DX2                !
 ! R41   R(28,34)                1.0924         estimate D2E/DX2                !
 ! R42   R(30,33)                1.3781         estimate D2E/DX2                !
 ! R43   R(30,35)                1.093          estimate D2E/DX2                !
 ! R44   R(31,36)                1.0929         estimate D2E/DX2                !
 ! R45   R(33,37)                1.0925         estimate D2E/DX2                !
 ! R46   R(40,41)                1.1001         estimate D2E/DX2                !
 ! R47   R(40,42)                1.1006         estimate D2E/DX2                !
 ! R48   R(40,43)                1.1006         estimate D2E/DX2                !
 ! R49   R(44,45)                1.0996         estimate D2E/DX2                !
 ! R50   R(44,46)                1.1002         estimate D2E/DX2                !
 ! R51   R(44,47)                1.0996         estimate D2E/DX2                !
 ! A1    A(2,1,6)              120.0942         estimate D2E/DX2                !
 ! A2    A(2,1,39)             119.3498         estimate D2E/DX2                !
 ! A3    A(6,1,39)             120.5561         estimate D2E/DX2                !
 ! A4    A(1,2,3)              120.9367         estimate D2E/DX2                !
 ! A5    A(1,2,15)             119.5908         estimate D2E/DX2                !
 ! A6    A(3,2,15)             119.4725         estimate D2E/DX2                !
 ! A7    A(2,3,4)              119.5684         estimate D2E/DX2                !
 ! A8    A(2,3,20)             119.7093         estimate D2E/DX2                !
 ! A9    A(4,3,20)             120.722          estimate D2E/DX2                !
 ! A10   A(3,4,5)              117.9893         estimate D2E/DX2                !
 ! A11   A(3,4,7)              122.5319         estimate D2E/DX2                !
 ! A12   A(5,4,7)              119.4667         estimate D2E/DX2                !
 ! A13   A(4,5,6)              122.5903         estimate D2E/DX2                !
 ! A14   A(4,5,16)             118.7426         estimate D2E/DX2                !
 ! A15   A(6,5,16)             118.6668         estimate D2E/DX2                !
 ! A16   A(1,6,5)              118.8187         estimate D2E/DX2                !
 ! A17   A(1,6,17)             120.8748         estimate D2E/DX2                !
 ! A18   A(5,6,17)             120.3065         estimate D2E/DX2                !
 ! A19   A(4,7,8)              111.4531         estimate D2E/DX2                !
 ! A20   A(4,7,40)             108.753          estimate D2E/DX2                !
 ! A21   A(4,7,44)             109.1541         estimate D2E/DX2                !
 ! A22   A(8,7,40)             108.7526         estimate D2E/DX2                !
 ! A23   A(8,7,44)             109.1539         estimate D2E/DX2                !
 ! A24   A(40,7,44)            109.5522         estimate D2E/DX2                !
 ! A25   A(7,8,9)              122.5318         estimate D2E/DX2                !
 ! A26   A(7,8,14)             119.4667         estimate D2E/DX2                !
 ! A27   A(9,8,14)             117.9894         estimate D2E/DX2                !
 ! A28   A(8,9,10)             119.5691         estimate D2E/DX2                !
 ! A29   A(8,9,20)             120.7226         estimate D2E/DX2                !
 ! A30   A(10,9,20)            119.708          estimate D2E/DX2                !
 ! A31   A(9,10,11)            119.4725         estimate D2E/DX2                !
 ! A32   A(9,10,12)            120.9362         estimate D2E/DX2                !
 ! A33   A(11,10,12)           119.5913         estimate D2E/DX2                !
 ! A34   A(10,12,13)           120.0943         estimate D2E/DX2                !
 ! A35   A(10,12,18)           119.3495         estimate D2E/DX2                !
 ! A36   A(13,12,18)           120.5562         estimate D2E/DX2                !
 ! A37   A(12,13,14)           118.8187         estimate D2E/DX2                !
 ! A38   A(12,13,19)           120.8747         estimate D2E/DX2                !
 ! A39   A(14,13,19)           120.3066         estimate D2E/DX2                !
 ! A40   A(8,14,13)            122.5899         estimate D2E/DX2                !
 ! A41   A(8,14,38)            118.7426         estimate D2E/DX2                !
 ! A42   A(13,14,38)           118.6672         estimate D2E/DX2                !
 ! A43   A(3,20,9)             121.737          estimate D2E/DX2                !
 ! A44   A(3,20,21)            119.0658         estimate D2E/DX2                !
 ! A45   A(9,20,21)            119.0627         estimate D2E/DX2                !
 ! A46   A(20,21,22)           119.3252         estimate D2E/DX2                !
 ! A47   A(20,21,23)           119.9785         estimate D2E/DX2                !
 ! A48   A(22,21,23)           120.6963         estimate D2E/DX2                !
 ! A49   A(21,22,24)           122.2505         estimate D2E/DX2                !
 ! A50   A(21,22,25)           118.5746         estimate D2E/DX2                !
 ! A51   A(24,22,25)           119.1749         estimate D2E/DX2                !
 ! A52   A(21,23,26)           120.5457         estimate D2E/DX2                !
 ! A53   A(21,23,27)           118.8199         estimate D2E/DX2                !
 ! A54   A(26,23,27)           120.6343         estimate D2E/DX2                !
 ! A55   A(22,24,28)           120.5147         estimate D2E/DX2                !
 ! A56   A(22,24,29)           118.8361         estimate D2E/DX2                !
 ! A57   A(28,24,29)           120.6492         estimate D2E/DX2                !
 ! A58   A(22,25,30)           118.7615         estimate D2E/DX2                !
 ! A59   A(22,25,31)           119.1478         estimate D2E/DX2                !
 ! A60   A(30,25,31)           122.0907         estimate D2E/DX2                !
 ! A61   A(23,26,31)           120.2086         estimate D2E/DX2                !
 ! A62   A(23,26,32)           119.4952         estimate D2E/DX2                !
 ! A63   A(31,26,32)           120.2962         estimate D2E/DX2                !
 ! A64   A(24,28,33)           120.4971         estimate D2E/DX2                !
 ! A65   A(24,28,34)           119.8894         estimate D2E/DX2                !
 ! A66   A(33,28,34)           119.6135         estimate D2E/DX2                !
 ! A67   A(25,30,33)           120.8103         estimate D2E/DX2                !
 ! A68   A(25,30,35)           118.6693         estimate D2E/DX2                !
 ! A69   A(33,30,35)           120.5204         estimate D2E/DX2                !
 ! A70   A(25,31,26)           120.827          estimate D2E/DX2                !
 ! A71   A(25,31,36)           118.7132         estimate D2E/DX2                !
 ! A72   A(26,31,36)           120.4599         estimate D2E/DX2                !
 ! A73   A(28,33,30)           120.2415         estimate D2E/DX2                !
 ! A74   A(28,33,37)           119.6611         estimate D2E/DX2                !
 ! A75   A(30,33,37)           120.0974         estimate D2E/DX2                !
 ! A76   A(7,40,41)            110.4569         estimate D2E/DX2                !
 ! A77   A(7,40,42)            111.0112         estimate D2E/DX2                !
 ! A78   A(7,40,43)            111.0115         estimate D2E/DX2                !
 ! A79   A(41,40,42)           108.1078         estimate D2E/DX2                !
 ! A80   A(41,40,43)           108.1078         estimate D2E/DX2                !
 ! A81   A(42,40,43)           108.0316         estimate D2E/DX2                !
 ! A82   A(7,44,45)            111.2443         estimate D2E/DX2                !
 ! A83   A(7,44,46)            110.514          estimate D2E/DX2                !
 ! A84   A(7,44,47)            111.2444         estimate D2E/DX2                !
 ! A85   A(45,44,46)           108.1342         estimate D2E/DX2                !
 ! A86   A(45,44,47)           107.4311         estimate D2E/DX2                !
 ! A87   A(46,44,47)           108.1342         estimate D2E/DX2                !
 ! D1    D(6,1,2,3)              0.0312         estimate D2E/DX2                !
 ! D2    D(6,1,2,15)          -179.9715         estimate D2E/DX2                !
 ! D3    D(39,1,2,3)          -179.9734         estimate D2E/DX2                !
 ! D4    D(39,1,2,15)            0.024          estimate D2E/DX2                !
 ! D5    D(2,1,6,5)             -0.2143         estimate D2E/DX2                !
 ! D6    D(2,1,6,17)           179.7758         estimate D2E/DX2                !
 ! D7    D(39,1,6,5)           179.7904         estimate D2E/DX2                !
 ! D8    D(39,1,6,17)           -0.2196         estimate D2E/DX2                !
 ! D9    D(1,2,3,4)              0.3742         estimate D2E/DX2                !
 ! D10   D(1,2,3,20)          -179.8404         estimate D2E/DX2                !
 ! D11   D(15,2,3,4)          -179.6232         estimate D2E/DX2                !
 ! D12   D(15,2,3,20)            0.1623         estimate D2E/DX2                !
 ! D13   D(2,3,4,5)             -0.5777         estimate D2E/DX2                !
 ! D14   D(2,3,4,7)           -179.3057         estimate D2E/DX2                !
 ! D15   D(20,3,4,5)           179.6391         estimate D2E/DX2                !
 ! D16   D(20,3,4,7)             0.9111         estimate D2E/DX2                !
 ! D17   D(2,3,20,9)          -176.0088         estimate D2E/DX2                !
 ! D18   D(2,3,20,21)           -0.2647         estimate D2E/DX2                !
 ! D19   D(4,3,20,9)             3.7741         estimate D2E/DX2                !
 ! D20   D(4,3,20,21)          179.5182         estimate D2E/DX2                !
 ! D21   D(3,4,5,6)              0.405          estimate D2E/DX2                !
 ! D22   D(3,4,5,16)          -179.3933         estimate D2E/DX2                !
 ! D23   D(7,4,5,6)            179.1732         estimate D2E/DX2                !
 ! D24   D(7,4,5,16)            -0.6251         estimate D2E/DX2                !
 ! D25   D(3,4,7,8)             -4.8825         estimate D2E/DX2                !
 ! D26   D(3,4,7,40)           114.9981         estimate D2E/DX2                !
 ! D27   D(3,4,7,44)          -125.5254         estimate D2E/DX2                !
 ! D28   D(5,4,7,8)            176.4076         estimate D2E/DX2                !
 ! D29   D(5,4,7,40)           -63.7117         estimate D2E/DX2                !
 ! D30   D(5,4,7,44)            55.7648         estimate D2E/DX2                !
 ! D31   D(4,5,6,1)             -0.0083         estimate D2E/DX2                !
 ! D32   D(4,5,6,17)          -179.9984         estimate D2E/DX2                !
 ! D33   D(16,5,6,1)           179.7901         estimate D2E/DX2                !
 ! D34   D(16,5,6,17)           -0.2            estimate D2E/DX2                !
 ! D35   D(4,7,8,9)              4.8832         estimate D2E/DX2                !
 ! D36   D(4,7,8,14)          -176.4073         estimate D2E/DX2                !
 ! D37   D(40,7,8,9)          -114.9977         estimate D2E/DX2                !
 ! D38   D(40,7,8,14)           63.7118         estimate D2E/DX2                !
 ! D39   D(44,7,8,9)           125.5261         estimate D2E/DX2                !
 ! D40   D(44,7,8,14)          -55.7643         estimate D2E/DX2                !
 ! D41   D(4,7,40,41)          -60.7705         estimate D2E/DX2                !
 ! D42   D(4,7,40,42)           59.1389         estimate D2E/DX2                !
 ! D43   D(4,7,40,43)          179.3199         estimate D2E/DX2                !
 ! D44   D(8,7,40,41)           60.7742         estimate D2E/DX2                !
 ! D45   D(8,7,40,42)         -179.3164         estimate D2E/DX2                !
 ! D46   D(8,7,40,43)          -59.1354         estimate D2E/DX2                !
 ! D47   D(44,7,40,41)        -179.9984         estimate D2E/DX2                !
 ! D48   D(44,7,40,42)         -60.089          estimate D2E/DX2                !
 ! D49   D(44,7,40,43)          60.092          estimate D2E/DX2                !
 ! D50   D(4,7,44,45)          -59.1152         estimate D2E/DX2                !
 ! D51   D(4,7,44,46)           61.0178         estimate D2E/DX2                !
 ! D52   D(4,7,44,47)         -178.8492         estimate D2E/DX2                !
 ! D53   D(8,7,44,45)          178.845          estimate D2E/DX2                !
 ! D54   D(8,7,44,46)          -61.022          estimate D2E/DX2                !
 ! D55   D(8,7,44,47)           59.111          estimate D2E/DX2                !
 ! D56   D(40,7,44,45)          59.8652         estimate D2E/DX2                !
 ! D57   D(40,7,44,46)         179.9982         estimate D2E/DX2                !
 ! D58   D(40,7,44,47)         -59.8687         estimate D2E/DX2                !
 ! D59   D(7,8,9,10)           179.307          estimate D2E/DX2                !
 ! D60   D(7,8,9,20)            -0.9124         estimate D2E/DX2                !
 ! D61   D(14,8,9,10)            0.5793         estimate D2E/DX2                !
 ! D62   D(14,8,9,20)         -179.6401         estimate D2E/DX2                !
 ! D63   D(7,8,14,13)         -179.1739         estimate D2E/DX2                !
 ! D64   D(7,8,14,38)            0.6249         estimate D2E/DX2                !
 ! D65   D(9,8,14,13)           -0.4059         estimate D2E/DX2                !
 ! D66   D(9,8,14,38)          179.3928         estimate D2E/DX2                !
 ! D67   D(8,9,10,11)          179.6217         estimate D2E/DX2                !
 ! D68   D(8,9,10,12)           -0.3752         estimate D2E/DX2                !
 ! D69   D(20,9,10,11)          -0.1612         estimate D2E/DX2                !
 ! D70   D(20,9,10,12)         179.8419         estimate D2E/DX2                !
 ! D71   D(8,9,20,3)            -3.7734         estimate D2E/DX2                !
 ! D72   D(8,9,20,21)         -179.5177         estimate D2E/DX2                !
 ! D73   D(10,9,20,3)          176.0069         estimate D2E/DX2                !
 ! D74   D(10,9,20,21)           0.2626         estimate D2E/DX2                !
 ! D75   D(9,10,12,13)          -0.0314         estimate D2E/DX2                !
 ! D76   D(9,10,12,18)         179.9735         estimate D2E/DX2                !
 ! D77   D(11,10,12,13)        179.9717         estimate D2E/DX2                !
 ! D78   D(11,10,12,18)         -0.0235         estimate D2E/DX2                !
 ! D79   D(10,12,13,14)          0.2151         estimate D2E/DX2                !
 ! D80   D(10,12,13,19)       -179.7756         estimate D2E/DX2                !
 ! D81   D(18,12,13,14)       -179.7898         estimate D2E/DX2                !
 ! D82   D(18,12,13,19)          0.2194         estimate D2E/DX2                !
 ! D83   D(12,13,14,8)           0.0081         estimate D2E/DX2                !
 ! D84   D(12,13,14,38)       -179.7908         estimate D2E/DX2                !
 ! D85   D(19,13,14,8)         179.9989         estimate D2E/DX2                !
 ! D86   D(19,13,14,38)          0.2            estimate D2E/DX2                !
 ! D87   D(3,20,21,22)         -87.9364         estimate D2E/DX2                !
 ! D88   D(3,20,21,23)          92.0667         estimate D2E/DX2                !
 ! D89   D(9,20,21,22)          87.923          estimate D2E/DX2                !
 ! D90   D(9,20,21,23)         -92.074          estimate D2E/DX2                !
 ! D91   D(20,21,22,24)          0.0016         estimate D2E/DX2                !
 ! D92   D(20,21,22,25)       -179.9991         estimate D2E/DX2                !
 ! D93   D(23,21,22,24)        179.9985         estimate D2E/DX2                !
 ! D94   D(23,21,22,25)         -0.0022         estimate D2E/DX2                !
 ! D95   D(20,21,23,26)        179.999          estimate D2E/DX2                !
 ! D96   D(20,21,23,27)         -0.0018         estimate D2E/DX2                !
 ! D97   D(22,21,23,26)          0.0021         estimate D2E/DX2                !
 ! D98   D(22,21,23,27)       -179.9987         estimate D2E/DX2                !
 ! D99   D(21,22,24,28)        179.9992         estimate D2E/DX2                !
 ! D100  D(21,22,24,29)         -0.0004         estimate D2E/DX2                !
 ! D101  D(25,22,24,28)         -0.0002         estimate D2E/DX2                !
 ! D102  D(25,22,24,29)       -179.9997         estimate D2E/DX2                !
 ! D103  D(21,22,25,30)       -179.9993         estimate D2E/DX2                !
 ! D104  D(21,22,25,31)          0.0008         estimate D2E/DX2                !
 ! D105  D(24,22,25,30)          0.0            estimate D2E/DX2                !
 ! D106  D(24,22,25,31)       -179.9999         estimate D2E/DX2                !
 ! D107  D(21,23,26,31)         -0.0006         estimate D2E/DX2                !
 ! D108  D(21,23,26,32)        179.9993         estimate D2E/DX2                !
 ! D109  D(27,23,26,31)       -179.9998         estimate D2E/DX2                !
 ! D110  D(27,23,26,32)          0.0001         estimate D2E/DX2                !
 ! D111  D(22,24,28,33)          0.0002         estimate D2E/DX2                !
 ! D112  D(22,24,28,34)       -179.9998         estimate D2E/DX2                !
 ! D113  D(29,24,28,33)        179.9997         estimate D2E/DX2                !
 ! D114  D(29,24,28,34)         -0.0002         estimate D2E/DX2                !
 ! D115  D(22,25,30,33)          0.0001         estimate D2E/DX2                !
 ! D116  D(22,25,30,35)       -179.9999         estimate D2E/DX2                !
 ! D117  D(31,25,30,33)        180.0            estimate D2E/DX2                !
 ! D118  D(31,25,30,35)          0.0            estimate D2E/DX2                !
 ! D119  D(22,25,31,26)          0.0007         estimate D2E/DX2                !
 ! D120  D(22,25,31,36)        179.9996         estimate D2E/DX2                !
 ! D121  D(30,25,31,26)       -179.9992         estimate D2E/DX2                !
 ! D122  D(30,25,31,36)         -0.0003         estimate D2E/DX2                !
 ! D123  D(23,26,31,25)         -0.0008         estimate D2E/DX2                !
 ! D124  D(23,26,31,36)       -179.9997         estimate D2E/DX2                !
 ! D125  D(32,26,31,25)        179.9993         estimate D2E/DX2                !
 ! D126  D(32,26,31,36)          0.0004         estimate D2E/DX2                !
 ! D127  D(24,28,33,30)         -0.0001         estimate D2E/DX2                !
 ! D128  D(24,28,33,37)        179.9999         estimate D2E/DX2                !
 ! D129  D(34,28,33,30)        179.9999         estimate D2E/DX2                !
 ! D130  D(34,28,33,37)         -0.0001         estimate D2E/DX2                !
 ! D131  D(25,30,33,28)         -0.0001         estimate D2E/DX2                !
 ! D132  D(25,30,33,37)        179.9999         estimate D2E/DX2                !
 ! D133  D(35,30,33,28)        179.9999         estimate D2E/DX2                !
 ! D134  D(35,30,33,37)         -0.0001         estimate D2E/DX2                !
 --------------------------------------------------------------------------------
 Trust Radius=3.00D-01 FncErr=1.00D-07 GrdErr=1.00D-06
 Number of steps in this run=    282 maximum allowed number of steps=    282.
 GradGradGradGradGradGradGradGradGradGradGradGradGradGradGradGradGradGrad

 Leave Link  103 at Thu Apr  1 09:54:19 2021, MaxMem=  5242880000 cpu:         0.2
 (Enter /opt/nce/packages/global/g09/l202.exe)
                          Input orientation:                          
 ---------------------------------------------------------------------
 Center     Atomic      Atomic             Coordinates (Angstroms)
 Number     Number       Type             X           Y           Z
 ---------------------------------------------------------------------
      1          6           0       -0.664207   -3.660103   -0.230662
      2          6           0       -0.043052   -2.431042   -0.425024
      3          6           0       -0.762359   -1.225133   -0.287972
      4          6           0       -2.129661   -1.265435    0.058898
      5          6           0       -2.725072   -2.521368    0.242909
      6          6           0       -2.018340   -3.714850    0.104505
      7          6           0       -2.978564    0.000202    0.210327
      8          6           0       -2.129420    1.265656    0.058729
      9          6           0       -0.762135    1.225045   -0.288147
     10          6           0       -0.042580    2.430778   -0.425336
     11          1           0        1.013653    2.397401   -0.686915
     12          6           0       -0.663487    3.659986   -0.231121
     13          6           0       -2.017615    3.715049    0.104027
     14          6           0       -2.724588    2.521726    0.242579
     15          1           0        1.013180   -2.397918   -0.686619
     16          1           0       -3.784654   -2.567169    0.501644
     17          1           0       -2.519662   -4.672857    0.256447
     18          1           0       -0.081318    4.577752   -0.343592
     19          1           0       -2.518741    4.673176    0.255851
     20          7           0       -0.111018   -0.000114   -0.493142
     21          6           0        1.277763   -0.000225   -0.833257
     22          6           0        2.253412   -0.000074    0.209847
     23          6           0        1.662951   -0.000412   -2.157576
     24          6           0        1.893723    0.000152    1.584492
     25          6           0        3.641850   -0.000169   -0.149528
     26          6           0        3.034533   -0.000503   -2.507909
     27          1           0        0.891691   -0.000502   -2.929843
     28          6           0        2.865387    0.000275    2.562211
     29          1           0        0.836397    0.000219    1.851503
     30          6           0        4.616905   -0.000034    0.886147
     31          6           0        4.001190   -0.000392   -1.525498
     32          1           0        3.320289   -0.000663   -3.562074
     33          6           0        4.238969    0.000182    2.211452
     34          1           0        2.577335    0.000445    3.615977
     35          1           0        5.674597   -0.000105    0.610563
     36          1           0        5.061266   -0.000457   -1.791319
     37          1           0        4.997701    0.000283    2.997524
     38          1           0       -3.784162    2.567764    0.501310
     39          1           0       -0.082227   -4.578003   -0.343028
     40          6           0       -4.072385    0.000240   -0.886182
     41          1           0       -3.614185    0.000099   -1.886360
     42          1           0       -4.713870   -0.890237   -0.803681
     43          1           0       -4.713660    0.890884   -0.803836
     44          6           0       -3.645300    0.000362    1.607032
     45          1           0       -4.281370   -0.885930    1.745004
     46          1           0       -2.881485    0.000305    2.398873
     47          1           0       -4.281142    0.886832    1.744912
 ---------------------------------------------------------------------
                    Distance matrix (angstroms):
                    1          2          3          4          5
     1  C    0.000000
     2  C    1.390756   0.000000
     3  C    2.437621   1.410816   0.000000
     4  C    2.822381   2.438597   1.411190   0.000000
     5  C    2.401698   2.765416   2.411286   1.402049   0.000000
     6  C    1.396070   2.414607   2.816064   2.452367   1.393924
     7  C    4.352993   3.864175   2.580952   1.531471   2.534489
     8  C    5.147203   4.272297   2.862357   2.531091   3.838004
     9  C    4.886468   3.728644   2.450178   2.862352   4.262717
    10  C    6.125614   4.861820   3.728624   4.272280   5.671513
    11  H    6.302122   4.949654   4.054149   4.883956   6.247954
    12  C    7.320089   6.125615   4.886450   5.147188   6.533297
    13  C    7.505771   6.477131   5.112214   4.981949   6.277952
    14  C    6.533310   5.671529   4.262720   3.838003   5.043094
    15  H    2.148170   1.088648   2.164921   3.422830   3.854062
    16  H    3.386439   3.857049   3.399827   2.151636   1.091676
    17  H    2.169253   3.409360   3.907852   3.435353   2.161315
    18  H    8.259223   7.009371   5.842977   6.204880   7.598087
    19  H    8.550996   7.553975   6.178242   5.954601   7.197514
    20  N    3.710853   2.432832   1.402502   2.445548   3.705640
    21  C    4.186774   2.796440   2.441277   3.742624   4.851493
    22  C    4.701315   3.403882   3.292942   4.564565   5.580620
    23  C    4.745735   3.438044   3.298104   4.571318   5.601098
    24  C    4.820296   3.701345   3.473070   4.485172   5.430578
    25  C    5.651887   4.423070   4.573484   5.912248   6.859165
    26  C    5.679719   4.440435   4.565548   5.904020   6.862566
    27  H    4.806150   3.613224   3.348893   4.434095   5.431583
    28  C    5.801426   4.826375   4.773438   5.728796   6.556758
    29  H    4.470479   3.444856   2.938513   3.689555   4.650810
    30  C    6.521772   5.417026   5.640559   6.913880   7.789448
    31  C    6.069268   4.845100   5.071771   6.457397   7.397647
    32  H    6.353425   5.201912   5.374671   6.664311   7.574843
    33  C    6.588076   5.585478   5.723792   6.840667   7.663631
    34  H    6.221241   5.395206   5.281706   6.034159   6.771458
    35  H    7.367746   6.298683   6.613808   7.925392   8.777607
    36  H    6.972066   5.816233   6.137955   7.532125   8.433275
    37  H    7.475079   6.560058   6.743472   7.812609   8.578336
    38  H    7.004015   6.312057   4.913281   4.198395   5.204585
    39  H    1.092642   2.148883   3.421600   3.914925   3.399662
    40  C    5.044155   4.728565   3.579898   2.503854   3.073858
    41  H    4.984053   4.560586   3.491268   2.754890   3.417909
    42  H    4.939664   4.932951   3.999069   2.750082   2.776915
    43  H    6.118667   5.743977   4.511809   3.474345   4.085783
    44  C    5.065870   4.797621   3.661178   2.509208   3.011108
    45  H    4.968215   5.005970   4.078172   2.759860   2.711643
    46  H    5.022884   4.684287   3.634767   2.764565   3.321367
    47  H    6.136752   5.803302   4.579830   3.479047   4.036483
                    6          7          8          9         10
     6  C    0.000000
     7  C    3.838599   0.000000
     8  C    4.981955   1.531470   0.000000
     9  C    5.112220   2.580944   1.411184   0.000000
    10  C    6.477121   3.864165   2.438592   1.410806   0.000000
    11  H    6.868693   4.742299   3.422826   2.164915   1.088653
    12  C    7.505763   4.352985   2.822373   2.437606   1.390754
    13  C    7.429899   3.838595   2.452362   2.816052   2.414610
    14  C    6.277956   2.534488   1.402048   2.411280   2.765420
    15  H    3.398573   4.742311   4.883979   4.054181   4.949667
    16  H    2.143538   2.706666   4.198395   4.913276   6.312043
    17  H    1.091873   4.695764   5.954605   6.178247   7.553965
    18  H    8.527608   5.445624   3.914916   3.421583   2.148879
    19  H    8.404302   4.695764   3.435349   3.907839   3.409360
    20  N    4.218332   2.952573   2.445543   1.402495   2.432800
    21  C    5.053922   4.382395   3.742591   2.441232   2.796333
    22  C    5.662025   5.231976   4.564441   3.292786   3.403539
    23  C    5.697891   5.210626   4.571325   3.298113   3.438048
    24  C    5.594268   5.062362   4.484990   3.472855   3.700895
    25  C    6.775038   6.630187   5.912127   4.573341   4.422736
    26  C    6.793571   6.598950   5.903999   4.565523   4.440367
    27  H    5.609985   4.983928   4.434166   3.348979   3.613383
    28  C    6.610088   6.299454   5.728587   4.773208   4.825873
    29  H    5.000326   4.152997   3.689368   2.938300   3.444447
    30  C    7.644429   7.625476   6.913718   5.640377   5.416607
    31  C    7.258709   7.192361   6.457324   5.071686   4.844896
    32  H    7.465919   7.342109   6.664316   5.374676   5.201915
    33  C    7.575923   7.489812   6.840469   5.723576   5.584990
    34  H    6.874160   6.516630   6.033930   5.281467   5.394690
    35  H    8.557845   8.662412   7.925235   6.613637   6.298285
    36  H    8.216549   8.285255   7.532044   6.137864   5.816017
    37  H    8.449651   8.449217   7.812396   6.743247   6.559551
    38  H    6.538105   2.706665   2.151635   3.399821   3.857055
    39  H    2.166530   5.445634   6.204898   5.843000   7.009376
    40  C    4.359181   1.548798   2.503847   3.579881   4.728554
    41  H    4.506785   2.190915   2.754911   3.491270   4.560609
    42  H    4.008631   2.198268   3.474336   4.511807   5.743974
    43  H    5.413189   2.198272   2.750049   3.999018   4.932902
    44  C    4.325204   1.547683   2.509204   3.661174   4.797607
    45  H    3.976849   2.199492   3.479042   4.579840   5.803298
    46  H    4.451013   2.190698   2.764596   3.634791   4.684308
    47  H    5.383928   2.199494   2.759824   4.078128   5.005912
                   11         12         13         14         15
    11  H    0.000000
    12  C    2.148178   0.000000
    13  C    3.398584   1.396073   0.000000
    14  C    3.854071   2.401700   1.393925   0.000000
    15  H    4.795319   6.302134   6.868712   6.247977   0.000000
    16  H    7.005953   7.004005   6.538103   5.204585   4.945688
    17  H    7.960075   8.550987   8.404300   7.197514   4.306471
    18  H    2.463892   1.092641   2.166533   3.399664   7.069340
    19  H    4.306480   2.169254   1.091872   2.161316   7.960093
    20  N    2.655280   3.710823   4.218312   3.705632   2.655319
    21  C    2.416564   4.186665   5.053838   4.851440   2.416700
    22  C    2.844129   4.700935   5.661714   5.580415   2.844553
    23  C    2.886856   4.745741   5.697900   5.601109   2.886858
    24  C    3.417692   4.819767   5.593818   5.430273   3.418193
    25  C    3.597853   5.651488   6.774709   6.858953   3.598274
    26  C    3.626282   5.679639   6.793507   6.862529   3.626371
    27  H    3.285657   4.806335   5.610147   5.431700   3.285486
    28  C    4.442066   5.800788   6.609533   6.556388   4.442623
    29  H    3.495922   4.469997   4.999902   4.650511   3.496338
    30  C    4.604959   6.521240   7.643979   7.789157   4.605461
    31  C    3.921481   6.069019   7.258503   7.397518   3.921741
    32  H    4.397479   6.353430   7.465925   7.574851   4.397479
    33  C    4.954781   6.587443   7.575376   7.663274   4.955342
    34  H    5.167725   6.220557   6.873546   6.771046   5.168274
    35  H    5.399619   7.367225   8.557399   8.777320   5.400092
    36  H    4.832453   6.971790   8.216318   8.433129   4.832720
    37  H    5.932445   7.474398   8.449051   8.577945   5.933017
    38  H    4.945698   3.386446   2.143545   1.091677   7.005973
    39  H    7.069333   8.259228   8.527620   7.598102   2.463888
    40  C    5.626177   5.044148   4.359174   3.073849   5.626185
    41  H    5.348141   4.984095   4.506831   3.417948   5.348118
    42  H    6.605052   6.118656   5.413168   4.085755   5.923336
    43  H    5.923291   4.939618   4.008589   2.776875   6.605048
    44  C    5.719601   5.065853   4.325192   3.011099   5.719617
    45  H    6.688181   6.136734   5.383902   4.036455   6.019232
    46  H    5.517269   5.022912   4.451057   3.321413   5.517259
    47  H    6.019174   4.968150   3.976791   2.711594   6.688181
                   16         17         18         19         20
    16  H    0.000000
    17  H    2.468653   0.000000
    18  H    8.091911   9.585371   0.000000
    19  H    7.354288   9.346033   2.511866   0.000000
    20  N    4.590749   5.310177   4.580404   5.310156   0.000000
    21  C    5.830886   6.118936   4.800494   6.118846   1.429822
    22  C    6.567600   6.679769   5.168535   6.679433   2.466723
    23  C    6.583015   6.719635   5.224232   6.719643   2.432551
    24  C    6.325161   6.563435   5.345345   6.562947   2.887135
    25  C    7.884572   7.743582   5.903982   7.743214   3.768566
    26  C    7.883305   7.766701   5.945857   7.766627   3.735476
    27  H    6.342798   6.604595   5.347509   6.604768   2.634945
    28  C    7.420293   7.493561   6.170904   7.492939   4.265462
    29  H    5.455980   5.970341   5.158920   5.969890   2.528825
    30  C    8.793419   8.553501   6.673956   8.552988   4.925007
    31  C    8.444940   8.217589   6.246853   8.217356   4.239813
    32  H    8.577935   8.397352   6.549156   8.397356   4.603500
    33  C    8.596119   8.446208   6.793179   8.445584   5.122228
    34  H    7.534362   7.688015   6.610474   7.687318   4.910407
    35  H    9.801995   9.439592   7.416046   9.439076   5.889950
    36  H    9.491891   9.137567   7.035772   9.137300   5.332709
    37  H    9.484249   9.266201   7.610040   9.265506   6.187387
    38  H    5.134933   7.354285   4.297088   2.468664   4.590743
    39  H    4.297079   2.511863   9.155755   9.585383   4.580440
    40  C    2.932651   5.055135   6.097265   5.055134   3.980818
    41  H    3.510340   5.256056   5.984663   5.256112   3.770044
    42  H    2.319357   4.499626   7.181304   6.073941   4.698404
    43  H    3.811228   6.073964   5.938300   4.499593   4.698374
    44  C    2.798842   4.993007   6.120409   4.992997   4.111190
    45  H    2.149241   4.433986   7.201006   6.018978   4.815164
    46  H    3.317697   5.153576   6.026199   5.153625   4.004902
    47  H    3.704367   6.019010   5.968523   4.433933   4.815132
                   21         22         23         24         25
    21  C    0.000000
    22  C    1.428271   0.000000
    23  C    1.379199   2.439946   0.000000
    24  C    2.494978   1.420924   3.749177   0.000000
    25  C    2.460974   1.434193   2.819273   2.462270   0.000000
    26  C    2.427076   2.827781   1.415617   4.248434   2.435322
    27  H    2.131836   3.422271   1.091439   4.624207   3.910694
    28  C    3.748300   2.430664   4.870548   1.378429   2.820713
    29  H    2.720798   2.168632   4.093398   1.090520   3.445967
    30  C    3.755825   2.458349   4.241473   2.811300   1.422447
    31  C    2.810027   2.462956   2.422165   3.756788   1.422118
    32  H    3.408571   3.919900   2.172414   5.340621   3.427663
    33  C    4.247234   2.819372   5.071910   2.427603   2.435319
    34  H    4.635145   3.421498   5.845512   2.143422   3.913083
    35  H    4.627825   3.444573   4.874002   3.904298   2.170207
    36  H    3.902919   3.448001   3.417995   4.629193   2.170304
    37  H    5.339740   3.911811   6.139675   3.410475   3.426699
    38  H    5.830842   6.567423   6.583027   6.324895   7.884385
    39  H    4.800620   5.168976   5.224229   5.345953   5.904469
    40  C    5.350410   6.420046   5.874566   6.457451   7.749328
    41  H    5.004017   6.230793   5.284101   6.510289   7.461007
    42  H    6.057447   7.096665   6.579412   7.082122   8.428416
    43  H    6.057400   7.096580   6.579376   7.082021   8.428324
    44  C    5.494685   6.061925   6.507673   5.539069   7.495869
    45  H    6.191596   6.770881   7.165837   6.240407   8.194586
    46  H    5.267448   5.582025   6.435303   4.844154   7.003445
    47  H    6.191547   6.770777   7.165812   6.240264   8.194478
                   26         27         28         29         30
    26  C    0.000000
    27  H    2.183987   0.000000
    28  C    5.072941   5.835935   0.000000
    29  H    4.882241   4.781666   2.149862   0.000000
    30  C    3.744799   5.332823   2.424254   3.901814   0.000000
    31  C    1.378244   3.411916   4.242572   4.628180   2.489003
    32  H    1.092209   2.509543   6.141157   5.956218   4.633345
    33  C    4.870630   6.134915   1.417660   3.421558   1.378140
    34  H    6.140929   6.759375   1.092427   2.478756   3.407612
    35  H    4.085928   5.950686   3.420613   4.994808   1.093005
    36  H    2.149686   4.322221   4.875973   5.578501   2.714089
    37  H    5.844983   7.210617   2.176295   4.316227   2.145441
    38  H    7.883273   6.342902   7.419961   5.455719   8.793157
    39  H    5.945957   5.347302   6.171667   5.159453   6.674617
    40  C    7.289601   5.368296   7.747522   5.620592   8.868197
    41  H    6.677707   4.625124   7.859684   5.811996   8.685484
    42  H    7.983343   6.060900   8.340706   6.216782   9.524250
    43  H    7.983291   6.060894   8.340588   6.216691   9.524139
    44  C    7.845566   6.416192   6.580381   4.488360   8.293594
    45  H    8.508448   7.028424   7.247712   5.195011   8.983415
    46  H    7.686077   6.529324   5.749193   3.757960   7.649457
    47  H    8.508405   7.028435   7.247540   5.194868   8.983276
                   31         32         33         34         35
    31  C    0.000000
    32  H    2.147386   0.000000
    33  C    3.744507   5.846159   0.000000
    34  H    5.334991   7.216398   2.175711   0.000000
    35  H    2.713494   4.790998   2.150319   4.315732   0.000000
    36  H    1.092896   2.483259   4.086361   5.950526   2.478954
    37  H    4.631497   6.770675   1.092512   2.498130   2.481083
    38  H    8.444826   8.577944   8.595795   7.533984   9.801735
    39  H    6.247164   6.549154   6.793959   6.611292   7.416705
    40  C    8.098848   7.862063   8.869833   8.030455   9.861232
    41  H    7.623920   7.134070   8.857996   8.283154   9.618529
    42  H    8.790058   8.540948   9.488793   8.572535  10.522009
    43  H    8.789982   8.540906   9.488671   8.572411  10.521895
    44  C    8.263265   8.674047   7.907403   6.538887   9.373016
    45  H    8.948808   9.313109   8.578983   7.164359  10.059469
    46  H    7.922872   8.602028   7.122920   5.592858   8.740972
    47  H    8.948730   9.313082   8.578817   7.164166  10.059331
                   36         37         38         39         40
    36  H    0.000000
    37  H    4.789265   0.000000
    38  H    9.491760   9.483890   0.000000
    39  H    7.036121   7.610891   8.091923   0.000000
    40  C    9.178391   9.866592   2.932641   6.097269   0.000000
    41  H    8.675972   9.900349   3.510379   5.984615   1.100138
    42  H    9.865111  10.466938   3.811185   5.938345   1.100572
    43  H    9.865029  10.466807   2.319332   7.181312   1.100573
    44  C    9.346287   8.754138   2.798831   6.120429   2.529529
    45  H   10.028683   9.405070   3.704321   5.968591   2.784261
    46  H    8.980256   7.901896   3.317743   6.026174   3.494257
    47  H   10.028599   9.404889   2.149202   7.201028   2.784292
                   41         42         43         44         45
    41  H    0.000000
    42  H    1.781628   0.000000
    43  H    1.781629   1.781121   0.000000
    44  C    3.493531   2.783262   2.783291   0.000000
    45  H    3.796971   2.585125   3.136962   1.099607   0.000000
    46  H    4.347421   3.795662   3.795700   1.100193   1.781189
    47  H    3.797007   3.136966   2.585189   1.099607   1.772762
                   46         47
    46  H    0.000000
    47  H    1.781189   0.000000
 Symmetry turned off by external request.
 Stoichiometry    C25H21N
 Framework group  C1[X(C25H21N)]
 Deg. of freedom   135
 Full point group                 C1      NOp   1
 Rotational constants (GHZ):      0.3150006      0.1817429      0.1465634
 Leave Link  202 at Thu Apr  1 09:54:19 2021, MaxMem=  5242880000 cpu:         0.2
 (Enter /opt/nce/packages/global/g09/l301.exe)
 Standard basis: def2TZVP (5D, 7F)
 Ernie: Thresh=  0.10000D-02 Tol=  0.10000D-05 Strict=F.
   932 basis functions,  1494 primitive gaussians,  1062 cartesian basis functions
    89 alpha electrons       89 beta electrons
       nuclear repulsion energy      2226.8289668978 Hartrees.
 IExCor= 4639 DFT=T Ex+Corr=wB97XD ExCW=0 ScaHFX=  1.000000
 ScaDFX=  1.000000  1.000000  1.000000  1.000000 ScalE2=  1.000000  1.000000
 IRadAn=      5 IRanWt=     -1 IRanGd=            0 ICorTp=0 IEmpDi=121
  HFx wShort=  0.000000 wLong=  0.200000 cFull=  0.222036 cShort=  0.000000 cLong=  0.777964
  DFx wShort=  0.000000 wLong=  0.200000 cFull=  0.000000 cShort=  0.000000 cLong=  1.000000
 NAtoms=   47 NActive=   47 NUniq=   47 SFac= 1.00D+00 NAtFMM=   60 NAOKFM=F Big=F
 Integral buffers will be    131072 words long.
 Raffenetti 2 integral format.
 Two-electron integral symmetry is turned off.
 R6Disp:  Grimme-D2 Dispersion energy=       -0.0428982256 Hartrees.
 Nuclear repulsion after empirical dispersion term =     2226.7860686721 Hartrees.
 ------------------------------------------------------------------------------
 Polarizable Continuum Model (PCM)
 =================================
 Model                : PCM (using non-symmetric T matrix).
 Atomic radii         : SMD-Coulomb.
 Polarization charges : Total charges.
 Charge compensation  : None.
 Solution method      : On-the-fly selection.
 Cavity type          : VdW (van der Waals Surface) (Alpha=1.000).
 Cavity algorithm     : GePol (No added spheres)
                        Default sphere list used, NSphG=   47.
                        Lebedev-Laikov grids with approx.  5.0 points / Ang**2.
                        Smoothing algorithm: York/Karplus (Gamma=1.0000).
                        Polarization charges: spherical gaussians, with
                                              point-specific exponents (IZeta= 3).
                        Self-potential: point-specific (ISelfS= 7).
                        Self-field    : sphere-specific E.n sum rule (ISelfD= 2).
 1st derivatives      : Analytical E(r).r(x)/FMM algorithm (CHGder, D1EAlg=3).
                        Cavity 1st derivative terms included.
 Solvent              : n,n-DiMethylFormamide, Eps=  37.219000 Eps(inf)=   2.046330
 ------------------------------------------------------------------------------
 GePol: Number of generator spheres                  =      47
 GePol: Total number of spheres                      =      47
 GePol: Number of exposed spheres                    =      47 (100.00%)
 GePol: Number of points                             =    3448
 GePol: Average weight of points                     =       0.10
 GePol: Minimum weight of points                     =   0.11D-10
 GePol: Maximum weight of points                     =    0.17992
 GePol: Number of points with low weight             =     254
 GePol: Fraction of low-weight points (<1% of avg)   =       7.37%
 GePol: Cavity surface area                          =    360.262 Ang**2
 GePol: Cavity volume                                =    354.637 Ang**3
 ------------------------------------------------------------------------------
 Atomic radii for non-electrostatic terms: SMD-CDS.
 ------------------------------------------------------------------------------
 PCM non-electrostatic energy =        -0.0052118738 Hartrees.
 Nuclear repulsion after PCM non-electrostatic terms =     2226.7808567983 Hartrees.
 Leave Link  301 at Thu Apr  1 09:54:19 2021, MaxMem=  5242880000 cpu:         1.8
 (Enter /opt/nce/packages/global/g09/l302.exe)
 NPDir=0 NMtPBC=     1 NCelOv=     1 NCel=       1 NClECP=     1 NCelD=      1
         NCelK=      1 NCelE2=     1 NClLst=     1 CellRange=     0.0.
 One-electron integrals computed using PRISM.
   1 Symmetry operations used in ECPInt.
 ECPInt:  NShTT=   68635 NPrTT=  209616 LenC2=   60285 LenP2D=  129458.
 LDataN:  DoStor=T MaxTD1= 6 Len=  172
 NBasis=   932 RedAO= T EigKep=  4.04D-06  NBF=   932
 NBsUse=   932 1.00D-06 EigRej= -1.00D+00 NBFU=   932
 Precomputing XC quadrature grid using
 IXCGrd= 4 IRadAn=           5 IRanWt=          -1 IRanGd=           0 AccXCQ= 0.00D+00.
 Generated NRdTot=       0 NPtTot=           0 NUsed=           0 NTot=          32
 NSgBfM=  1044  1044  1044  1045  1045 MxSgAt=    47 MxSgA2=    47.
 Leave Link  302 at Thu Apr  1 09:54:21 2021, MaxMem=  5242880000 cpu:        23.8
 (Enter /opt/nce/packages/global/g09/l303.exe)
 DipDrv:  MaxL=1.
 Leave Link  303 at Thu Apr  1 09:54:22 2021, MaxMem=  5242880000 cpu:         2.4
 (Enter /opt/nce/packages/global/g09/l401.exe)
 ExpMin= 9.52D-02 ExpMax= 1.97D+04 ExpMxC= 6.73D+02 IAcc=3 IRadAn=         5 AccDes= 0.00D+00
 Harris functional with IExCor= 4639 and IRadAn=       5 diagonalized for initial guess.
 HarFok:  IExCor= 4639 AccDes= 0.00D+00 IRadAn=         5 IDoV= 1 UseB2=F ITyADJ=14
 ICtDFT=  3500011 ScaDFX=  1.000000  1.000000  1.000000  1.000000
 FoFCou: FMM=F IPFlag=           0 FMFlag=      100000 FMFlg1=           0
         NFxFlg=           0 DoJE=T BraDBF=F KetDBF=T FulRan=T
         wScrn=  0.000000 ICntrl=     500 IOpCl=  0 I1Cent=   200000004 NGrid=           0
         NMat0=    1 NMatS0=      1 NMatT0=    0 NMatD0=    1 NMtDS0=    0 NMtDT0=    0
 Symmetry not used in FoFCou.
 Harris En= -973.646108409188    
 JPrj=0 DoOrth=F DoCkMO=F.
 Leave Link  401 at Thu Apr  1 09:54:32 2021, MaxMem=  5242880000 cpu:       121.7
 (Enter /opt/nce/packages/global/g09/l502.exe)
 Closed shell SCF:
 Using DIIS extrapolation, IDIIS=  1040.
 Two-electron integral symmetry not used.
 IVT=     3421292 IEndB=     3421292 NGot=  5242880000 MDV=  5240604255
 LenX=  5240604255 LenY=  5239475349
 Requested convergence on RMS density matrix=1.00D-08 within 128 cycles.
 Requested convergence on MAX density matrix=1.00D-06.
 Requested convergence on             energy=1.00D-06.
 No special actions if energy rises.
 Fock matrices will be formed incrementally for  20 cycles.

 Cycle   1  Pass 1  IDiag  1:
 FoFJK:  IHMeth= 1 ICntrl=       0 DoSepK=T KAlg= 0 I1Cent=   0 FoldK=F
 IRaf=         1 NMat=   1 IRICut=       1 DoRegI=T DoRafI=F ISym2E= 0.
 FoFCou: FMM=F IPFlag=           0 FMFlag=      100000 FMFlg1=           0
         NFxFlg=           0 DoJE=T BraDBF=F KetDBF=F FulRan=T
         wScrn=  0.000000 ICntrl=     500 IOpCl=  0 I1Cent=           0 NGrid=           0
         NMat0=    1 NMatS0=      1 NMatT0=    0 NMatD0=    1 NMtDS0=    0 NMtDT0=    0
 Symmetry not used in FoFCou.
 Inv3:  Mode=1 IEnd=    35666112.
 Iteration    1 A*A^-1 deviation from unit magnitude is 6.44D-15 for   3438.
 Iteration    1 A*A^-1 deviation from orthogonality  is 4.19D-15 for   1420   1192.
 Iteration    1 A^-1*A deviation from unit magnitude is 6.22D-15 for   3438.
 Iteration    1 A^-1*A deviation from orthogonality  is 1.23D-12 for   1550   1515.
 E= -1019.79383995399    
 DIIS: error= 4.58D-02 at cycle   1 NSaved=   1.
 NSaved= 1 IEnMin= 1 EnMin= -1019.79383995399     IErMin= 1 ErrMin= 4.58D-02
 ErrMax= 4.58D-02  0.00D+00 EMaxC= 1.00D-01 BMatC= 2.27D+00 BMatP= 2.27D+00
 IDIUse=3 WtCom= 5.42D-01 WtEn= 4.58D-01
 Coeff-Com:  0.100D+01
 Coeff-En:   0.100D+01
 Coeff:      0.100D+01
 Gap=     0.318 Goal=   None    Shift=    0.000
 GapD=    0.318 DampG=1.000 DampE=0.500 DampFc=0.5000 IDamp=-1.
 Damping current iteration by 5.00D-01
 RMSDP=1.89D-03 MaxDP=2.98D-01              OVMax= 2.03D-01

 Cycle   2  Pass 1  IDiag  1:
 RMSU=  8.32D-04    CP:  9.26D-01
 E= -1019.94581369358     Delta-E=       -0.151973739586 Rises=F Damp=T
 DIIS: error= 2.31D-02 at cycle   2 NSaved=   2.
 NSaved= 2 IEnMin= 2 EnMin= -1019.94581369358     IErMin= 2 ErrMin= 2.31D-02
 ErrMax= 2.31D-02  0.00D+00 EMaxC= 1.00D-01 BMatC= 4.91D-01 BMatP= 2.27D+00
 IDIUse=3 WtCom= 7.69D-01 WtEn= 2.31D-01
 Coeff-Com: -0.691D+00 0.169D+01
 Coeff-En:   0.000D+00 0.100D+01
 Coeff:     -0.532D+00 0.153D+01
 Gap=     0.281 Goal=   None    Shift=    0.000
 RMSDP=9.24D-04 MaxDP=8.96D-02 DE=-1.52D-01 OVMax= 2.19D-01

 Cycle   3  Pass 1  IDiag  1:
 RMSU=  7.03D-04    CP:  8.72D-01  1.60D+00
 E= -1020.01121366525     Delta-E=       -0.065399971671 Rises=F Damp=F
 DIIS: error= 9.44D-03 at cycle   3 NSaved=   3.
 NSaved= 3 IEnMin= 3 EnMin= -1020.01121366525     IErMin= 3 ErrMin= 9.44D-03
 ErrMax= 9.44D-03  0.00D+00 EMaxC= 1.00D-01 BMatC= 1.13D-01 BMatP= 4.91D-01
 IDIUse=3 WtCom= 9.06D-01 WtEn= 9.44D-02
 Coeff-Com: -0.399D+00 0.856D+00 0.543D+00
 Coeff-En:   0.000D+00 0.872D-01 0.913D+00
 Coeff:     -0.362D+00 0.784D+00 0.578D+00
 Gap=     0.291 Goal=   None    Shift=    0.000
 RMSDP=4.27D-04 MaxDP=5.82D-02 DE=-6.54D-02 OVMax= 1.14D-01

 Cycle   4  Pass 1  IDiag  1:
 RMSU=  1.98D-04    CP:  8.59D-01  1.85D+00  5.65D-01
 E= -1020.11416081901     Delta-E=       -0.102947153761 Rises=F Damp=F
 DIIS: error= 1.73D-03 at cycle   4 NSaved=   4.
 NSaved= 4 IEnMin= 4 EnMin= -1020.11416081901     IErMin= 4 ErrMin= 1.73D-03
 ErrMax= 1.73D-03  0.00D+00 EMaxC= 1.00D-01 BMatC= 3.05D-03 BMatP= 1.13D-01
 IDIUse=3 WtCom= 9.83D-01 WtEn= 1.73D-02
 Coeff-Com: -0.110D+00 0.237D+00 0.241D+00 0.632D+00
 Coeff-En:   0.000D+00 0.000D+00 0.000D+00 0.100D+01
 Coeff:     -0.108D+00 0.233D+00 0.237D+00 0.638D+00
 Gap=     0.268 Goal=   None    Shift=    0.000
 RMSDP=6.18D-05 MaxDP=5.50D-03 DE=-1.03D-01 OVMax= 1.05D-02

 Cycle   5  Pass 1  IDiag  1:
 RMSU=  4.13D-05    CP:  8.58D-01  1.85D+00  6.30D-01  1.01D+00
 E= -1020.11677142059     Delta-E=       -0.002610601582 Rises=F Damp=F
 DIIS: error= 2.74D-04 at cycle   5 NSaved=   5.
 NSaved= 5 IEnMin= 5 EnMin= -1020.11677142059     IErMin= 5 ErrMin= 2.74D-04
 ErrMax= 2.74D-04  0.00D+00 EMaxC= 1.00D-01 BMatC= 6.48D-05 BMatP= 3.05D-03
 IDIUse=3 WtCom= 9.97D-01 WtEn= 2.74D-03
 Coeff-Com:  0.410D-01-0.878D-01-0.267D-01 0.153D+00 0.920D+00
 Coeff-En:   0.000D+00 0.000D+00 0.000D+00 0.000D+00 0.100D+01
 Coeff:      0.409D-01-0.876D-01-0.267D-01 0.153D+00 0.921D+00
 Gap=     0.269 Goal=   None    Shift=    0.000
 RMSDP=3.55D-05 MaxDP=4.46D-03 DE=-2.61D-03 OVMax= 4.08D-03

 Cycle   6  Pass 1  IDiag  1:
 RMSU=  1.92D-05    CP:  8.57D-01  1.86D+00  6.40D-01  1.11D+00  1.34D+00
 E= -1020.11686682266     Delta-E=       -0.000095402069 Rises=F Damp=F
 DIIS: error= 1.14D-04 at cycle   6 NSaved=   6.
 NSaved= 6 IEnMin= 6 EnMin= -1020.11686682266     IErMin= 6 ErrMin= 1.14D-04
 ErrMax= 1.14D-04  0.00D+00 EMaxC= 1.00D-01 BMatC= 8.15D-06 BMatP= 6.48D-05
 IDIUse=3 WtCom= 9.99D-01 WtEn= 1.14D-03
 Coeff-Com:  0.188D-01-0.404D-01-0.192D-01 0.204D-01 0.336D+00 0.684D+00
 Coeff-En:   0.000D+00 0.000D+00 0.000D+00 0.000D+00 0.000D+00 0.100D+01
 Coeff:      0.188D-01-0.404D-01-0.191D-01 0.204D-01 0.336D+00 0.684D+00
 Gap=     0.269 Goal=   None    Shift=    0.000
 RMSDP=7.51D-06 MaxDP=1.03D-03 DE=-9.54D-05 OVMax= 1.77D-03

 Cycle   7  Pass 1  IDiag  1:
 RMSU=  4.18D-06    CP:  8.57D-01  1.86D+00  6.41D-01  1.14D+00  1.42D+00
                    CP:  1.03D+00
 E= -1020.11687801580     Delta-E=       -0.000011193142 Rises=F Damp=F
 DIIS: error= 4.68D-05 at cycle   7 NSaved=   7.
 NSaved= 7 IEnMin= 7 EnMin= -1020.11687801580     IErMin= 7 ErrMin= 4.68D-05
 ErrMax= 4.68D-05  0.00D+00 EMaxC= 1.00D-01 BMatC= 1.12D-06 BMatP= 8.15D-06
 IDIUse=1 WtCom= 1.00D+00 WtEn= 0.00D+00
 Coeff-Com: -0.261D-02 0.560D-02 0.452D-03-0.247D-01-0.816D-01 0.198D+00
 Coeff-Com:  0.905D+00
 Coeff:     -0.261D-02 0.560D-02 0.452D-03-0.247D-01-0.816D-01 0.198D+00
 Coeff:      0.905D+00
 Gap=     0.269 Goal=   None    Shift=    0.000
 RMSDP=4.00D-06 MaxDP=5.35D-04 DE=-1.12D-05 OVMax= 1.04D-03

 Cycle   8  Pass 1  IDiag  1:
 RMSU=  2.26D-06    CP:  8.56D-01  1.86D+00  6.40D-01  1.14D+00  1.46D+00
                    CP:  1.14D+00  1.22D+00
 E= -1020.11688056473     Delta-E=       -0.000002548929 Rises=F Damp=F
 DIIS: error= 1.92D-05 at cycle   8 NSaved=   8.
 NSaved= 8 IEnMin= 8 EnMin= -1020.11688056473     IErMin= 8 ErrMin= 1.92D-05
 ErrMax= 1.92D-05  0.00D+00 EMaxC= 1.00D-01 BMatC= 1.27D-07 BMatP= 1.12D-06
 IDIUse=1 WtCom= 1.00D+00 WtEn= 0.00D+00
 Coeff-Com: -0.235D-02 0.506D-02 0.197D-02-0.997D-02-0.557D-01-0.629D-02
 Coeff-Com:  0.231D+00 0.837D+00
 Coeff:     -0.235D-02 0.506D-02 0.197D-02-0.997D-02-0.557D-01-0.629D-02
 Coeff:      0.231D+00 0.837D+00
 Gap=     0.269 Goal=   None    Shift=    0.000
 RMSDP=1.22D-06 MaxDP=7.23D-05 DE=-2.55D-06 OVMax= 4.07D-04

 Cycle   9  Pass 1  IDiag  1:
 RMSU=  8.45D-07    CP:  8.56D-01  1.86D+00  6.40D-01  1.14D+00  1.47D+00
                    CP:  1.16D+00  1.32D+00  1.23D+00
 E= -1020.11688090070     Delta-E=       -0.000000335970 Rises=F Damp=F
 DIIS: error= 6.34D-06 at cycle   9 NSaved=   9.
 NSaved= 9 IEnMin= 9 EnMin= -1020.11688090070     IErMin= 9 ErrMin= 6.34D-06
 ErrMax= 6.34D-06  0.00D+00 EMaxC= 1.00D-01 BMatC= 1.92D-08 BMatP= 1.27D-07
 IDIUse=1 WtCom= 1.00D+00 WtEn= 0.00D+00
 Coeff-Com: -0.109D-03 0.229D-03 0.495D-03 0.163D-02-0.182D-03-0.335D-01
 Coeff-Com: -0.112D+00 0.183D+00 0.960D+00
 Coeff:     -0.109D-03 0.229D-03 0.495D-03 0.163D-02-0.182D-03-0.335D-01
 Coeff:     -0.112D+00 0.183D+00 0.960D+00
 Gap=     0.269 Goal=   None    Shift=    0.000
 RMSDP=6.73D-07 MaxDP=5.70D-05 DE=-3.36D-07 OVMax= 2.10D-04

 Cycle  10  Pass 1  IDiag  1:
 RMSU=  3.06D-07    CP:  8.56D-01  1.86D+00  6.40D-01  1.14D+00  1.47D+00
                    CP:  1.16D+00  1.38D+00  1.42D+00  1.34D+00
 E= -1020.11688096849     Delta-E=       -0.000000067782 Rises=F Damp=F
 DIIS: error= 2.99D-06 at cycle  10 NSaved=  10.
 NSaved=10 IEnMin=10 EnMin= -1020.11688096849     IErMin=10 ErrMin= 2.99D-06
 ErrMax= 2.99D-06  0.00D+00 EMaxC= 1.00D-01 BMatC= 2.30D-09 BMatP= 1.92D-08
 IDIUse=1 WtCom= 1.00D+00 WtEn= 0.00D+00
 Coeff-Com:  0.203D-03-0.439D-03-0.327D-04 0.167D-02 0.579D-02-0.684D-02
 Coeff-Com: -0.554D-01-0.450D-01 0.257D+00 0.843D+00
 Coeff:      0.203D-03-0.439D-03-0.327D-04 0.167D-02 0.579D-02-0.684D-02
 Coeff:     -0.554D-01-0.450D-01 0.257D+00 0.843D+00
 Gap=     0.269 Goal=   None    Shift=    0.000
 RMSDP=2.52D-07 MaxDP=3.02D-05 DE=-6.78D-08 OVMax= 6.41D-05

 Cycle  11  Pass 1  IDiag  1:
 RMSU=  9.21D-08    CP:  8.56D-01  1.86D+00  6.40D-01  1.14D+00  1.47D+00
                    CP:  1.16D+00  1.39D+00  1.46D+00  1.49D+00  1.33D+00
 E= -1020.11688097672     Delta-E=       -0.000000008230 Rises=F Damp=F
 DIIS: error= 1.31D-06 at cycle  11 NSaved=  11.
 NSaved=11 IEnMin=11 EnMin= -1020.11688097672     IErMin=11 ErrMin= 1.31D-06
 ErrMax= 1.31D-06  0.00D+00 EMaxC= 1.00D-01 BMatC= 4.62D-10 BMatP= 2.30D-09
 IDIUse=1 WtCom= 1.00D+00 WtEn= 0.00D+00
 Coeff-Com:  0.749D-04-0.159D-03-0.117D-03 0.131D-03 0.131D-02 0.574D-02
 Coeff-Com:  0.933D-02-0.466D-01-0.137D+00 0.187D+00 0.981D+00
 Coeff:      0.749D-04-0.159D-03-0.117D-03 0.131D-03 0.131D-02 0.574D-02
 Coeff:      0.933D-02-0.466D-01-0.137D+00 0.187D+00 0.981D+00
 Gap=     0.269 Goal=   None    Shift=    0.000
 RMSDP=1.31D-07 MaxDP=1.80D-05 DE=-8.23D-09 OVMax= 3.24D-05

 Cycle  12  Pass 1  IDiag  1:
 RMSU=  4.83D-08    CP:  8.56D-01  1.86D+00  6.40D-01  1.14D+00  1.47D+00
                    CP:  1.16D+00  1.39D+00  1.47D+00  1.55D+00  1.56D+00
                    CP:  1.38D+00
 E= -1020.11688097870     Delta-E=       -0.000000001987 Rises=F Damp=F
 DIIS: error= 4.77D-07 at cycle  12 NSaved=  12.
 NSaved=12 IEnMin=12 EnMin= -1020.11688097870     IErMin=12 ErrMin= 4.77D-07
 ErrMax= 4.77D-07  0.00D+00 EMaxC= 1.00D-01 BMatC= 5.12D-11 BMatP= 4.62D-10
 IDIUse=1 WtCom= 1.00D+00 WtEn= 0.00D+00
 Coeff-Com: -0.109D-04 0.238D-04-0.208D-04-0.185D-03-0.514D-03 0.208D-02
 Coeff-Com:  0.914D-02-0.186D-02-0.612D-01-0.827D-01 0.176D+00 0.959D+00
 Coeff:     -0.109D-04 0.238D-04-0.208D-04-0.185D-03-0.514D-03 0.208D-02
 Coeff:      0.914D-02-0.186D-02-0.612D-01-0.827D-01 0.176D+00 0.959D+00
 Gap=     0.269 Goal=   None    Shift=    0.000
 RMSDP=3.59D-08 MaxDP=2.70D-06 DE=-1.99D-09 OVMax= 1.26D-05

 Cycle  13  Pass 1  IDiag  1:
 RMSU=  1.49D-08    CP:  8.56D-01  1.86D+00  6.40D-01  1.14D+00  1.47D+00
                    CP:  1.16D+00  1.39D+00  1.47D+00  1.56D+00  1.62D+00
                    CP:  1.60D+00  1.31D+00
 E= -1020.11688097892     Delta-E=       -0.000000000217 Rises=F Damp=F
 DIIS: error= 1.52D-07 at cycle  13 NSaved=  13.
 NSaved=13 IEnMin=13 EnMin= -1020.11688097892     IErMin=13 ErrMin= 1.52D-07
 ErrMax= 1.52D-07  0.00D+00 EMaxC= 1.00D-01 BMatC= 1.23D-11 BMatP= 5.12D-11
 IDIUse=1 WtCom= 1.00D+00 WtEn= 0.00D+00
 Coeff-Com: -0.144D-04 0.307D-04 0.761D-05-0.914D-04-0.379D-03-0.309D-04
 Coeff-Com:  0.205D-02 0.572D-02-0.442D-02-0.584D-01-0.778D-01 0.369D+00
 Coeff-Com:  0.765D+00
 Coeff:     -0.144D-04 0.307D-04 0.761D-05-0.914D-04-0.379D-03-0.309D-04
 Coeff:      0.205D-02 0.572D-02-0.442D-02-0.584D-01-0.778D-01 0.369D+00
 Coeff:      0.765D+00
 Gap=     0.269 Goal=   None    Shift=    0.000
 RMSDP=1.20D-08 MaxDP=1.14D-06 DE=-2.17D-10 OVMax= 3.71D-06

 Cycle  14  Pass 1  IDiag  1:
 RMSU=  6.30D-09    CP:  8.56D-01  1.86D+00  6.40D-01  1.14D+00  1.47D+00
                    CP:  1.16D+00  1.39D+00  1.47D+00  1.56D+00  1.63D+00
                    CP:  1.65D+00  1.44D+00  1.24D+00
 E= -1020.11688097901     Delta-E=       -0.000000000086 Rises=F Damp=F
 DIIS: error= 4.73D-08 at cycle  14 NSaved=  14.
 NSaved=14 IEnMin=14 EnMin= -1020.11688097901     IErMin=14 ErrMin= 4.73D-08
 ErrMax= 4.73D-08  0.00D+00 EMaxC= 1.00D-01 BMatC= 8.10D-13 BMatP= 1.23D-11
 IDIUse=1 WtCom= 1.00D+00 WtEn= 0.00D+00
 Coeff-Com: -0.215D-06 0.428D-06 0.272D-05 0.851D-05 0.135D-04-0.271D-03
 Coeff-Com: -0.964D-03 0.985D-03 0.761D-02 0.509D-02-0.326D-01-0.858D-01
 Coeff-Com:  0.944D-01 0.101D+01
 Coeff:     -0.215D-06 0.428D-06 0.272D-05 0.851D-05 0.135D-04-0.271D-03
 Coeff:     -0.964D-03 0.985D-03 0.761D-02 0.509D-02-0.326D-01-0.858D-01
 Coeff:      0.944D-01 0.101D+01
 Gap=     0.269 Goal=   None    Shift=    0.000
 RMSDP=6.75D-09 MaxDP=7.73D-07 DE=-8.64D-11 OVMax= 1.23D-06

 Error on total polarization charges =  0.06928
 SCF Done:  E(RwB97XD) =  -1020.11688098     A.U. after   14 cycles
            NFock= 14  Conv=0.68D-08     -V/T= 2.0059
 KE= 1.014112846899D+03 PE=-6.820671220043D+03 EE= 2.559660635367D+03
 SMD-CDS (non-electrostatic) energy       (kcal/mol) =      -3.27
 (included in total energy above)
 Leave Link  502 at Thu Apr  1 10:24:54 2021, MaxMem=  5242880000 cpu:     21810.4
 (Enter /opt/nce/packages/global/g09/l601.exe)
 Copying SCF densities to generalized density rwf, IOpCl= 0 IROHF=0.

 **********************************************************************

            Population analysis using the SCF density.

 **********************************************************************

 Alpha  occ. eigenvalues --  -14.47153 -10.33691 -10.33690 -10.33262 -10.31106
 Alpha  occ. eigenvalues --  -10.30648 -10.30605 -10.29569 -10.29551 -10.29500
 Alpha  occ. eigenvalues --  -10.29500 -10.29446 -10.29363 -10.29337 -10.29270
 Alpha  occ. eigenvalues --  -10.29218 -10.28674 -10.28674 -10.28594 -10.28594
 Alpha  occ. eigenvalues --  -10.28385 -10.28384 -10.27958 -10.27958 -10.26820
 Alpha  occ. eigenvalues --  -10.26762  -1.08093  -0.98167  -0.95747  -0.95627
 Alpha  occ. eigenvalues --   -0.92472  -0.90982  -0.87673  -0.85655  -0.84501
 Alpha  occ. eigenvalues --   -0.84198  -0.83127  -0.82283  -0.79867  -0.77687
 Alpha  occ. eigenvalues --   -0.73702  -0.72108  -0.72097  -0.71344  -0.70108
 Alpha  occ. eigenvalues --   -0.68517  -0.66214  -0.63419  -0.63239  -0.62057
 Alpha  occ. eigenvalues --   -0.60717  -0.58935  -0.57555  -0.55709  -0.55146
 Alpha  occ. eigenvalues --   -0.54435  -0.54202  -0.53974  -0.52331  -0.51992
 Alpha  occ. eigenvalues --   -0.51529  -0.50752  -0.50575  -0.50167  -0.50068
 Alpha  occ. eigenvalues --   -0.48702  -0.48515  -0.47819  -0.47075  -0.46161
 Alpha  occ. eigenvalues --   -0.46078  -0.45076  -0.44856  -0.44753  -0.42989
 Alpha  occ. eigenvalues --   -0.42847  -0.42080  -0.42052  -0.41808  -0.40569
 Alpha  occ. eigenvalues --   -0.39969  -0.39158  -0.37210  -0.33826  -0.32762
 Alpha  occ. eigenvalues --   -0.32333  -0.32246  -0.29583  -0.26092
 Alpha virt. eigenvalues --    0.00846   0.03536   0.04762   0.05005   0.06435
 Alpha virt. eigenvalues --    0.08386   0.09199   0.11380   0.13024   0.13772
 Alpha virt. eigenvalues --    0.14283   0.14513   0.14801   0.15308   0.16303
 Alpha virt. eigenvalues --    0.16431   0.16614   0.17300   0.18278   0.18458
 Alpha virt. eigenvalues --    0.18754   0.19103   0.19441   0.19889   0.20160
 Alpha virt. eigenvalues --    0.20758   0.20993   0.21036   0.21668   0.22423
 Alpha virt. eigenvalues --    0.23260   0.23827   0.23891   0.24678   0.25174
 Alpha virt. eigenvalues --    0.25513   0.25748   0.25776   0.25904   0.26463
 Alpha virt. eigenvalues --    0.27262   0.27392   0.27435   0.28030   0.28569
 Alpha virt. eigenvalues --    0.28764   0.29247   0.29394   0.29665   0.29978
 Alpha virt. eigenvalues --    0.30172   0.31022   0.31141   0.31639   0.31913
 Alpha virt. eigenvalues --    0.31982   0.32413   0.32800   0.33189   0.34382
 Alpha virt. eigenvalues --    0.34693   0.35103   0.35105   0.35224   0.36091
 Alpha virt. eigenvalues --    0.36378   0.36705   0.37319   0.37716   0.37839
 Alpha virt. eigenvalues --    0.38170   0.39317   0.39410   0.39473   0.40047
 Alpha virt. eigenvalues --    0.40166   0.40239   0.40831   0.41021   0.41417
 Alpha virt. eigenvalues --    0.42295   0.42693   0.43279   0.43828   0.43912
 Alpha virt. eigenvalues --    0.44099   0.44887   0.44979   0.45349   0.45495
 Alpha virt. eigenvalues --    0.45856   0.46064   0.46720   0.46804   0.47301
 Alpha virt. eigenvalues --    0.47450   0.47532   0.48207   0.48355   0.48395
 Alpha virt. eigenvalues --    0.48860   0.49368   0.49522   0.49549   0.49724
 Alpha virt. eigenvalues --    0.49939   0.51243   0.51662   0.52049   0.52462
 Alpha virt. eigenvalues --    0.52887   0.53173   0.53699   0.53774   0.54021
 Alpha virt. eigenvalues --    0.54990   0.55190   0.55694   0.56008   0.56327
 Alpha virt. eigenvalues --    0.56849   0.56938   0.57186   0.57344   0.57507
 Alpha virt. eigenvalues --    0.58245   0.58724   0.58745   0.58808   0.59553
 Alpha virt. eigenvalues --    0.60231   0.60794   0.61405   0.61729   0.61870
 Alpha virt. eigenvalues --    0.62480   0.63624   0.64107   0.64378   0.65130
 Alpha virt. eigenvalues --    0.65742   0.66494   0.66706   0.67188   0.67263
 Alpha virt. eigenvalues --    0.68125   0.69271   0.69732   0.70392   0.71454
 Alpha virt. eigenvalues --    0.72118   0.72224   0.72975   0.73321   0.74155
 Alpha virt. eigenvalues --    0.74175   0.74589   0.75549   0.75810   0.76258
 Alpha virt. eigenvalues --    0.76617   0.76643   0.77063   0.77309   0.77810
 Alpha virt. eigenvalues --    0.78044   0.78162   0.79504   0.79717   0.79902
 Alpha virt. eigenvalues --    0.80497   0.80816   0.81162   0.81945   0.82859
 Alpha virt. eigenvalues --    0.82915   0.83559   0.83936   0.84227   0.84859
 Alpha virt. eigenvalues --    0.85534   0.85666   0.85804   0.86179   0.87298
 Alpha virt. eigenvalues --    0.87344   0.88378   0.89642   0.89661   0.90828
 Alpha virt. eigenvalues --    0.91347   0.92403   0.92709   0.92927   0.93224
 Alpha virt. eigenvalues --    0.94189   0.94208   0.94381   0.94636   0.95363
 Alpha virt. eigenvalues --    0.95830   0.96152   0.97563   0.97578   0.98313
 Alpha virt. eigenvalues --    0.98373   0.98465   1.00373   1.00494   1.00900
 Alpha virt. eigenvalues --    1.01243   1.02121   1.03457   1.03578   1.04680
 Alpha virt. eigenvalues --    1.04852   1.05758   1.05923   1.07043   1.07182
 Alpha virt. eigenvalues --    1.08057   1.09430   1.09610   1.09936   1.11658
 Alpha virt. eigenvalues --    1.11802   1.12777   1.13195   1.13935   1.14756
 Alpha virt. eigenvalues --    1.14874   1.15616   1.17492   1.17726   1.18004
 Alpha virt. eigenvalues --    1.19630   1.19925   1.20608   1.21084   1.21668
 Alpha virt. eigenvalues --    1.22325   1.22379   1.22653   1.23000   1.23675
 Alpha virt. eigenvalues --    1.25067   1.25769   1.26911   1.26943   1.27112
 Alpha virt. eigenvalues --    1.28417   1.28579   1.30235   1.30414   1.31009
 Alpha virt. eigenvalues --    1.31527   1.32408   1.32612   1.32618   1.32991
[...]
     6  C   -0.000019  -0.000006   0.000001   0.000044  -0.000002   0.000002
     7  C    0.000080   0.000065   0.000005  -0.000072  -0.000597   0.000006
     8  C   -0.000790  -0.000704   0.000613  -0.000231   0.000257   0.000004
     9  C   -0.001466  -0.001596   0.002763  -0.001574   0.001484  -0.000082
    10  C    0.004913  -0.000221  -0.000844  -0.000541  -0.002082   0.000057
    11  H    0.000642  -0.000739   0.000153   0.000228   0.000135  -0.000066
    12  C    0.000301   0.000065  -0.000036  -0.000080   0.000148  -0.000028
    13  C   -0.000019  -0.000006   0.000001   0.000044  -0.000002   0.000002
    14  C    0.000024   0.000008   0.000011  -0.000018   0.000093  -0.000003
    15  H    0.000643  -0.000739   0.000153   0.000228   0.000135  -0.000066
    16  H    0.000000   0.000000  -0.000000  -0.000000   0.000000  -0.000000
    17  H   -0.000000  -0.000000  -0.000000   0.000000  -0.000001   0.000000
    18  H    0.000007   0.000003   0.000002  -0.000004   0.000003  -0.000001
    19  H   -0.000000  -0.000000  -0.000000   0.000000  -0.000001   0.000000
    20  N    0.014076   0.011459  -0.004379   0.005632   0.007485  -0.000581
    21  C   -0.019933   0.095241  -0.079712   0.008543  -0.016757   0.024034
    22  C    0.176253  -0.160377   0.026710  -0.011923  -0.048576  -0.011703
    23  C   -0.125716   0.226409   0.482932  -0.001767   0.000645  -0.001979
    24  C    0.033286  -0.007517  -0.000110   0.415118   0.449691  -0.112656
    25  C    5.212238   0.080028  -0.007064  -0.067752   0.008582   0.361021
    26  C    0.080028   5.175699  -0.074020   0.000816  -0.000284   0.010695
    27  H   -0.007064  -0.074020   0.488531  -0.000026   0.000008  -0.000041
    28  C   -0.067752   0.000816  -0.000026   5.044626  -0.041383   0.037602
    29  H    0.008582  -0.000284   0.000008  -0.041383   0.456512  -0.003335
    30  C    0.361021   0.010695  -0.000041   0.037602  -0.003335   5.196067
    31  C    0.291186   0.330631   0.017348  -0.003584   0.000387  -0.123463
    32  H    0.017976   0.483073  -0.007566   0.000007  -0.000001  -0.000303
    33  C    0.052624  -0.001440   0.000014   0.320401   0.009440   0.412647
    34  H   -0.003638   0.000007  -0.000000   0.465634  -0.006381   0.013065
    35  H   -0.071530  -0.000175  -0.000001   0.012240   0.000001   0.462698
    36  H   -0.075841  -0.066155   0.000029   0.000109   0.000006  -0.004842
    37  H    0.013762   0.000008   0.000000  -0.063601  -0.000020  -0.066618
    38  H    0.000000   0.000000  -0.000000  -0.000000   0.000000  -0.000000
    39  H    0.000007   0.000003   0.000002  -0.000004   0.000003  -0.000001
    40  C    0.000000   0.000002   0.000017  -0.000002   0.000009  -0.000000
    41  H   -0.000001  -0.000002   0.000038  -0.000000  -0.000002  -0.000000
    42  H    0.000000   0.000000  -0.000001   0.000000  -0.000000   0.000000
    43  H    0.000000   0.000000  -0.000001   0.000000  -0.000000   0.000000
    44  C   -0.000004  -0.000002   0.000002   0.000052   0.000415  -0.000000
    45  H    0.000000   0.000000  -0.000000  -0.000001  -0.000003  -0.000000
    46  H    0.000001   0.000000  -0.000000  -0.000008   0.000675  -0.000000
    47  H    0.000000   0.000000  -0.000000  -0.000001  -0.000003  -0.000000
              31         32         33         34         35         36
     1  C   -0.000125   0.000000   0.000011  -0.000003  -0.000000  -0.000002
     2  C    0.000150   0.000023  -0.000200   0.000068  -0.000004  -0.000024
     3  C    0.001045  -0.000059   0.000003   0.000026  -0.000001   0.000014
     4  C    0.000170  -0.000004  -0.000010   0.000015   0.000000   0.000001
     5  C   -0.000003   0.000000   0.000003  -0.000002  -0.000000  -0.000000
     6  C    0.000008  -0.000000  -0.000001   0.000000   0.000000   0.000000
     7  C   -0.000025   0.000000  -0.000004   0.000005  -0.000000  -0.000000
     8  C    0.000170  -0.000004  -0.000010   0.000015   0.000000   0.000001
     9  C    0.001045  -0.000059   0.000003   0.000026  -0.000001   0.000014
    10  C    0.000151   0.000023  -0.000200   0.000068  -0.000004  -0.000024
    11  H    0.001249  -0.000033  -0.000021   0.000002   0.000003   0.000020
    12  C   -0.000125   0.000000   0.000011  -0.000003  -0.000000  -0.000002
    13  C    0.000008  -0.000000  -0.000001   0.000000   0.000000   0.000000
    14  C   -0.000003   0.000000   0.000003  -0.000002  -0.000000  -0.000000
    15  H    0.001249  -0.000033  -0.000021   0.000002   0.000003   0.000020
    16  H   -0.000000  -0.000000   0.000000  -0.000000  -0.000000  -0.000000
    17  H   -0.000000   0.000000  -0.000000   0.000000   0.000000   0.000000
    18  H   -0.000004   0.000000   0.000001  -0.000000  -0.000000  -0.000000
    19  H   -0.000000   0.000000  -0.000000   0.000000   0.000000   0.000000
    20  N   -0.000520  -0.000277   0.000159  -0.000044   0.000006   0.000003
    21  C   -0.217983   0.021386  -0.011676  -0.000353   0.000124  -0.006383
    22  C    0.100776  -0.007234  -0.108819   0.015976   0.022436   0.021029
    23  C    0.101340  -0.073414   0.000970  -0.000011   0.000139   0.015058
    24  C    0.029247   0.000063   0.059344  -0.065451  -0.005655  -0.000183
    25  C    0.291186   0.017976   0.052624  -0.003638  -0.071530  -0.075841
    26  C    0.330631   0.483073  -0.001440   0.000007  -0.000175  -0.066155
    27  H    0.017348  -0.007566   0.000014  -0.000000  -0.000001   0.000029
    28  C   -0.003584   0.000007   0.320401   0.465634   0.012240   0.000109
    29  H    0.000387  -0.000001   0.009440  -0.006381   0.000001   0.000006
    30  C   -0.123463  -0.000303   0.412647   0.013065   0.462698  -0.004842
    31  C    5.312390  -0.078235   0.013435  -0.000002  -0.005811   0.473083
    32  H   -0.078235   0.492838  -0.000004   0.000000  -0.000028  -0.007882
    33  C    0.013435  -0.000004   5.062560  -0.061782  -0.060363   0.000019
    34  H   -0.000002   0.000000  -0.061782   0.488805  -0.000036  -0.000002
    35  H   -0.005811  -0.000028  -0.060363  -0.000036   0.490756   0.004695
    36  H    0.473083  -0.007882   0.000019  -0.000002   0.004695   0.491976
    37  H   -0.000408  -0.000000   0.467777  -0.006723  -0.007145  -0.000032
    38  H   -0.000000  -0.000000   0.000000  -0.000000  -0.000000  -0.000000
    39  H   -0.000004   0.000000   0.000001  -0.000000  -0.000000  -0.000000
    40  C    0.000000  -0.000000  -0.000000   0.000000  -0.000000   0.000000
    41  H    0.000000  -0.000000   0.000000  -0.000000   0.000000   0.000000
    42  H   -0.000000   0.000000  -0.000000  -0.000000   0.000000  -0.000000
    43  H   -0.000000   0.000000  -0.000000  -0.000000   0.000000  -0.000000
    44  C    0.000000   0.000000   0.000001  -0.000002  -0.000000   0.000000
    45  H   -0.000000  -0.000000   0.000000   0.000000  -0.000000  -0.000000
    46  H   -0.000000  -0.000000   0.000000   0.000001   0.000000   0.000000
    47  H   -0.000000  -0.000000   0.000000   0.000000  -0.000000  -0.000000
              37         38         39         40         41         42
     1  C    0.000000   0.000001   0.465782  -0.000728  -0.000064   0.000236
     2  C   -0.000001   0.000008  -0.064474   0.001143   0.000028  -0.000218
     3  C    0.000001   0.000266   0.015520  -0.009459   0.001324   0.002165
     4  C   -0.000000   0.000239  -0.004312  -0.017940   0.002464  -0.023574
     5  C    0.000000  -0.000094   0.014877  -0.016786  -0.002033   0.004503
     6  C   -0.000000  -0.000001  -0.065063   0.002554  -0.000050  -0.000871
     7  C   -0.000000   0.003574   0.000021   0.264436  -0.050588  -0.036181
     8  C   -0.000000  -0.092371  -0.000012  -0.017940   0.002465   0.017710
     9  C    0.000001   0.020727   0.000030  -0.009459   0.001324   0.000123
    10  C   -0.000001  -0.005448  -0.000001   0.001143   0.000028  -0.000014
    11  H   -0.000001  -0.000020  -0.000000   0.000035   0.000003  -0.000001
    12  C    0.000000   0.011907   0.000000  -0.000728  -0.000064   0.000007
    13  C   -0.000000  -0.038492   0.000000   0.002555  -0.000050  -0.000048
    14  C    0.000000   0.458566  -0.000000  -0.016787  -0.002032   0.000419
    15  H   -0.000001  -0.000000  -0.006462   0.000035   0.000003  -0.000001
    16  H    0.000000  -0.000007  -0.000075  -0.003160   0.000206   0.002576
    17  H   -0.000000  -0.000000  -0.007040   0.000009   0.000003  -0.000021
    18  H    0.000000  -0.000075  -0.000000   0.000001  -0.000001   0.000000
    19  H   -0.000000  -0.006340   0.000000   0.000009   0.000003  -0.000001
    20  N   -0.000002  -0.000083  -0.000147  -0.000619  -0.000230   0.000012
    21  C    0.000101   0.000018   0.000168  -0.000468   0.000044   0.000013
    22  C   -0.004566  -0.000001  -0.000038   0.000116   0.000012  -0.000002
    23  C    0.000000  -0.000001   0.000001   0.000058  -0.000002  -0.000001
    24  C    0.014797   0.000001   0.000054  -0.000085   0.000001   0.000001
    25  C    0.013762   0.000000   0.000007   0.000000  -0.000001   0.000000
    26  C    0.000008   0.000000   0.000003   0.000002  -0.000002   0.000000
    27  H    0.000000  -0.000000   0.000002   0.000017   0.000038  -0.000001
    28  C   -0.063601  -0.000000  -0.000004  -0.000002  -0.000000   0.000000
    29  H   -0.000020   0.000000   0.000003   0.000009  -0.000002  -0.000000
    30  C   -0.066618  -0.000000  -0.000001  -0.000000  -0.000000   0.000000
    31  C   -0.000408  -0.000000  -0.000004   0.000000   0.000000  -0.000000
    32  H   -0.000000  -0.000000   0.000000  -0.000000  -0.000000   0.000000
    33  C    0.467777   0.000000   0.000001  -0.000000   0.000000  -0.000000
    34  H   -0.006723  -0.000000  -0.000000   0.000000  -0.000000  -0.000000
    35  H   -0.007145  -0.000000  -0.000000  -0.000000   0.000000   0.000000
    36  H   -0.000032  -0.000000  -0.000000   0.000000   0.000000  -0.000000
    37  H    0.490268   0.000000   0.000000   0.000000   0.000000  -0.000000
    38  H    0.000000   0.480806   0.000000  -0.003160   0.000206  -0.000003
    39  H    0.000000   0.000000   0.495025   0.000001  -0.000001   0.000000
    40  C    0.000000  -0.003160   0.000001   5.074204   0.413233   0.415924
    41  H    0.000000   0.000206  -0.000001   0.413233   0.521497  -0.019783
    42  H   -0.000000  -0.000003   0.000000   0.415924  -0.019783   0.520956
    43  H   -0.000000   0.002576   0.000000   0.415923  -0.019783  -0.021473
    44  C    0.000000  -0.003474   0.000001  -0.064065   0.009810  -0.005470
    45  H    0.000000   0.000030  -0.000000  -0.005277  -0.000070   0.000266
    46  H   -0.000000   0.000202  -0.000001   0.009689  -0.000287  -0.000069
    47  H    0.000000   0.002623   0.000000  -0.005277  -0.000070   0.000001
              43         44         45         46         47
     1  C    0.000007  -0.000382   0.000162  -0.000099   0.000008
     2  C   -0.000014   0.000216  -0.000117   0.000136  -0.000011
     3  C    0.000124  -0.012631   0.001560  -0.000237   0.000477
     4  C    0.017709   0.001451  -0.026490   0.005674   0.016631
     5  C    0.000419  -0.012772   0.004174  -0.001898   0.000282
     6  C   -0.000048   0.002282  -0.000545  -0.000030  -0.000059
     7  C   -0.036179   0.218726  -0.031529  -0.052998  -0.031527
     8  C   -0.023576   0.001446   0.016633   0.005674  -0.026495
     9  C    0.002165  -0.012630   0.000477  -0.000238   0.001561
    10  C   -0.000218   0.000217  -0.000011   0.000136  -0.000117
    11  H   -0.000001   0.000029  -0.000000   0.000005  -0.000001
    12  C    0.000236  -0.000382   0.000008  -0.000099   0.000162
    13  C   -0.000871   0.002282  -0.000059  -0.000030  -0.000545
    14  C    0.004503  -0.012777   0.000282  -0.001898   0.004174
    15  H   -0.000001   0.000029  -0.000001   0.000005  -0.000000
    16  H   -0.000003  -0.003472   0.002622   0.000202   0.000030
    17  H   -0.000001   0.000004  -0.000018   0.000004  -0.000001
    18  H    0.000000   0.000001   0.000000  -0.000001  -0.000000
    19  H   -0.000021   0.000004  -0.000001   0.000004  -0.000018
    20  N    0.000012   0.002849  -0.000073  -0.000173  -0.000072
    21  C    0.000013   0.000427  -0.000008   0.000048  -0.000008
    22  C   -0.000002  -0.000313   0.000005  -0.000031   0.000005
    23  C   -0.000001  -0.000015  -0.000000   0.000004  -0.000000
    24  C    0.000001   0.000007  -0.000003  -0.000008  -0.000003
    25  C    0.000000  -0.000004   0.000000   0.000001   0.000000
    26  C    0.000000  -0.000002   0.000000   0.000000   0.000000
    27  H   -0.000001   0.000002  -0.000000  -0.000000  -0.000000
    28  C    0.000000   0.000052  -0.000001  -0.000008  -0.000001
    29  H   -0.000000   0.000415  -0.000003   0.000675  -0.000003
    30  C    0.000000  -0.000000  -0.000000  -0.000000  -0.000000
    31  C   -0.000000   0.000000  -0.000000  -0.000000  -0.000000
    32  H    0.000000   0.000000  -0.000000  -0.000000  -0.000000
    33  C   -0.000000   0.000001   0.000000   0.000000   0.000000
    34  H   -0.000000  -0.000002   0.000000   0.000001   0.000000
    35  H    0.000000  -0.000000  -0.000000   0.000000  -0.000000
    36  H   -0.000000   0.000000  -0.000000   0.000000  -0.000000
    37  H   -0.000000   0.000000   0.000000  -0.000000   0.000000
    38  H    0.002576  -0.003474   0.000030   0.000202   0.002623
    39  H    0.000000   0.000001  -0.000000  -0.000001   0.000000
    40  C    0.415923  -0.064065  -0.005277   0.009689  -0.005277
    41  H   -0.019783   0.009810  -0.000070  -0.000287  -0.000070
    42  H   -0.021473  -0.005470   0.000266  -0.000069   0.000001
    43  H    0.520955  -0.005469   0.000001  -0.000069   0.000265
    44  C   -0.005469   5.083585   0.415502   0.413213   0.415503
    45  H    0.000001   0.415502   0.520279  -0.019765  -0.021373
    46  H   -0.000069   0.413213  -0.019765   0.519081  -0.019765
    47  H    0.000265   0.415503  -0.021373  -0.019765   0.520279
 Mulliken charges:
               1
     1  C   -0.157447
     2  C   -0.288819
     3  C    0.193945
     4  C   -0.156316
     5  C   -0.238065
     6  C   -0.223793
     7  C    0.247331
     8  C   -0.156293
     9  C    0.193933
    10  C   -0.288817
    11  H    0.170857
    12  C   -0.157446
    13  C   -0.223798
    14  C   -0.238068
    15  H    0.170859
    16  H    0.167821
    17  H    0.152562
    18  H    0.156140
    19  H    0.152562
    20  N    0.148597
    21  C    0.170166
    22  C   -0.046171
    23  C   -0.185463
    24  C   -0.311092
    25  C    0.103139
    26  C   -0.097781
    27  H    0.151962
    28  C   -0.116305
    29  H    0.183414
    30  C   -0.192077
    31  C   -0.244774
    32  H    0.159749
    33  C   -0.154876
    34  H    0.160721
    35  H    0.157654
    36  H    0.155291
    37  H    0.162402
    38  H    0.167821
    39  H    0.156140
    40  C   -0.429160
    41  H    0.142417
    42  H    0.142818
    43  H    0.142819
    44  C   -0.434195
    45  H    0.143343
    46  H    0.142950
    47  H    0.143343
 Sum of Mulliken charges =  -0.00000
 Mulliken charges with hydrogens summed into heavy atoms:
               1
     1  C   -0.001308
     2  C   -0.117960
     3  C    0.193945
     4  C   -0.156316
     5  C   -0.070243
     6  C   -0.071230
     7  C    0.247331
     8  C   -0.156293
     9  C    0.193933
    10  C   -0.117960
    12  C   -0.001306
    13  C   -0.071236
    14  C   -0.070247
    20  N    0.148597
    21  C    0.170166
    22  C   -0.046171
    23  C   -0.033501
    24  C   -0.127678
    25  C    0.103139
    26  C    0.061968
    28  C    0.044416
    30  C   -0.034423
    31  C   -0.089483
    33  C    0.007526
    40  C   -0.001105
    44  C   -0.004559
 Electronic spatial extent (au):  <R**2>=           7980.8938
 Charge=              0.0000 electrons
 Dipole moment (field-independent basis, Debye):
    X=             -1.1717    Y=             -0.0000    Z=             -0.1171  Tot=              1.1775
 Quadrupole moment (field-independent basis, Debye-Ang):
   XX=           -126.1802   YY=           -150.9813   ZZ=           -145.2541
   XY=             -0.0001   XZ=              5.2722   YZ=             -0.0004
 Traceless Quadrupole moment (field-independent basis, Debye-Ang):
   XX=             14.6250   YY=            -10.1761   ZZ=             -4.4489
   XY=             -0.0001   XZ=              5.2722   YZ=             -0.0004
 Octapole moment (field-independent basis, Debye-Ang**2):
  XXX=            -41.5716  YYY=              0.0001  ZZZ=              0.7130  XYY=             24.5612
  XXY=             -0.0005  XXZ=             12.5954  XZZ=            -41.3176  YZZ=             -0.0003
  YYZ=             -0.9431  XYZ=              0.0011
 Hexadecapole moment (field-independent basis, Debye-Ang**3):
 XXXX=          -5680.9748 YYYY=          -2941.0852 ZZZZ=          -1319.0609 XXXY=              0.0014
 XXXZ=             51.1677 YYYX=             -0.0044 YYYZ=              0.0067 ZZZX=            -16.2859
 ZZZY=             -0.0093 XXYY=          -1606.8219 XXZZ=          -1223.1769 YYZZ=           -883.8904
 XXYZ=             -0.0061 YYXZ=             47.7335 ZZXY=              0.0020
 N-N= 2.240031697979D+03 E-N=-6.847925181298D+03  KE= 1.015036024502D+03
 Leave Link  601 at Fri Apr  2 01:45:48 2021, MaxMem=  5242880000 cpu:         5.2
 (Enter /opt/nce/packages/global/g09/l9999.exe)
 1\1\GINC-CN058\SP\RwB97XD TD-FC\Gen\C25H21N1\PNG4RJV\02-Apr-2021\0\\#p
  wB97XD chkbasis geom=allcheck Guess=Read int=ultrafine scrf=(SMD,solv
 ent=n,n-DiMethylFormamide) td=(NStates=30)\\Title\\0,1\C,0,-0.67613067
 26,-3.6382270583,-0.306818259\C,0,-0.055034806,-2.4171250843,-0.482419
 0596\C,0,-0.7621982765,-1.2180770036,-0.3219483443\C,0,-2.1169350865,-
 1.2587468861,0.0273628091\C,0,-2.7142139458,-2.5059300993,0.192845172\
 C,0,-2.0192581914,-3.6917568563,0.0319184813\C,0,-2.9530942249,0.00021
 98485,0.228636061\C,0,-2.1167727211,1.2590373562,0.0271420087\C,0,-0.7
 62042216,1.2181354614,-0.3221676038\C,0,-0.0547353689,2.4170722836,-0.
 4828531376\H,0,0.9921432864,2.3922170846,-0.7498884094\C,0,-0.67568034
 27,3.638280591,-0.3074529189\C,0,-2.0187951864,3.6920338439,0.03129796
 98\C,0,-2.7138948472,2.5063197791,0.1924317235\H,0,0.9918508744,-2.392
 4380567,-0.7494459957\H,0,-3.7634061346,-2.5523687807,0.4575099787\H,0
 ,-2.5201619473,-4.6414958681,0.1701935462\H,0,-0.1029740076,4.54839990
 93,-0.4382691172\H,0,-2.5195792366,4.6418574656,0.1694251467\N,0,-0.10
 75455944,-0.0000311285,-0.508301194\C,0,1.2836722194,-0.0001604032,-0.
 8260292318\C,0,2.2386472011,-0.000125084,0.2266643416\C,0,1.6826012412
 ,-0.00032586,-2.1311724301\C,0,1.8638020906,0.0000381721,1.5914016628\
 C,0,3.6157175768,-0.0002553573,-0.1107857223\C,0,3.0525085509,-0.00045
 64305,-2.4606520024\H,0,0.9332626926,-0.0003533176,-2.913249892\C,0,2.
 8154426554,0.0000721703,2.5714041712\H,0,0.8127585049,0.0001377169,1.8
 51366788\C,0,4.5760497364,-0.0002168356,0.929991417\C,0,3.9961267038,-
 0.0004203359,-1.4745100773\H,0,3.3485118999,-0.0005850409,-3.502057912
 5\C,0,4.1865084617,-0.0000566413,2.238697755\H,0,2.5186347506,0.000198
 5277,3.6129711596\H,0,5.6275249696,-0.0003165221,0.6669429632\H,0,5.05
 15573992,-0.0005204921,-1.7208159603\H,0,4.9284029089,-0.0000275839,3.
 0277526849\H,0,-3.7630777072,2.5529295015,0.4571078177\H,0,-0.10353417
 3,-4.5484386599,-0.4374719816\C,0,-4.1144514185,0.0002190369,-0.782477
 2257\H,0,-3.7349585156,0.0000783901,-1.806437597\H,0,-4.7444756469,-0.
 8808306618,-0.6501328593\H,0,-4.7443153699,0.8814111268,-0.6503152323\
 C,0,-3.5240089494,0.0004007137,1.6591874195\H,0,-4.1452545398,-0.87987
 23004,1.8310297794\H,0,-2.717616484,0.0003661168,2.3956494814\H,0,-4.1
 45045113,0.8808512524,1.8308838261\\Version=ES64L-G09RevE.01\State=1-A
 \HF=-1020.1204809\RMSD=2.517e-09\PG=C01 [X(C25H21N1)]\\@


 Experience is what you get when you don't get what you want.
 -- Dan Stanford
 Job cpu time:       1 days 21 hours 36 minutes  0.2 seconds.
 File lengths (MBytes):  RWF=   4252 Int=      0 D2E=      0 Chk=    774 Scr=      1
 Normal termination of Gaussian 09 at Fri Apr  2 01:45:53 2021.
