 Entering Gaussian System, Link 0=g09
 Input=/home/png4rjv/fotokatalizis/benchmark/OPCs/Me2-Acr_1_M062X_def2TZVP.gjf
 Output=/home/png4rjv/fotokatalizis/benchmark/OPCs/Me2-Acr_1_M062X_def2TZVP.log
 Initial command:
 /opt/nce/packages/global/g09/l1.exe "/home/png4rjv/fotokatalizis/benchmark/OPCs/Me2-Acr_1_M062X_def2TZVP/Gau-62544.inp" -scrdir="/home/png4rjv/fotokatalizis/benchmark/OPCs/Me2-Acr_1_M062X_def2TZVP/"
 Default is to use a total of  12 processors:
                               12 via shared-memory
                                1 via Linda
 Entering Link 1 = /opt/nce/packages/global/g09/l1.exe PID=     62545.
  
 Copyright (c) 1988,1990,1992,1993,1995,1998,2003,2009,2015,
            Gaussian, Inc.  All Rights Reserved.
  
 This is part of the Gaussian(R) 09 program.  It is based on
 the Gaussian(R) 03 system (copyright 2003, Gaussian, Inc.),
 the Gaussian(R) 98 system (copyright 1998, Gaussian, Inc.),
 the Gaussian(R) 94 system (copyright 1995, Gaussian, Inc.),
 the Gaussian 92(TM) system (copyright 1992, Gaussian, Inc.),
 the Gaussian 90(TM) system (copyright 1990, Gaussian, Inc.),
 the Gaussian 88(TM) system (copyright 1988, Gaussian, Inc.),
 the Gaussian 86(TM) system (copyright 1986, Carnegie Mellon
 University), and the Gaussian 82(TM) system (copyright 1983,
 Carnegie Mellon University). Gaussian is a federally registered
 trademark of Gaussian, Inc.
  
 This software contains proprietary and confidential information,
 including trade secrets, belonging to Gaussian, Inc.
  
 This software is provided under written license and may be
 used, copied, transmitted, or stored only in accord with that
 written license.
  
 The following legend is applicable only to US Government
 contracts under FAR:
  
                    RESTRICTED RIGHTS LEGEND
  
 Use, reproduction and disclosure by the US Government is
 subject to restrictions as set forth in subparagraphs (a)
 and (c) of the Commercial Computer Software - Restricted
 Rights clause in FAR 52.227-19.
  
 Gaussian, Inc.
 340 Quinnipiac St., Bldg. 40, Wallingford CT 06492
  
  
 ---------------------------------------------------------------
 Warning -- This program may not be used in any manner that
 competes with the business of Gaussian, Inc. or will provide
 assistance to any competitor of Gaussian, Inc.  The licensee
 of this program is prohibited from giving any competitor of
 Gaussian, Inc. access to this program.  By using this program,
 the user acknowledges that Gaussian, Inc. is engaged in the
 business of creating and licensing software in the field of
 computational chemistry and represents and warrants to the
 licensee that it is not a competitor of Gaussian, Inc. and that
 it will not use this program in any manner prohibited above.
 ---------------------------------------------------------------
  

 Cite this work as:
 Gaussian 09, Revision E.01,
 M. J. Frisch, G. W. Trucks, H. B. Schlegel, G. E. Scuseria, 
 M. A. Robb, J. R. Cheeseman, G. Scalmani, V. Barone, B. Mennucci, 
 G. A. Petersson, H. Nakatsuji, M. Caricato, X. Li, H. P. Hratchian, 
 A. F. Izmaylov, J. Bloino, G. Zheng, J. L. Sonnenberg, M. Hada, 
 M. Ehara, K. Toyota, R. Fukuda, J. Hasegawa, M. Ishida, T. Nakajima, 
 Y. Honda, O. Kitao, H. Nakai, T. Vreven, J. A. Montgomery, Jr., 
 J. E. Peralta, F. Ogliaro, M. Bearpark, J. J. Heyd, E. Brothers, 
 K. N. Kudin, V. N. Staroverov, T. Keith, R. Kobayashi, J. Normand, 
 K. Raghavachari, A. Rendell, J. C. Burant, S. S. Iyengar, J. Tomasi, 
 M. Cossi, N. Rega, J. M. Millam, M. Klene, J. E. Knox, J. B. Cross, 
 V. Bakken, C. Adamo, J. Jaramillo, R. Gomperts, R. E. Stratmann, 
 O. Yazyev, A. J. Austin, R. Cammi, C. Pomelli, J. W. Ochterski, 
 R. L. Martin, K. Morokuma, V. G. Zakrzewski, G. A. Voth, 
 P. Salvador, J. J. Dannenberg, S. Dapprich, A. D. Daniels, 
 O. Farkas, J. B. Foresman, J. V. Ortiz, J. Cioslowski, 
 and D. J. Fox, Gaussian, Inc., Wallingford CT, 2013.
 
 ******************************************
 Gaussian 09:  ES64L-G09RevE.01 30-Nov-2015
                22-Feb-2021 
 ******************************************
 %chk=cp.chk
 Default route:  MaxDisk=500GB
 ----------------------------------------------------------------------
 #p m062x/def2TZVP opt freq=noraman nosymm int=ultrafine scrf=(SMD,solv
 ent=n,n-DiMethylFormamide)
 ----------------------------------------------------------------------
 1/14=-1,18=20,19=15,26=4,38=1/1,3;
 2/9=110,12=2,15=1,17=6,18=5,40=1/2;
 3/5=44,7=101,11=2,16=1,25=1,30=1,70=32201,71=1,72=148,74=-55,75=-5/1,2,3;
 4//1;
 5/5=2,38=5,53=148/2;
 6/7=2,8=2,9=2,10=2,28=1/1;
 7/30=1/1,2,3,16;
 1/14=-1,18=20,19=15,26=4/3(2);
 2/9=110,15=1/2;
 99//99;
 2/9=110,15=1/2;
 3/5=44,7=101,11=2,16=1,25=1,30=1,70=32205,71=1,72=148,74=-55,75=-5/1,2,3;
 4/5=5,16=3,69=1/1;
 5/5=2,38=5,53=148/2;
 7/30=1/1,2,3,16;
 1/14=-1,18=20,19=15,26=4/3(-5);
 2/9=110,15=1/2;
 6/7=2,8=2,9=2,10=2,19=2,28=1/1;
 99/9=1/99;
 Leave Link    1 at Mon Feb 22 11:39:08 2021, MaxMem=           0 cpu:         3.6
 (Enter /opt/nce/packages/global/g09/l101.exe)
 -----
 Title
 -----
 Symbolic Z-matrix:
 Charge =  0 Multiplicity = 1
 C                    -0.66421  -3.6601   -0.23066 
 C                    -0.04305  -2.43104  -0.42502 
 C                    -0.76236  -1.22513  -0.28797 
 C                    -2.12966  -1.26544   0.0589 
 C                    -2.72507  -2.52137   0.24291 
 C                    -2.01834  -3.71485   0.10451 
 C                    -2.97856   0.0002    0.21033 
 C                    -2.12942   1.26566   0.05873 
 C                    -0.76214   1.22505  -0.28815 
 C                    -0.04258   2.43078  -0.42534 
 H                     1.01365   2.3974   -0.68692 
 C                    -0.66349   3.65999  -0.23112 
 C                    -2.01762   3.71505   0.10403 
 C                    -2.72459   2.52173   0.24258 
 H                     1.01318  -2.39792  -0.68662 
 H                    -3.78465  -2.56717   0.50164 
 H                    -2.51966  -4.67286   0.25645 
 H                    -0.08132   4.57775  -0.34359 
 H                    -2.51874   4.67318   0.25585 
 N                    -0.11102  -0.00011  -0.49314 
 C                     1.27776  -0.00023  -0.83326 
 C                     2.25341  -0.00007   0.20985 
 C                     1.66295  -0.00041  -2.15758 
 C                     1.89372   0.00015   1.58449 
 C                     3.64185  -0.00017  -0.14953 
 C                     3.03453  -0.0005   -2.50791 
 H                     0.89169  -0.0005   -2.92984 
 C                     2.86539   0.00028   2.56221 
 H                     0.8364    0.00022   1.8515 
 C                     4.61691  -0.00003   0.88615 
 C                     4.00119  -0.00039  -1.5255 
 H                     3.32029  -0.00066  -3.56207 
 C                     4.23897   0.00018   2.21145 
 H                     2.57734   0.00045   3.61598 
 H                     5.6746   -0.00011   0.61056 
 H                     5.06127  -0.00046  -1.79132 
 H                     4.9977    0.00028   2.99752 
 H                    -3.78416   2.56776   0.50131 
 H                    -0.08223  -4.578    -0.34303 
 C                    -4.07238   0.00024  -0.88618 
 H                    -3.61419   0.0001   -1.88636 
 H                    -4.71387  -0.89024  -0.80368 
 H                    -4.71366   0.89088  -0.80384 
 C                    -3.6453    0.00036   1.60703 
 H                    -4.28137  -0.88593   1.745 
 H                    -2.88149   0.00031   2.39887 
 H                    -4.28114   0.88683   1.74491 
 
 NAtoms=     47 NQM=       47 NQMF=       0 NMMI=      0 NMMIF=      0
                NMic=       0 NMicF=      0.
                    Isotopes and Nuclear Properties:
 (Nuclear quadrupole moments (NQMom) in fm**2, nuclear magnetic moments (NMagM)
  in nuclear magnetons)

  Atom         1           2           3           4           5           6           7           8           9          10
 IAtWgt=          12          12          12          12          12          12          12          12          12          12
 AtmWgt=  12.0000000  12.0000000  12.0000000  12.0000000  12.0000000  12.0000000  12.0000000  12.0000000  12.0000000  12.0000000
 NucSpn=           0           0           0           0           0           0           0           0           0           0
 AtZEff=   0.0000000   0.0000000   0.0000000   0.0000000   0.0000000   0.0000000   0.0000000   0.0000000   0.0000000   0.0000000
 NQMom=    0.0000000   0.0000000   0.0000000   0.0000000   0.0000000   0.0000000   0.0000000   0.0000000   0.0000000   0.0000000
 NMagM=    0.0000000   0.0000000   0.0000000   0.0000000   0.0000000   0.0000000   0.0000000   0.0000000   0.0000000   0.0000000
 AtZNuc=   6.0000000   6.0000000   6.0000000   6.0000000   6.0000000   6.0000000   6.0000000   6.0000000   6.0000000   6.0000000

  Atom        11          12          13          14          15          16          17          18          19          20
 IAtWgt=           1          12          12          12           1           1           1           1           1          14
 AtmWgt=   1.0078250  12.0000000  12.0000000  12.0000000   1.0078250   1.0078250   1.0078250   1.0078250   1.0078250  14.0030740
 NucSpn=           1           0           0           0           1           1           1           1           1           2
 AtZEff=   0.0000000   0.0000000   0.0000000   0.0000000   0.0000000   0.0000000   0.0000000   0.0000000   0.0000000   0.0000000
 NQMom=    0.0000000   0.0000000   0.0000000   0.0000000   0.0000000   0.0000000   0.0000000   0.0000000   0.0000000   2.0440000
 NMagM=    2.7928460   0.0000000   0.0000000   0.0000000   2.7928460   2.7928460   2.7928460   2.7928460   2.7928460   0.4037610
 AtZNuc=   1.0000000   6.0000000   6.0000000   6.0000000   1.0000000   1.0000000   1.0000000   1.0000000   1.0000000   7.0000000

  Atom        21          22          23          24          25          26          27          28          29          30
 IAtWgt=          12          12          12          12          12          12           1          12           1          12
 AtmWgt=  12.0000000  12.0000000  12.0000000  12.0000000  12.0000000  12.0000000   1.0078250  12.0000000   1.0078250  12.0000000
 NucSpn=           0           0           0           0           0           0           1           0           1           0
 AtZEff=   0.0000000   0.0000000   0.0000000   0.0000000   0.0000000   0.0000000   0.0000000   0.0000000   0.0000000   0.0000000
 NQMom=    0.0000000   0.0000000   0.0000000   0.0000000   0.0000000   0.0000000   0.0000000   0.0000000   0.0000000   0.0000000
 NMagM=    0.0000000   0.0000000   0.0000000   0.0000000   0.0000000   0.0000000   2.7928460   0.0000000   2.7928460   0.0000000
 AtZNuc=   6.0000000   6.0000000   6.0000000   6.0000000   6.0000000   6.0000000   1.0000000   6.0000000   1.0000000   6.0000000

  Atom        31          32          33          34          35          36          37          38          39          40
 IAtWgt=          12           1          12           1           1           1           1           1           1          12
 AtmWgt=  12.0000000   1.0078250  12.0000000   1.0078250   1.0078250   1.0078250   1.0078250   1.0078250   1.0078250  12.0000000
 NucSpn=           0           1           0           1           1           1           1           1           1           0
 AtZEff=   0.0000000   0.0000000   0.0000000   0.0000000   0.0000000   0.0000000   0.0000000   0.0000000   0.0000000   0.0000000
 NQMom=    0.0000000   0.0000000   0.0000000   0.0000000   0.0000000   0.0000000   0.0000000   0.0000000   0.0000000   0.0000000
 NMagM=    0.0000000   2.7928460   0.0000000   2.7928460   2.7928460   2.7928460   2.7928460   2.7928460   2.7928460   0.0000000
 AtZNuc=   6.0000000   1.0000000   6.0000000   1.0000000   1.0000000   1.0000000   1.0000000   1.0000000   1.0000000   6.0000000

  Atom        41          42          43          44          45          46          47
 IAtWgt=           1           1           1          12           1           1           1
 AtmWgt=   1.0078250   1.0078250   1.0078250  12.0000000   1.0078250   1.0078250   1.0078250
 NucSpn=           1           1           1           0           1           1           1
 AtZEff=   0.0000000   0.0000000   0.0000000   0.0000000   0.0000000   0.0000000   0.0000000
 NQMom=    0.0000000   0.0000000   0.0000000   0.0000000   0.0000000   0.0000000   0.0000000
 NMagM=    2.7928460   2.7928460   2.7928460   0.0000000   2.7928460   2.7928460   2.7928460
 AtZNuc=   1.0000000   1.0000000   1.0000000   6.0000000   1.0000000   1.0000000   1.0000000
 Leave Link  101 at Mon Feb 22 11:39:12 2021, MaxMem=  5242880000 cpu:         8.4
 (Enter /opt/nce/packages/global/g09/l103.exe)

 GradGradGradGradGradGradGradGradGradGradGradGradGradGradGradGradGradGrad
 Berny optimization.
 Initialization pass.
                           ----------------------------
                           !    Initial Parameters    !
                           ! (Angstroms and Degrees)  !
 --------------------------                            --------------------------
 ! Name  Definition              Value          Derivative Info.                !
 --------------------------------------------------------------------------------
 ! R1    R(1,2)                  1.3908         estimate D2E/DX2                !
 ! R2    R(1,6)                  1.3961         estimate D2E/DX2                !
 ! R3    R(1,39)                 1.0926         estimate D2E/DX2                !
 ! R4    R(2,3)                  1.4108         estimate D2E/DX2                !
 ! R5    R(2,15)                 1.0886         estimate D2E/DX2                !
 ! R6    R(3,4)                  1.4112         estimate D2E/DX2                !
 ! R7    R(3,20)                 1.4025         estimate D2E/DX2                !
 ! R8    R(4,5)                  1.402          estimate D2E/DX2                !
 ! R9    R(4,7)                  1.5315         estimate D2E/DX2                !
 ! R10   R(5,6)                  1.3939         estimate D2E/DX2                !
 ! R11   R(5,16)                 1.0917         estimate D2E/DX2                !
 ! R12   R(6,17)                 1.0919         estimate D2E/DX2                !
 ! R13   R(7,8)                  1.5315         estimate D2E/DX2                !
 ! R14   R(7,40)                 1.5488         estimate D2E/DX2                !
 ! R15   R(7,44)                 1.5477         estimate D2E/DX2                !
 ! R16   R(8,9)                  1.4112         estimate D2E/DX2                !
 ! R17   R(8,14)                 1.402          estimate D2E/DX2                !
 ! R18   R(9,10)                 1.4108         estimate D2E/DX2                !
 ! R19   R(9,20)                 1.4025         estimate D2E/DX2                !
 ! R20   R(10,11)                1.0887         estimate D2E/DX2                !
 ! R21   R(10,12)                1.3908         estimate D2E/DX2                !
 ! R22   R(12,13)                1.3961         estimate D2E/DX2                !
 ! R23   R(12,18)                1.0926         estimate D2E/DX2                !
 ! R24   R(13,14)                1.3939         estimate D2E/DX2                !
 ! R25   R(13,19)                1.0919         estimate D2E/DX2                !
 ! R26   R(14,38)                1.0917         estimate D2E/DX2                !
 ! R27   R(20,21)                1.4298         estimate D2E/DX2                !
 ! R28   R(21,22)                1.4283         estimate D2E/DX2                !
 ! R29   R(21,23)                1.3792         estimate D2E/DX2                !
 ! R30   R(22,24)                1.4209         estimate D2E/DX2                !
 ! R31   R(22,25)                1.4342         estimate D2E/DX2                !
 ! R32   R(23,26)                1.4156         estimate D2E/DX2                !
 ! R33   R(23,27)                1.0914         estimate D2E/DX2                !
 ! R34   R(24,28)                1.3784         estimate D2E/DX2                !
 ! R35   R(24,29)                1.0905         estimate D2E/DX2                !
 ! R36   R(25,30)                1.4224         estimate D2E/DX2                !
 ! R37   R(25,31)                1.4221         estimate D2E/DX2                !
 ! R38   R(26,31)                1.3782         estimate D2E/DX2                !
 ! R39   R(26,32)                1.0922         estimate D2E/DX2                !
 ! R40   R(28,33)                1.4177         estimate D2E/DX2                !
 ! R41   R(28,34)                1.0924         estimate D2E/DX2                !
 ! R42   R(30,33)                1.3781         estimate D2E/DX2                !
 ! R43   R(30,35)                1.093          estimate D2E/DX2                !
 ! R44   R(31,36)                1.0929         estimate D2E/DX2                !
 ! R45   R(33,37)                1.0925         estimate D2E/DX2                !
 ! R46   R(40,41)                1.1001         estimate D2E/DX2                !
 ! R47   R(40,42)                1.1006         estimate D2E/DX2                !
 ! R48   R(40,43)                1.1006         estimate D2E/DX2                !
 ! R49   R(44,45)                1.0996         estimate D2E/DX2                !
 ! R50   R(44,46)                1.1002         estimate D2E/DX2                !
 ! R51   R(44,47)                1.0996         estimate D2E/DX2                !
 ! A1    A(2,1,6)              120.0942         estimate D2E/DX2                !
 ! A2    A(2,1,39)             119.3498         estimate D2E/DX2                !
 ! A3    A(6,1,39)             120.5561         estimate D2E/DX2                !
 ! A4    A(1,2,3)              120.9367         estimate D2E/DX2                !
 ! A5    A(1,2,15)             119.5908         estimate D2E/DX2                !
 ! A6    A(3,2,15)             119.4725         estimate D2E/DX2                !
 ! A7    A(2,3,4)              119.5684         estimate D2E/DX2                !
 ! A8    A(2,3,20)             119.7093         estimate D2E/DX2                !
 ! A9    A(4,3,20)             120.722          estimate D2E/DX2                !
 ! A10   A(3,4,5)              117.9893         estimate D2E/DX2                !
 ! A11   A(3,4,7)              122.5319         estimate D2E/DX2                !
 ! A12   A(5,4,7)              119.4667         estimate D2E/DX2                !
 ! A13   A(4,5,6)              122.5903         estimate D2E/DX2                !
 ! A14   A(4,5,16)             118.7426         estimate D2E/DX2                !
 ! A15   A(6,5,16)             118.6668         estimate D2E/DX2                !
 ! A16   A(1,6,5)              118.8187         estimate D2E/DX2                !
 ! A17   A(1,6,17)             120.8748         estimate D2E/DX2                !
 ! A18   A(5,6,17)             120.3065         estimate D2E/DX2                !
 ! A19   A(4,7,8)              111.4531         estimate D2E/DX2                !
 ! A20   A(4,7,40)             108.753          estimate D2E/DX2                !
 ! A21   A(4,7,44)             109.1541         estimate D2E/DX2                !
 ! A22   A(8,7,40)             108.7526         estimate D2E/DX2                !
 ! A23   A(8,7,44)             109.1539         estimate D2E/DX2                !
 ! A24   A(40,7,44)            109.5522         estimate D2E/DX2                !
 ! A25   A(7,8,9)              122.5318         estimate D2E/DX2                !
 ! A26   A(7,8,14)             119.4667         estimate D2E/DX2                !
 ! A27   A(9,8,14)             117.9894         estimate D2E/DX2                !
 ! A28   A(8,9,10)             119.5691         estimate D2E/DX2                !
 ! A29   A(8,9,20)             120.7226         estimate D2E/DX2                !
 ! A30   A(10,9,20)            119.708          estimate D2E/DX2                !
 ! A31   A(9,10,11)            119.4725         estimate D2E/DX2                !
 ! A32   A(9,10,12)            120.9362         estimate D2E/DX2                !
 ! A33   A(11,10,12)           119.5913         estimate D2E/DX2                !
 ! A34   A(10,12,13)           120.0943         estimate D2E/DX2                !
 ! A35   A(10,12,18)           119.3495         estimate D2E/DX2                !
 ! A36   A(13,12,18)           120.5562         estimate D2E/DX2                !
 ! A37   A(12,13,14)           118.8187         estimate D2E/DX2                !
 ! A38   A(12,13,19)           120.8747         estimate D2E/DX2                !
 ! A39   A(14,13,19)           120.3066         estimate D2E/DX2                !
 ! A40   A(8,14,13)            122.5899         estimate D2E/DX2                !
 ! A41   A(8,14,38)            118.7426         estimate D2E/DX2                !
 ! A42   A(13,14,38)           118.6672         estimate D2E/DX2                !
 ! A43   A(3,20,9)             121.737          estimate D2E/DX2                !
 ! A44   A(3,20,21)            119.0658         estimate D2E/DX2                !
 ! A45   A(9,20,21)            119.0627         estimate D2E/DX2                !
 ! A46   A(20,21,22)           119.3252         estimate D2E/DX2                !
 ! A47   A(20,21,23)           119.9785         estimate D2E/DX2                !
 ! A48   A(22,21,23)           120.6963         estimate D2E/DX2                !
 ! A49   A(21,22,24)           122.2505         estimate D2E/DX2                !
 ! A50   A(21,22,25)           118.5746         estimate D2E/DX2                !
 ! A51   A(24,22,25)           119.1749         estimate D2E/DX2                !
 ! A52   A(21,23,26)           120.5457         estimate D2E/DX2                !
 ! A53   A(21,23,27)           118.8199         estimate D2E/DX2                !
 ! A54   A(26,23,27)           120.6343         estimate D2E/DX2                !
 ! A55   A(22,24,28)           120.5147         estimate D2E/DX2                !
 ! A56   A(22,24,29)           118.8361         estimate D2E/DX2                !
 ! A57   A(28,24,29)           120.6492         estimate D2E/DX2                !
 ! A58   A(22,25,30)           118.7615         estimate D2E/DX2                !
 ! A59   A(22,25,31)           119.1478         estimate D2E/DX2                !
 ! A60   A(30,25,31)           122.0907         estimate D2E/DX2                !
 ! A61   A(23,26,31)           120.2086         estimate D2E/DX2                !
 ! A62   A(23,26,32)           119.4952         estimate D2E/DX2                !
 ! A63   A(31,26,32)           120.2962         estimate D2E/DX2                !
 ! A64   A(24,28,33)           120.4971         estimate D2E/DX2                !
 ! A65   A(24,28,34)           119.8894         estimate D2E/DX2                !
 ! A66   A(33,28,34)           119.6135         estimate D2E/DX2                !
 ! A67   A(25,30,33)           120.8103         estimate D2E/DX2                !
 ! A68   A(25,30,35)           118.6693         estimate D2E/DX2                !
 ! A69   A(33,30,35)           120.5204         estimate D2E/DX2                !
 ! A70   A(25,31,26)           120.827          estimate D2E/DX2                !
 ! A71   A(25,31,36)           118.7132         estimate D2E/DX2                !
 ! A72   A(26,31,36)           120.4599         estimate D2E/DX2                !
 ! A73   A(28,33,30)           120.2415         estimate D2E/DX2                !
 ! A74   A(28,33,37)           119.6611         estimate D2E/DX2                !
 ! A75   A(30,33,37)           120.0974         estimate D2E/DX2                !
 ! A76   A(7,40,41)            110.4569         estimate D2E/DX2                !
 ! A77   A(7,40,42)            111.0112         estimate D2E/DX2                !
 ! A78   A(7,40,43)            111.0115         estimate D2E/DX2                !
 ! A79   A(41,40,42)           108.1078         estimate D2E/DX2                !
 ! A80   A(41,40,43)           108.1078         estimate D2E/DX2                !
 ! A81   A(42,40,43)           108.0316         estimate D2E/DX2                !
 ! A82   A(7,44,45)            111.2443         estimate D2E/DX2                !
 ! A83   A(7,44,46)            110.514          estimate D2E/DX2                !
 ! A84   A(7,44,47)            111.2444         estimate D2E/DX2                !
 ! A85   A(45,44,46)           108.1342         estimate D2E/DX2                !
 ! A86   A(45,44,47)           107.4311         estimate D2E/DX2                !
 ! A87   A(46,44,47)           108.1342         estimate D2E/DX2                !
 ! D1    D(6,1,2,3)              0.0312         estimate D2E/DX2                !
 ! D2    D(6,1,2,15)          -179.9715         estimate D2E/DX2                !
 ! D3    D(39,1,2,3)          -179.9734         estimate D2E/DX2                !
 ! D4    D(39,1,2,15)            0.024          estimate D2E/DX2                !
 ! D5    D(2,1,6,5)             -0.2143         estimate D2E/DX2                !
 ! D6    D(2,1,6,17)           179.7758         estimate D2E/DX2                !
 ! D7    D(39,1,6,5)           179.7904         estimate D2E/DX2                !
 ! D8    D(39,1,6,17)           -0.2196         estimate D2E/DX2                !
 ! D9    D(1,2,3,4)              0.3742         estimate D2E/DX2                !
 ! D10   D(1,2,3,20)          -179.8404         estimate D2E/DX2                !
 ! D11   D(15,2,3,4)          -179.6232         estimate D2E/DX2                !
 ! D12   D(15,2,3,20)            0.1623         estimate D2E/DX2                !
 ! D13   D(2,3,4,5)             -0.5777         estimate D2E/DX2                !
 ! D14   D(2,3,4,7)           -179.3057         estimate D2E/DX2                !
 ! D15   D(20,3,4,5)           179.6391         estimate D2E/DX2                !
 ! D16   D(20,3,4,7)             0.9111         estimate D2E/DX2                !
 ! D17   D(2,3,20,9)          -176.0088         estimate D2E/DX2                !
 ! D18   D(2,3,20,21)           -0.2647         estimate D2E/DX2                !
 ! D19   D(4,3,20,9)             3.7741         estimate D2E/DX2                !
 ! D20   D(4,3,20,21)          179.5182         estimate D2E/DX2                !
 ! D21   D(3,4,5,6)              0.405          estimate D2E/DX2                !
 ! D22   D(3,4,5,16)          -179.3933         estimate D2E/DX2                !
 ! D23   D(7,4,5,6)            179.1732         estimate D2E/DX2                !
 ! D24   D(7,4,5,16)            -0.6251         estimate D2E/DX2                !
 ! D25   D(3,4,7,8)             -4.8825         estimate D2E/DX2                !
 ! D26   D(3,4,7,40)           114.9981         estimate D2E/DX2                !
 ! D27   D(3,4,7,44)          -125.5254         estimate D2E/DX2                !
 ! D28   D(5,4,7,8)            176.4076         estimate D2E/DX2                !
 ! D29   D(5,4,7,40)           -63.7117         estimate D2E/DX2                !
 ! D30   D(5,4,7,44)            55.7648         estimate D2E/DX2                !
 ! D31   D(4,5,6,1)             -0.0083         estimate D2E/DX2                !
 ! D32   D(4,5,6,17)          -179.9984         estimate D2E/DX2                !
 ! D33   D(16,5,6,1)           179.7901         estimate D2E/DX2                !
 ! D34   D(16,5,6,17)           -0.2            estimate D2E/DX2                !
 ! D35   D(4,7,8,9)              4.8832         estimate D2E/DX2                !
 ! D36   D(4,7,8,14)          -176.4073         estimate D2E/DX2                !
 ! D37   D(40,7,8,9)          -114.9977         estimate D2E/DX2                !
 ! D38   D(40,7,8,14)           63.7118         estimate D2E/DX2                !
 ! D39   D(44,7,8,9)           125.5261         estimate D2E/DX2                !
 ! D40   D(44,7,8,14)          -55.7643         estimate D2E/DX2                !
 ! D41   D(4,7,40,41)          -60.7705         estimate D2E/DX2                !
 ! D42   D(4,7,40,42)           59.1389         estimate D2E/DX2                !
 ! D43   D(4,7,40,43)          179.3199         estimate D2E/DX2                !
 ! D44   D(8,7,40,41)           60.7742         estimate D2E/DX2                !
 ! D45   D(8,7,40,42)         -179.3164         estimate D2E/DX2                !
 ! D46   D(8,7,40,43)          -59.1354         estimate D2E/DX2                !
 ! D47   D(44,7,40,41)        -179.9984         estimate D2E/DX2                !
 ! D48   D(44,7,40,42)         -60.089          estimate D2E/DX2                !
 ! D49   D(44,7,40,43)          60.092          estimate D2E/DX2                !
 ! D50   D(4,7,44,45)          -59.1152         estimate D2E/DX2                !
 ! D51   D(4,7,44,46)           61.0178         estimate D2E/DX2                !
 ! D52   D(4,7,44,47)         -178.8492         estimate D2E/DX2                !
 ! D53   D(8,7,44,45)          178.845          estimate D2E/DX2                !
 ! D54   D(8,7,44,46)          -61.022          estimate D2E/DX2                !
 ! D55   D(8,7,44,47)           59.111          estimate D2E/DX2                !
 ! D56   D(40,7,44,45)          59.8652         estimate D2E/DX2                !
 ! D57   D(40,7,44,46)         179.9982         estimate D2E/DX2                !
 ! D58   D(40,7,44,47)         -59.8687         estimate D2E/DX2                !
 ! D59   D(7,8,9,10)           179.307          estimate D2E/DX2                !
 ! D60   D(7,8,9,20)            -0.9124         estimate D2E/DX2                !
 ! D61   D(14,8,9,10)            0.5793         estimate D2E/DX2                !
 ! D62   D(14,8,9,20)         -179.6401         estimate D2E/DX2                !
 ! D63   D(7,8,14,13)         -179.1739         estimate D2E/DX2                !
 ! D64   D(7,8,14,38)            0.6249         estimate D2E/DX2                !
 ! D65   D(9,8,14,13)           -0.4059         estimate D2E/DX2                !
 ! D66   D(9,8,14,38)          179.3928         estimate D2E/DX2                !
 ! D67   D(8,9,10,11)          179.6217         estimate D2E/DX2                !
 ! D68   D(8,9,10,12)           -0.3752         estimate D2E/DX2                !
 ! D69   D(20,9,10,11)          -0.1612         estimate D2E/DX2                !
 ! D70   D(20,9,10,12)         179.8419         estimate D2E/DX2                !
 ! D71   D(8,9,20,3)            -3.7734         estimate D2E/DX2                !
 ! D72   D(8,9,20,21)         -179.5177         estimate D2E/DX2                !
 ! D73   D(10,9,20,3)          176.0069         estimate D2E/DX2                !
 ! D74   D(10,9,20,21)           0.2626         estimate D2E/DX2                !
 ! D75   D(9,10,12,13)          -0.0314         estimate D2E/DX2                !
 ! D76   D(9,10,12,18)         179.9735         estimate D2E/DX2                !
 ! D77   D(11,10,12,13)        179.9717         estimate D2E/DX2                !
 ! D78   D(11,10,12,18)         -0.0235         estimate D2E/DX2                !
 ! D79   D(10,12,13,14)          0.2151         estimate D2E/DX2                !
 ! D80   D(10,12,13,19)       -179.7756         estimate D2E/DX2                !
 ! D81   D(18,12,13,14)       -179.7898         estimate D2E/DX2                !
 ! D82   D(18,12,13,19)          0.2194         estimate D2E/DX2                !
 ! D83   D(12,13,14,8)           0.0081         estimate D2E/DX2                !
 ! D84   D(12,13,14,38)       -179.7908         estimate D2E/DX2                !
 ! D85   D(19,13,14,8)         179.9989         estimate D2E/DX2                !
 ! D86   D(19,13,14,38)          0.2            estimate D2E/DX2                !
 ! D87   D(3,20,21,22)         -87.9364         estimate D2E/DX2                !
 ! D88   D(3,20,21,23)          92.0667         estimate D2E/DX2                !
 ! D89   D(9,20,21,22)          87.923          estimate D2E/DX2                !
 ! D90   D(9,20,21,23)         -92.074          estimate D2E/DX2                !
 ! D91   D(20,21,22,24)          0.0016         estimate D2E/DX2                !
 ! D92   D(20,21,22,25)       -179.9991         estimate D2E/DX2                !
 ! D93   D(23,21,22,24)        179.9985         estimate D2E/DX2                !
 ! D94   D(23,21,22,25)         -0.0022         estimate D2E/DX2                !
 ! D95   D(20,21,23,26)        179.999          estimate D2E/DX2                !
 ! D96   D(20,21,23,27)         -0.0018         estimate D2E/DX2                !
 ! D97   D(22,21,23,26)          0.0021         estimate D2E/DX2                !
 ! D98   D(22,21,23,27)       -179.9987         estimate D2E/DX2                !
 ! D99   D(21,22,24,28)        179.9992         estimate D2E/DX2                !
 ! D100  D(21,22,24,29)         -0.0004         estimate D2E/DX2                !
 ! D101  D(25,22,24,28)         -0.0002         estimate D2E/DX2                !
 ! D102  D(25,22,24,29)       -179.9997         estimate D2E/DX2                !
 ! D103  D(21,22,25,30)       -179.9993         estimate D2E/DX2                !
 ! D104  D(21,22,25,31)          0.0008         estimate D2E/DX2                !
 ! D105  D(24,22,25,30)          0.0            estimate D2E/DX2                !
 ! D106  D(24,22,25,31)       -179.9999         estimate D2E/DX2                !
 ! D107  D(21,23,26,31)         -0.0006         estimate D2E/DX2                !
 ! D108  D(21,23,26,32)        179.9993         estimate D2E/DX2                !
 ! D109  D(27,23,26,31)       -179.9998         estimate D2E/DX2                !
 ! D110  D(27,23,26,32)          0.0001         estimate D2E/DX2                !
 ! D111  D(22,24,28,33)          0.0002         estimate D2E/DX2                !
 ! D112  D(22,24,28,34)       -179.9998         estimate D2E/DX2                !
 ! D113  D(29,24,28,33)        179.9997         estimate D2E/DX2                !
 ! D114  D(29,24,28,34)         -0.0002         estimate D2E/DX2                !
 ! D115  D(22,25,30,33)          0.0001         estimate D2E/DX2                !
 ! D116  D(22,25,30,35)       -179.9999         estimate D2E/DX2                !
 ! D117  D(31,25,30,33)        180.0            estimate D2E/DX2                !
 ! D118  D(31,25,30,35)          0.0            estimate D2E/DX2                !
 ! D119  D(22,25,31,26)          0.0007         estimate D2E/DX2                !
 ! D120  D(22,25,31,36)        179.9996         estimate D2E/DX2                !
 ! D121  D(30,25,31,26)       -179.9992         estimate D2E/DX2                !
 ! D122  D(30,25,31,36)         -0.0003         estimate D2E/DX2                !
 ! D123  D(23,26,31,25)         -0.0008         estimate D2E/DX2                !
 ! D124  D(23,26,31,36)       -179.9997         estimate D2E/DX2                !
 ! D125  D(32,26,31,25)        179.9993         estimate D2E/DX2                !
 ! D126  D(32,26,31,36)          0.0004         estimate D2E/DX2                !
 ! D127  D(24,28,33,30)         -0.0001         estimate D2E/DX2                !
 ! D128  D(24,28,33,37)        179.9999         estimate D2E/DX2                !
 ! D129  D(34,28,33,30)        179.9999         estimate D2E/DX2                !
 ! D130  D(34,28,33,37)         -0.0001         estimate D2E/DX2                !
 ! D131  D(25,30,33,28)         -0.0001         estimate D2E/DX2                !
 ! D132  D(25,30,33,37)        179.9999         estimate D2E/DX2                !
 ! D133  D(35,30,33,28)        179.9999         estimate D2E/DX2                !
 ! D134  D(35,30,33,37)         -0.0001         estimate D2E/DX2                !
 --------------------------------------------------------------------------------
 Trust Radius=3.00D-01 FncErr=1.00D-07 GrdErr=1.00D-06
 Number of steps in this run=    282 maximum allowed number of steps=    282.
 GradGradGradGradGradGradGradGradGradGradGradGradGradGradGradGradGradGrad

 Leave Link  103 at Mon Feb 22 11:39:13 2021, MaxMem=  5242880000 cpu:         2.4
 (Enter /opt/nce/packages/global/g09/l202.exe)
                          Input orientation:                          
 ---------------------------------------------------------------------
 Center     Atomic      Atomic             Coordinates (Angstroms)
 Number     Number       Type             X           Y           Z
 ---------------------------------------------------------------------
      1          6           0       -0.664207   -3.660103   -0.230662
      2          6           0       -0.043052   -2.431042   -0.425024
      3          6           0       -0.762359   -1.225133   -0.287972
      4          6           0       -2.129661   -1.265435    0.058898
      5          6           0       -2.725072   -2.521368    0.242909
      6          6           0       -2.018340   -3.714850    0.104505
      7          6           0       -2.978564    0.000202    0.210327
      8          6           0       -2.129420    1.265656    0.058729
      9          6           0       -0.762135    1.225045   -0.288147
     10          6           0       -0.042580    2.430778   -0.425336
     11          1           0        1.013653    2.397401   -0.686915
     12          6           0       -0.663487    3.659986   -0.231121
     13          6           0       -2.017615    3.715049    0.104027
     14          6           0       -2.724588    2.521726    0.242579
     15          1           0        1.013180   -2.397918   -0.686619
     16          1           0       -3.784654   -2.567169    0.501644
     17          1           0       -2.519662   -4.672857    0.256447
     18          1           0       -0.081318    4.577752   -0.343592
     19          1           0       -2.518741    4.673176    0.255851
     20          7           0       -0.111018   -0.000114   -0.493142
     21          6           0        1.277763   -0.000225   -0.833257
     22          6           0        2.253412   -0.000074    0.209847
     23          6           0        1.662951   -0.000412   -2.157576
     24          6           0        1.893723    0.000152    1.584492
     25          6           0        3.641850   -0.000169   -0.149528
     26          6           0        3.034533   -0.000503   -2.507909
     27          1           0        0.891691   -0.000502   -2.929843
     28          6           0        2.865387    0.000275    2.562211
     29          1           0        0.836397    0.000219    1.851503
     30          6           0        4.616905   -0.000034    0.886147
     31          6           0        4.001190   -0.000392   -1.525498
     32          1           0        3.320289   -0.000663   -3.562074
     33          6           0        4.238969    0.000182    2.211452
     34          1           0        2.577335    0.000445    3.615977
     35          1           0        5.674597   -0.000105    0.610563
     36          1           0        5.061266   -0.000457   -1.791319
     37          1           0        4.997701    0.000283    2.997524
     38          1           0       -3.784162    2.567764    0.501310
     39          1           0       -0.082227   -4.578003   -0.343028
     40          6           0       -4.072385    0.000240   -0.886182
     41          1           0       -3.614185    0.000099   -1.886360
     42          1           0       -4.713870   -0.890237   -0.803681
     43          1           0       -4.713660    0.890884   -0.803836
     44          6           0       -3.645300    0.000362    1.607032
     45          1           0       -4.281370   -0.885930    1.745004
     46          1           0       -2.881485    0.000305    2.398873
     47          1           0       -4.281142    0.886832    1.744912
 ---------------------------------------------------------------------
                    Distance matrix (angstroms):
                    1          2          3          4          5
     1  C    0.000000
     2  C    1.390756   0.000000
     3  C    2.437621   1.410816   0.000000
     4  C    2.822381   2.438597   1.411190   0.000000
     5  C    2.401698   2.765416   2.411286   1.402049   0.000000
     6  C    1.396070   2.414607   2.816064   2.452367   1.393924
     7  C    4.352993   3.864175   2.580952   1.531471   2.534489
     8  C    5.147203   4.272297   2.862357   2.531091   3.838004
     9  C    4.886468   3.728644   2.450178   2.862352   4.262717
    10  C    6.125614   4.861820   3.728624   4.272280   5.671513
    11  H    6.302122   4.949654   4.054149   4.883956   6.247954
    12  C    7.320089   6.125615   4.886450   5.147188   6.533297
    13  C    7.505771   6.477131   5.112214   4.981949   6.277952
    14  C    6.533310   5.671529   4.262720   3.838003   5.043094
    15  H    2.148170   1.088648   2.164921   3.422830   3.854062
    16  H    3.386439   3.857049   3.399827   2.151636   1.091676
    17  H    2.169253   3.409360   3.907852   3.435353   2.161315
    18  H    8.259223   7.009371   5.842977   6.204880   7.598087
    19  H    8.550996   7.553975   6.178242   5.954601   7.197514
    20  N    3.710853   2.432832   1.402502   2.445548   3.705640
    21  C    4.186774   2.796440   2.441277   3.742624   4.851493
    22  C    4.701315   3.403882   3.292942   4.564565   5.580620
    23  C    4.745735   3.438044   3.298104   4.571318   5.601098
    24  C    4.820296   3.701345   3.473070   4.485172   5.430578
    25  C    5.651887   4.423070   4.573484   5.912248   6.859165
    26  C    5.679719   4.440435   4.565548   5.904020   6.862566
    27  H    4.806150   3.613224   3.348893   4.434095   5.431583
    28  C    5.801426   4.826375   4.773438   5.728796   6.556758
    29  H    4.470479   3.444856   2.938513   3.689555   4.650810
    30  C    6.521772   5.417026   5.640559   6.913880   7.789448
    31  C    6.069268   4.845100   5.071771   6.457397   7.397647
    32  H    6.353425   5.201912   5.374671   6.664311   7.574843
    33  C    6.588076   5.585478   5.723792   6.840667   7.663631
    34  H    6.221241   5.395206   5.281706   6.034159   6.771458
    35  H    7.367746   6.298683   6.613808   7.925392   8.777607
    36  H    6.972066   5.816233   6.137955   7.532125   8.433275
    37  H    7.475079   6.560058   6.743472   7.812609   8.578336
    38  H    7.004015   6.312057   4.913281   4.198395   5.204585
    39  H    1.092642   2.148883   3.421600   3.914925   3.399662
    40  C    5.044155   4.728565   3.579898   2.503854   3.073858
    41  H    4.984053   4.560586   3.491268   2.754890   3.417909
    42  H    4.939664   4.932951   3.999069   2.750082   2.776915
    43  H    6.118667   5.743977   4.511809   3.474345   4.085783
    44  C    5.065870   4.797621   3.661178   2.509208   3.011108
    45  H    4.968215   5.005970   4.078172   2.759860   2.711643
    46  H    5.022884   4.684287   3.634767   2.764565   3.321367
    47  H    6.136752   5.803302   4.579830   3.479047   4.036483
                    6          7          8          9         10
     6  C    0.000000
     7  C    3.838599   0.000000
     8  C    4.981955   1.531470   0.000000
     9  C    5.112220   2.580944   1.411184   0.000000
    10  C    6.477121   3.864165   2.438592   1.410806   0.000000
    11  H    6.868693   4.742299   3.422826   2.164915   1.088653
    12  C    7.505763   4.352985   2.822373   2.437606   1.390754
    13  C    7.429899   3.838595   2.452362   2.816052   2.414610
    14  C    6.277956   2.534488   1.402048   2.411280   2.765420
    15  H    3.398573   4.742311   4.883979   4.054181   4.949667
    16  H    2.143538   2.706666   4.198395   4.913276   6.312043
    17  H    1.091873   4.695764   5.954605   6.178247   7.553965
    18  H    8.527608   5.445624   3.914916   3.421583   2.148879
    19  H    8.404302   4.695764   3.435349   3.907839   3.409360
    20  N    4.218332   2.952573   2.445543   1.402495   2.432800
    21  C    5.053922   4.382395   3.742591   2.441232   2.796333
    22  C    5.662025   5.231976   4.564441   3.292786   3.403539
    23  C    5.697891   5.210626   4.571325   3.298113   3.438048
    24  C    5.594268   5.062362   4.484990   3.472855   3.700895
    25  C    6.775038   6.630187   5.912127   4.573341   4.422736
    26  C    6.793571   6.598950   5.903999   4.565523   4.440367
    27  H    5.609985   4.983928   4.434166   3.348979   3.613383
    28  C    6.610088   6.299454   5.728587   4.773208   4.825873
    29  H    5.000326   4.152997   3.689368   2.938300   3.444447
    30  C    7.644429   7.625476   6.913718   5.640377   5.416607
    31  C    7.258709   7.192361   6.457324   5.071686   4.844896
    32  H    7.465919   7.342109   6.664316   5.374676   5.201915
    33  C    7.575923   7.489812   6.840469   5.723576   5.584990
    34  H    6.874160   6.516630   6.033930   5.281467   5.394690
    35  H    8.557845   8.662412   7.925235   6.613637   6.298285
    36  H    8.216549   8.285255   7.532044   6.137864   5.816017
    37  H    8.449651   8.449217   7.812396   6.743247   6.559551
    38  H    6.538105   2.706665   2.151635   3.399821   3.857055
    39  H    2.166530   5.445634   6.204898   5.843000   7.009376
    40  C    4.359181   1.548798   2.503847   3.579881   4.728554
    41  H    4.506785   2.190915   2.754911   3.491270   4.560609
    42  H    4.008631   2.198268   3.474336   4.511807   5.743974
    43  H    5.413189   2.198272   2.750049   3.999018   4.932902
    44  C    4.325204   1.547683   2.509204   3.661174   4.797607
    45  H    3.976849   2.199492   3.479042   4.579840   5.803298
    46  H    4.451013   2.190698   2.764596   3.634791   4.684308
    47  H    5.383928   2.199494   2.759824   4.078128   5.005912
                   11         12         13         14         15
    11  H    0.000000
    12  C    2.148178   0.000000
    13  C    3.398584   1.396073   0.000000
    14  C    3.854071   2.401700   1.393925   0.000000
    15  H    4.795319   6.302134   6.868712   6.247977   0.000000
    16  H    7.005953   7.004005   6.538103   5.204585   4.945688
    17  H    7.960075   8.550987   8.404300   7.197514   4.306471
    18  H    2.463892   1.092641   2.166533   3.399664   7.069340
    19  H    4.306480   2.169254   1.091872   2.161316   7.960093
    20  N    2.655280   3.710823   4.218312   3.705632   2.655319
    21  C    2.416564   4.186665   5.053838   4.851440   2.416700
    22  C    2.844129   4.700935   5.661714   5.580415   2.844553
    23  C    2.886856   4.745741   5.697900   5.601109   2.886858
    24  C    3.417692   4.819767   5.593818   5.430273   3.418193
    25  C    3.597853   5.651488   6.774709   6.858953   3.598274
    26  C    3.626282   5.679639   6.793507   6.862529   3.626371
    27  H    3.285657   4.806335   5.610147   5.431700   3.285486
    28  C    4.442066   5.800788   6.609533   6.556388   4.442623
    29  H    3.495922   4.469997   4.999902   4.650511   3.496338
    30  C    4.604959   6.521240   7.643979   7.789157   4.605461
    31  C    3.921481   6.069019   7.258503   7.397518   3.921741
    32  H    4.397479   6.353430   7.465925   7.574851   4.397479
    33  C    4.954781   6.587443   7.575376   7.663274   4.955342
    34  H    5.167725   6.220557   6.873546   6.771046   5.168274
    35  H    5.399619   7.367225   8.557399   8.777320   5.400092
    36  H    4.832453   6.971790   8.216318   8.433129   4.832720
    37  H    5.932445   7.474398   8.449051   8.577945   5.933017
    38  H    4.945698   3.386446   2.143545   1.091677   7.005973
    39  H    7.069333   8.259228   8.527620   7.598102   2.463888
    40  C    5.626177   5.044148   4.359174   3.073849   5.626185
    41  H    5.348141   4.984095   4.506831   3.417948   5.348118
    42  H    6.605052   6.118656   5.413168   4.085755   5.923336
    43  H    5.923291   4.939618   4.008589   2.776875   6.605048
    44  C    5.719601   5.065853   4.325192   3.011099   5.719617
    45  H    6.688181   6.136734   5.383902   4.036455   6.019232
    46  H    5.517269   5.022912   4.451057   3.321413   5.517259
    47  H    6.019174   4.968150   3.976791   2.711594   6.688181
                   16         17         18         19         20
    16  H    0.000000
    17  H    2.468653   0.000000
    18  H    8.091911   9.585371   0.000000
    19  H    7.354288   9.346033   2.511866   0.000000
    20  N    4.590749   5.310177   4.580404   5.310156   0.000000
    21  C    5.830886   6.118936   4.800494   6.118846   1.429822
    22  C    6.567600   6.679769   5.168535   6.679433   2.466723
    23  C    6.583015   6.719635   5.224232   6.719643   2.432551
    24  C    6.325161   6.563435   5.345345   6.562947   2.887135
    25  C    7.884572   7.743582   5.903982   7.743214   3.768566
    26  C    7.883305   7.766701   5.945857   7.766627   3.735476
    27  H    6.342798   6.604595   5.347509   6.604768   2.634945
    28  C    7.420293   7.493561   6.170904   7.492939   4.265462
    29  H    5.455980   5.970341   5.158920   5.969890   2.528825
    30  C    8.793419   8.553501   6.673956   8.552988   4.925007
    31  C    8.444940   8.217589   6.246853   8.217356   4.239813
    32  H    8.577935   8.397352   6.549156   8.397356   4.603500
    33  C    8.596119   8.446208   6.793179   8.445584   5.122228
    34  H    7.534362   7.688015   6.610474   7.687318   4.910407
    35  H    9.801995   9.439592   7.416046   9.439076   5.889950
    36  H    9.491891   9.137567   7.035772   9.137300   5.332709
    37  H    9.484249   9.266201   7.610040   9.265506   6.187387
    38  H    5.134933   7.354285   4.297088   2.468664   4.590743
    39  H    4.297079   2.511863   9.155755   9.585383   4.580440
    40  C    2.932651   5.055135   6.097265   5.055134   3.980818
    41  H    3.510340   5.256056   5.984663   5.256112   3.770044
    42  H    2.319357   4.499626   7.181304   6.073941   4.698404
    43  H    3.811228   6.073964   5.938300   4.499593   4.698374
    44  C    2.798842   4.993007   6.120409   4.992997   4.111190
    45  H    2.149241   4.433986   7.201006   6.018978   4.815164
    46  H    3.317697   5.153576   6.026199   5.153625   4.004902
    47  H    3.704367   6.019010   5.968523   4.433933   4.815132
                   21         22         23         24         25
    21  C    0.000000
    22  C    1.428271   0.000000
    23  C    1.379199   2.439946   0.000000
    24  C    2.494978   1.420924   3.749177   0.000000
    25  C    2.460974   1.434193   2.819273   2.462270   0.000000
    26  C    2.427076   2.827781   1.415617   4.248434   2.435322
    27  H    2.131836   3.422271   1.091439   4.624207   3.910694
    28  C    3.748300   2.430664   4.870548   1.378429   2.820713
    29  H    2.720798   2.168632   4.093398   1.090520   3.445967
    30  C    3.755825   2.458349   4.241473   2.811300   1.422447
    31  C    2.810027   2.462956   2.422165   3.756788   1.422118
    32  H    3.408571   3.919900   2.172414   5.340621   3.427663
    33  C    4.247234   2.819372   5.071910   2.427603   2.435319
    34  H    4.635145   3.421498   5.845512   2.143422   3.913083
    35  H    4.627825   3.444573   4.874002   3.904298   2.170207
    36  H    3.902919   3.448001   3.417995   4.629193   2.170304
    37  H    5.339740   3.911811   6.139675   3.410475   3.426699
    38  H    5.830842   6.567423   6.583027   6.324895   7.884385
    39  H    4.800620   5.168976   5.224229   5.345953   5.904469
    40  C    5.350410   6.420046   5.874566   6.457451   7.749328
    41  H    5.004017   6.230793   5.284101   6.510289   7.461007
    42  H    6.057447   7.096665   6.579412   7.082122   8.428416
    43  H    6.057400   7.096580   6.579376   7.082021   8.428324
    44  C    5.494685   6.061925   6.507673   5.539069   7.495869
    45  H    6.191596   6.770881   7.165837   6.240407   8.194586
    46  H    5.267448   5.582025   6.435303   4.844154   7.003445
    47  H    6.191547   6.770777   7.165812   6.240264   8.194478
                   26         27         28         29         30
    26  C    0.000000
    27  H    2.183987   0.000000
    28  C    5.072941   5.835935   0.000000
    29  H    4.882241   4.781666   2.149862   0.000000
    30  C    3.744799   5.332823   2.424254   3.901814   0.000000
    31  C    1.378244   3.411916   4.242572   4.628180   2.489003
    32  H    1.092209   2.509543   6.141157   5.956218   4.633345
    33  C    4.870630   6.134915   1.417660   3.421558   1.378140
    34  H    6.140929   6.759375   1.092427   2.478756   3.407612
    35  H    4.085928   5.950686   3.420613   4.994808   1.093005
    36  H    2.149686   4.322221   4.875973   5.578501   2.714089
    37  H    5.844983   7.210617   2.176295   4.316227   2.145441
    38  H    7.883273   6.342902   7.419961   5.455719   8.793157
    39  H    5.945957   5.347302   6.171667   5.159453   6.674617
    40  C    7.289601   5.368296   7.747522   5.620592   8.868197
    41  H    6.677707   4.625124   7.859684   5.811996   8.685484
    42  H    7.983343   6.060900   8.340706   6.216782   9.524250
    43  H    7.983291   6.060894   8.340588   6.216691   9.524139
    44  C    7.845566   6.416192   6.580381   4.488360   8.293594
    45  H    8.508448   7.028424   7.247712   5.195011   8.983415
    46  H    7.686077   6.529324   5.749193   3.757960   7.649457
    47  H    8.508405   7.028435   7.247540   5.194868   8.983276
                   31         32         33         34         35
    31  C    0.000000
    32  H    2.147386   0.000000
    33  C    3.744507   5.846159   0.000000
    34  H    5.334991   7.216398   2.175711   0.000000
    35  H    2.713494   4.790998   2.150319   4.315732   0.000000
    36  H    1.092896   2.483259   4.086361   5.950526   2.478954
    37  H    4.631497   6.770675   1.092512   2.498130   2.481083
    38  H    8.444826   8.577944   8.595795   7.533984   9.801735
    39  H    6.247164   6.549154   6.793959   6.611292   7.416705
    40  C    8.098848   7.862063   8.869833   8.030455   9.861232
    41  H    7.623920   7.134070   8.857996   8.283154   9.618529
    42  H    8.790058   8.540948   9.488793   8.572535  10.522009
    43  H    8.789982   8.540906   9.488671   8.572411  10.521895
    44  C    8.263265   8.674047   7.907403   6.538887   9.373016
    45  H    8.948808   9.313109   8.578983   7.164359  10.059469
    46  H    7.922872   8.602028   7.122920   5.592858   8.740972
    47  H    8.948730   9.313082   8.578817   7.164166  10.059331
                   36         37         38         39         40
    36  H    0.000000
    37  H    4.789265   0.000000
    38  H    9.491760   9.483890   0.000000
    39  H    7.036121   7.610891   8.091923   0.000000
    40  C    9.178391   9.866592   2.932641   6.097269   0.000000
    41  H    8.675972   9.900349   3.510379   5.984615   1.100138
    42  H    9.865111  10.466938   3.811185   5.938345   1.100572
    43  H    9.865029  10.466807   2.319332   7.181312   1.100573
    44  C    9.346287   8.754138   2.798831   6.120429   2.529529
    45  H   10.028683   9.405070   3.704321   5.968591   2.784261
    46  H    8.980256   7.901896   3.317743   6.026174   3.494257
    47  H   10.028599   9.404889   2.149202   7.201028   2.784292
                   41         42         43         44         45
    41  H    0.000000
    42  H    1.781628   0.000000
    43  H    1.781629   1.781121   0.000000
    44  C    3.493531   2.783262   2.783291   0.000000
    45  H    3.796971   2.585125   3.136962   1.099607   0.000000
    46  H    4.347421   3.795662   3.795700   1.100193   1.781189
    47  H    3.797007   3.136966   2.585189   1.099607   1.772762
                   46         47
    46  H    0.000000
    47  H    1.781189   0.000000
 Symmetry turned off by external request.
 Stoichiometry    C25H21N
 Framework group  C1[X(C25H21N)]
 Deg. of freedom   135
 Full point group                 C1      NOp   1
 Rotational constants (GHZ):      0.3150006      0.1817429      0.1465634
 Leave Link  202 at Mon Feb 22 11:39:13 2021, MaxMem=  5242880000 cpu:         1.7
 (Enter /opt/nce/packages/global/g09/l301.exe)
 Standard basis: def2TZVP (5D, 7F)
 Ernie: Thresh=  0.10000D-02 Tol=  0.10000D-05 Strict=F.
   932 basis functions,  1494 primitive gaussians,  1062 cartesian basis functions
    89 alpha electrons       89 beta electrons
       nuclear repulsion energy      2226.8289668978 Hartrees.
 IExCor= 4336 DFT=T Ex+Corr=M062X ExCW=0 ScaHFX=  0.540000
 ScaDFX=  1.000000  1.000000  1.000000  1.000000 ScalE2=  1.000000  1.000000
 IRadAn=      5 IRanWt=     -1 IRanGd=            0 ICorTp=0 IEmpDi=  4
 NAtoms=   47 NActive=   47 NUniq=   47 SFac= 1.00D+00 NAtFMM=   60 NAOKFM=F Big=F
 Integral buffers will be    131072 words long.
 Raffenetti 2 integral format.
 Two-electron integral symmetry is turned off.
 ------------------------------------------------------------------------------
 Polarizable Continuum Model (PCM)
 =================================
 Model                : PCM (using non-symmetric T matrix).
 Atomic radii         : SMD-Coulomb.
 Polarization charges : Total charges.
 Charge compensation  : None.
 Solution method      : On-the-fly selection.
 Cavity type          : VdW (van der Waals Surface) (Alpha=1.000).
 Cavity algorithm     : GePol (No added spheres)
                        Default sphere list used, NSphG=   47.
                        Lebedev-Laikov grids with approx.  5.0 points / Ang**2.
                        Smoothing algorithm: York/Karplus (Gamma=1.0000).
                        Polarization charges: spherical gaussians, with
                                              point-specific exponents (IZeta= 3).
                        Self-potential: point-specific (ISelfS= 7).
                        Self-field    : sphere-specific E.n sum rule (ISelfD= 2).
 1st derivatives      : Analytical E(r).r(x)/FMM algorithm (CHGder, D1EAlg=3).
                        Cavity 1st derivative terms included.
 Solvent              : n,n-DiMethylFormamide, Eps=  37.219000 Eps(inf)=   2.046330
 ------------------------------------------------------------------------------
 GePol: Number of generator spheres                  =      47
 GePol: Total number of spheres                      =      47
 GePol: Number of exposed spheres                    =      47 (100.00%)
 GePol: Number of points                             =    3448
 GePol: Average weight of points                     =       0.10
 GePol: Minimum weight of points                     =   0.11D-10
 GePol: Maximum weight of points                     =    0.17992
 GePol: Number of points with low weight             =     254
 GePol: Fraction of low-weight points (<1% of avg)   =       7.37%
 GePol: Cavity surface area                          =    360.262 Ang**2
 GePol: Cavity volume                                =    354.637 Ang**3
 ------------------------------------------------------------------------------
 Atomic radii for non-electrostatic terms: SMD-CDS.
 ------------------------------------------------------------------------------
 PCM non-electrostatic energy =        -0.0052118738 Hartrees.
 Nuclear repulsion after PCM non-electrostatic terms =     2226.8237550239 Hartrees.
 Leave Link  301 at Mon Feb 22 11:39:15 2021, MaxMem=  5242880000 cpu:         7.8
 (Enter /opt/nce/packages/global/g09/l302.exe)
 NPDir=0 NMtPBC=     1 NCelOv=     1 NCel=       1 NClECP=     1 NCelD=      1
         NCelK=      1 NCelE2=     1 NClLst=     1 CellRange=     0.0.
 One-electron integrals computed using PRISM.
   1 Symmetry operations used in ECPInt.
 ECPInt:  NShTT=   68635 NPrTT=  209616 LenC2=   60285 LenP2D=  129458.
 LDataN:  DoStor=T MaxTD1= 6 Len=  172
 NBasis=   932 RedAO= T EigKep=  4.04D-06  NBF=   932
 NBsUse=   932 1.00D-06 EigRej= -1.00D+00 NBFU=   932
 Precomputing XC quadrature grid using
 IXCGrd= 4 IRadAn=           5 IRanWt=          -1 IRanGd=           0 AccXCQ= 0.00D+00.
 Generated NRdTot=       0 NPtTot=           0 NUsed=           0 NTot=          32
 NSgBfM=  1044  1044  1044  1045  1045 MxSgAt=    47 MxSgA2=    47.
 Leave Link  302 at Mon Feb 22 11:39:17 2021, MaxMem=  5242880000 cpu:        28.0
 (Enter /opt/nce/packages/global/g09/l303.exe)
 DipDrv:  MaxL=1.
 Leave Link  303 at Mon Feb 22 11:39:18 2021, MaxMem=  5242880000 cpu:         4.2
 (Enter /opt/nce/packages/global/g09/l401.exe)
 ExpMin= 9.52D-02 ExpMax= 1.97D+04 ExpMxC= 6.73D+02 IAcc=3 IRadAn=         5 AccDes= 0.00D+00
 Harris functional with IExCor= 1009 and IRadAn=       5 diagonalized for initial guess.
 HarFok:  IExCor= 1009 AccDes= 0.00D+00 IRadAn=         5 IDoV= 1 UseB2=F ITyADJ=14
 ICtDFT=  3500011 ScaDFX=  1.000000  1.000000  1.000000  1.000000
 FoFCou: FMM=F IPFlag=           0 FMFlag=      100000 FMFlg1=           0
         NFxFlg=           0 DoJE=T BraDBF=F KetDBF=T FulRan=T
         wScrn=  0.000000 ICntrl=     500 IOpCl=  0 I1Cent=   200000004 NGrid=           0
         NMat0=    1 NMatS0=      1 NMatT0=    0 NMatD0=    1 NMtDS0=    0 NMtDT0=    0
 Symmetry not used in FoFCou.
 Harris En= -1019.57863069810    
 JPrj=0 DoOrth=F DoCkMO=F.
 Leave Link  401 at Mon Feb 22 11:39:32 2021, MaxMem=  5242880000 cpu:       140.0
 (Enter /opt/nce/packages/global/g09/l502.exe)
 Closed shell SCF:
 Using DIIS extrapolation, IDIIS=  1040.
 Two-electron integral symmetry not used.
 IVT=     3421292 IEndB=     3421292 NGot=  5242880000 MDV=  5240604255
 LenX=  5240604255 LenY=  5239475349
 Requested convergence on RMS density matrix=1.00D-08 within 128 cycles.
 Requested convergence on MAX density matrix=1.00D-06.
 Requested convergence on             energy=1.00D-06.
 No special actions if energy rises.
 Fock matrices will be formed incrementally for  20 cycles.

 Cycle   1  Pass 1  IDiag  1:
 FoFJK:  IHMeth= 1 ICntrl=       0 DoSepK=F KAlg= 0 I1Cent=   0 FoldK=F
 IRaf= 780000000 NMat=   1 IRICut=       1 DoRegI=T DoRafI=F ISym2E= 0.
 FoFCou: FMM=F IPFlag=           0 FMFlag=      100000 FMFlg1=           0
         NFxFlg=           0 DoJE=F BraDBF=F KetDBF=F FulRan=T
         wScrn=  0.000000 ICntrl=       0 IOpCl=  0 I1Cent=           0 NGrid=           0
         NMat0=    1 NMatS0=      1 NMatT0=    0 NMatD0=    1 NMtDS0=    0 NMtDT0=    0
 Symmetry not used in FoFCou.
 Inv3:  Mode=1 IEnd=    35666112.
 Iteration    1 A*A^-1 deviation from unit magnitude is 6.44D-15 for   3438.
 Iteration    1 A*A^-1 deviation from orthogonality  is 4.08D-15 for   1420   1192.
 Iteration    1 A^-1*A deviation from unit magnitude is 6.22D-15 for   3438.
 Iteration    1 A^-1*A deviation from orthogonality  is 1.25D-12 for   1550   1515.
 E= -1019.40785156808    
 DIIS: error= 2.06D-02 at cycle   1 NSaved=   1.
 NSaved= 1 IEnMin= 1 EnMin= -1019.40785156808     IErMin= 1 ErrMin= 2.06D-02
 ErrMax= 2.06D-02  0.00D+00 EMaxC= 1.00D-01 BMatC= 7.29D-01 BMatP= 7.29D-01
 IDIUse=3 WtCom= 7.94D-01 WtEn= 2.06D-01
 Coeff-Com:  0.100D+01
 Coeff-En:   0.100D+01
 Coeff:      0.100D+01
 Gap=     0.244 Goal=   None    Shift=    0.000
 GapD=    0.244 DampG=1.000 DampE=0.500 DampFc=0.5000 IDamp=-1.
 Damping current iteration by 5.00D-01
 RMSDP=2.28D-03 MaxDP=9.97D-02              OVMax= 2.15D-01

 Cycle   2  Pass 1  IDiag  1:
 RMSU=  1.08D-03    CP:  9.37D-01
 E= -1019.73357558221     Delta-E=       -0.325724014131 Rises=F Damp=T
 DIIS: error= 5.56D-03 at cycle   2 NSaved=   2.
 NSaved= 2 IEnMin= 2 EnMin= -1019.73357558221     IErMin= 2 ErrMin= 5.56D-03
 ErrMax= 5.56D-03  0.00D+00 EMaxC= 1.00D-01 BMatC= 6.81D-02 BMatP= 7.29D-01
 IDIUse=3 WtCom= 9.44D-01 WtEn= 5.56D-02
 Coeff-Com: -0.162D+00 0.116D+01
 Coeff-En:   0.000D+00 0.100D+01
 Coeff:     -0.153D+00 0.115D+01
 Gap=     0.217 Goal=   None    Shift=    0.000
 RMSDP=1.17D-03 MaxDP=8.74D-02 DE=-3.26D-01 OVMax= 1.61D-01

 Cycle   3  Pass 1  IDiag  1:
 RMSU=  9.93D-04    CP:  8.81D-01  1.49D+00
 E= -1020.00899130257     Delta-E=       -0.275415720365 Rises=F Damp=F
 DIIS: error= 6.60D-03 at cycle   3 NSaved=   3.
 NSaved= 3 IEnMin= 3 EnMin= -1020.00899130257     IErMin= 2 ErrMin= 5.56D-03
 ErrMax= 6.60D-03  0.00D+00 EMaxC= 1.00D-01 BMatC= 3.47D-02 BMatP= 6.81D-02
 IDIUse=3 WtCom= 9.34D-01 WtEn= 6.60D-02
 Coeff-Com: -0.137D+00 0.536D+00 0.602D+00
 Coeff-En:   0.000D+00 0.000D+00 0.100D+01
 Coeff:     -0.128D+00 0.500D+00 0.628D+00
 Gap=     0.223 Goal=   None    Shift=    0.000
 RMSDP=3.10D-04 MaxDP=3.22D-02 DE=-2.75D-01 OVMax= 8.25D-02

 Cycle   4  Pass 1  IDiag  1:
 RMSU=  2.98D-04    CP:  8.77D-01  1.51D+00  9.19D-01
 E= -1020.03791261612     Delta-E=       -0.028921313546 Rises=F Damp=F
 DIIS: error= 2.61D-03 at cycle   4 NSaved=   4.
 NSaved= 4 IEnMin= 4 EnMin= -1020.03791261612     IErMin= 4 ErrMin= 2.61D-03
 ErrMax= 2.61D-03  0.00D+00 EMaxC= 1.00D-01 BMatC= 6.14D-03 BMatP= 3.47D-02
 IDIUse=3 WtCom= 9.74D-01 WtEn= 2.61D-02
 Coeff-Com: -0.403D-01 0.104D+00 0.332D+00 0.604D+00
 Coeff-En:   0.000D+00 0.000D+00 0.135D+00 0.865D+00
 Coeff:     -0.392D-01 0.101D+00 0.327D+00 0.611D+00
 Gap=     0.212 Goal=   None    Shift=    0.000
 RMSDP=1.16D-04 MaxDP=9.23D-03 DE=-2.89D-02 OVMax= 2.10D-02

 Cycle   5  Pass 1  IDiag  1:
 RMSU=  7.57D-05    CP:  8.76D-01  1.52D+00  9.31D-01  7.09D-01
 E= -1020.04384893864     Delta-E=       -0.005936322516 Rises=F Damp=F
 DIIS: error= 2.19D-04 at cycle   5 NSaved=   5.
 NSaved= 5 IEnMin= 5 EnMin= -1020.04384893864     IErMin= 5 ErrMin= 2.19D-04
 ErrMax= 2.19D-04  0.00D+00 EMaxC= 1.00D-01 BMatC= 7.73D-05 BMatP= 6.14D-03
 IDIUse=3 WtCom= 9.98D-01 WtEn= 2.19D-03
 Coeff-Com: -0.720D-02 0.129D-01 0.850D-01 0.192D+00 0.717D+00
 Coeff-En:   0.000D+00 0.000D+00 0.000D+00 0.000D+00 0.100D+01
 Coeff:     -0.718D-02 0.129D-01 0.849D-01 0.191D+00 0.718D+00
 Gap=     0.212 Goal=   None    Shift=    0.000
 RMSDP=2.12D-05 MaxDP=1.51D-03 DE=-5.94D-03 OVMax= 3.08D-03

 Cycle   6  Pass 1  IDiag  1:
 RMSU=  2.04D-05    CP:  8.76D-01  1.52D+00  9.30D-01  7.08D-01  1.07D+00
 E= -1020.04391758468     Delta-E=       -0.000068646044 Rises=F Damp=F
 DIIS: error= 1.16D-04 at cycle   6 NSaved=   6.
 NSaved= 6 IEnMin= 6 EnMin= -1020.04391758468     IErMin= 6 ErrMin= 1.16D-04
 ErrMax= 1.16D-04  0.00D+00 EMaxC= 1.00D-01 BMatC= 1.40D-05 BMatP= 7.73D-05
 IDIUse=3 WtCom= 9.99D-01 WtEn= 1.16D-03
 Coeff-Com:  0.297D-03-0.250D-02 0.953D-02 0.249D-01 0.306D+00 0.662D+00
 Coeff-En:   0.000D+00 0.000D+00 0.000D+00 0.000D+00 0.000D+00 0.100D+01
 Coeff:      0.297D-03-0.250D-02 0.952D-02 0.249D-01 0.305D+00 0.663D+00
 Gap=     0.212 Goal=   None    Shift=    0.000
 RMSDP=8.81D-06 MaxDP=9.01D-04 DE=-6.86D-05 OVMax= 1.23D-03

 Cycle   7  Pass 1  IDiag  1:
 RMSU=  6.92D-06    CP:  8.76D-01  1.52D+00  9.30D-01  7.11D-01  1.13D+00
                    CP:  1.14D+00
 E= -1020.04393188423     Delta-E=       -0.000014299546 Rises=F Damp=F
 DIIS: error= 3.41D-05 at cycle   7 NSaved=   7.
 NSaved= 7 IEnMin= 7 EnMin= -1020.04393188423     IErMin= 7 ErrMin= 3.41D-05
 ErrMax= 3.41D-05  0.00D+00 EMaxC= 1.00D-01 BMatC= 1.31D-06 BMatP= 1.40D-05
 IDIUse=1 WtCom= 1.00D+00 WtEn= 0.00D+00
 Coeff-Com:  0.122D-02-0.292D-02-0.802D-02-0.209D-01 0.587D-02 0.220D+00
 Coeff-Com:  0.805D+00
 Coeff:      0.122D-02-0.292D-02-0.802D-02-0.209D-01 0.587D-02 0.220D+00
 Coeff:      0.805D+00
 Gap=     0.212 Goal=   None    Shift=    0.000
 RMSDP=4.62D-06 MaxDP=4.05D-04 DE=-1.43D-05 OVMax= 4.22D-04

 Cycle   8  Pass 1  IDiag  1:
 RMSU=  2.45D-06    CP:  8.76D-01  1.52D+00  9.29D-01  7.10D-01  1.16D+00
                    CP:  1.28D+00  1.14D+00
 E= -1020.04393347535     Delta-E=       -0.000001591124 Rises=F Damp=F
 DIIS: error= 1.45D-05 at cycle   8 NSaved=   8.
 NSaved= 8 IEnMin= 8 EnMin= -1020.04393347535     IErMin= 8 ErrMin= 1.45D-05
 ErrMax= 1.45D-05  0.00D+00 EMaxC= 1.00D-01 BMatC= 2.08D-07 BMatP= 1.31D-06
 IDIUse=1 WtCom= 1.00D+00 WtEn= 0.00D+00
 Coeff-Com:  0.553D-03-0.118D-02-0.439D-02-0.125D-01-0.255D-01 0.360D-01
 Coeff-Com:  0.358D+00 0.649D+00
 Coeff:      0.553D-03-0.118D-02-0.439D-02-0.125D-01-0.255D-01 0.360D-01
 Coeff:      0.358D+00 0.649D+00
 Gap=     0.212 Goal=   None    Shift=    0.000
 RMSDP=1.29D-06 MaxDP=1.05D-04 DE=-1.59D-06 OVMax= 2.12D-04

 Cycle   9  Pass 1  IDiag  1:
 RMSU=  8.60D-07    CP:  8.77D-01  1.52D+00  9.29D-01  7.09D-01  1.17D+00
                    CP:  1.31D+00  1.19D+00  1.14D+00
 E= -1020.04393373640     Delta-E=       -0.000000261048 Rises=F Damp=F
 DIIS: error= 4.95D-06 at cycle   9 NSaved=   9.
 NSaved= 9 IEnMin= 9 EnMin= -1020.04393373640     IErMin= 9 ErrMin= 4.95D-06
 ErrMax= 4.95D-06  0.00D+00 EMaxC= 1.00D-01 BMatC= 1.38D-08 BMatP= 2.08D-07
 IDIUse=1 WtCom= 1.00D+00 WtEn= 0.00D+00
 Coeff-Com: -0.185D-04 0.723D-04 0.833D-04-0.581D-03-0.627D-02-0.180D-01
 Coeff-Com: -0.210D-01 0.153D+00 0.892D+00
 Coeff:     -0.185D-04 0.723D-04 0.833D-04-0.581D-03-0.627D-02-0.180D-01
 Coeff:     -0.210D-01 0.153D+00 0.892D+00
 Gap=     0.212 Goal=   None    Shift=    0.000
 RMSDP=5.89D-07 MaxDP=7.92D-05 DE=-2.61D-07 OVMax= 8.78D-05

 Cycle  10  Pass 1  IDiag  1:
 RMSU=  3.21D-07    CP:  8.77D-01  1.52D+00  9.29D-01  7.08D-01  1.17D+00
                    CP:  1.32D+00  1.21D+00  1.27D+00  1.22D+00
 E= -1020.04393376055     Delta-E=       -0.000000024156 Rises=F Damp=F
 DIIS: error= 1.98D-06 at cycle  10 NSaved=  10.
 NSaved=10 IEnMin=10 EnMin= -1020.04393376055     IErMin=10 ErrMin= 1.98D-06
 ErrMax= 1.98D-06  0.00D+00 EMaxC= 1.00D-01 BMatC= 2.59D-09 BMatP= 1.38D-08
 IDIUse=1 WtCom= 1.00D+00 WtEn= 0.00D+00
 Coeff-Com: -0.705D-04 0.168D-03 0.567D-03 0.113D-02 0.307D-03-0.115D-01
 Coeff-Com: -0.505D-01-0.618D-02 0.381D+00 0.685D+00
 Coeff:     -0.705D-04 0.168D-03 0.567D-03 0.113D-02 0.307D-03-0.115D-01
 Coeff:     -0.505D-01-0.618D-02 0.381D+00 0.685D+00
 Gap=     0.212 Goal=   None    Shift=    0.000
 RMSDP=1.82D-07 MaxDP=2.69D-05 DE=-2.42D-08 OVMax= 3.46D-05

 Cycle  11  Pass 1  IDiag  1:
 RMSU=  9.16D-08    CP:  8.77D-01  1.52D+00  9.29D-01  7.08D-01  1.17D+00
                    CP:  1.32D+00  1.22D+00  1.31D+00  1.31D+00  1.14D+00
 E= -1020.04393376440     Delta-E=       -0.000000003842 Rises=F Damp=F
 DIIS: error= 7.35D-07 at cycle  11 NSaved=  11.
 NSaved=11 IEnMin=11 EnMin= -1020.04393376440     IErMin=11 ErrMin= 7.35D-07
 ErrMax= 7.35D-07  0.00D+00 EMaxC= 1.00D-01 BMatC= 2.19D-10 BMatP= 2.59D-09
 IDIUse=1 WtCom= 1.00D+00 WtEn= 0.00D+00
 Coeff-Com: -0.136D-04 0.300D-04 0.145D-03 0.356D-03 0.853D-03-0.685D-03
 Coeff-Com: -0.115D-01-0.210D-01-0.126D-01 0.199D+00 0.846D+00
 Coeff:     -0.136D-04 0.300D-04 0.145D-03 0.356D-03 0.853D-03-0.685D-03
 Coeff:     -0.115D-01-0.210D-01-0.126D-01 0.199D+00 0.846D+00
 Gap=     0.212 Goal=   None    Shift=    0.000
 RMSDP=6.98D-08 MaxDP=8.78D-06 DE=-3.84D-09 OVMax= 1.14D-05

 Cycle  12  Pass 1  IDiag  1:
 RMSU=  3.51D-08    CP:  8.77D-01  1.52D+00  9.29D-01  7.08D-01  1.17D+00
                    CP:  1.32D+00  1.22D+00  1.33D+00  1.34D+00  1.24D+00
                    CP:  1.28D+00
 E= -1020.04393376486     Delta-E=       -0.000000000462 Rises=F Damp=F
 DIIS: error= 2.86D-07 at cycle  12 NSaved=  12.
 NSaved=12 IEnMin=12 EnMin= -1020.04393376486     IErMin=12 ErrMin= 2.86D-07
 ErrMax= 2.86D-07  0.00D+00 EMaxC= 1.00D-01 BMatC= 2.83D-11 BMatP= 2.19D-10
 IDIUse=1 WtCom= 1.00D+00 WtEn= 0.00D+00
 Coeff-Com:  0.345D-05-0.858D-05-0.126D-04-0.875D-05 0.240D-03 0.107D-02
 Coeff-Com:  0.136D-02-0.643D-02-0.461D-01-0.176D-02 0.282D+00 0.770D+00
 Coeff:      0.345D-05-0.858D-05-0.126D-04-0.875D-05 0.240D-03 0.107D-02
 Coeff:      0.136D-02-0.643D-02-0.461D-01-0.176D-02 0.282D+00 0.770D+00
 Gap=     0.212 Goal=   None    Shift=    0.000
 RMSDP=2.12D-08 MaxDP=2.05D-06 DE=-4.62D-10 OVMax= 5.59D-06

 Cycle  13  Pass 1  IDiag  1:
 RMSU=  1.08D-08    CP:  8.77D-01  1.52D+00  9.29D-01  7.08D-01  1.17D+00
                    CP:  1.32D+00  1.22D+00  1.33D+00  1.34D+00  1.28D+00
                    CP:  1.40D+00  1.16D+00
 E= -1020.04393376495     Delta-E=       -0.000000000095 Rises=F Damp=F
 DIIS: error= 1.24D-07 at cycle  13 NSaved=  13.
 NSaved=13 IEnMin=13 EnMin= -1020.04393376495     IErMin=13 ErrMin= 1.24D-07
 ErrMax= 1.24D-07  0.00D+00 EMaxC= 1.00D-01 BMatC= 6.17D-12 BMatP= 2.83D-11
 IDIUse=1 WtCom= 1.00D+00 WtEn= 0.00D+00
 Coeff-Com:  0.323D-05-0.746D-05-0.253D-04-0.544D-04-0.313D-04 0.571D-03
 Coeff-Com:  0.230D-02 0.907D-03-0.160D-01-0.313D-01-0.380D-01 0.317D+00
 Coeff-Com:  0.765D+00
 Coeff:      0.323D-05-0.746D-05-0.253D-04-0.544D-04-0.313D-04 0.571D-03
 Coeff:      0.230D-02 0.907D-03-0.160D-01-0.313D-01-0.380D-01 0.317D+00
 Coeff:      0.765D+00
 Gap=     0.212 Goal=   None    Shift=    0.000
 RMSDP=8.54D-09 MaxDP=4.85D-07 DE=-9.46D-11 OVMax= 1.79D-06

 Error on total polarization charges =  0.07174
 SCF Done:  E(RM062X) =  -1020.04393376     A.U. after   13 cycles
            NFock= 13  Conv=0.85D-08     -V/T= 2.0059
 KE= 1.014081198516D+03 PE=-6.819649763806D+03 EE= 2.558700876501D+03
 SMD-CDS (non-electrostatic) energy       (kcal/mol) =      -3.27
 (included in total energy above)
 Leave Link  502 at Mon Feb 22 12:05:56 2021, MaxMem=  5242880000 cpu:     18948.5
 (Enter /opt/nce/packages/global/g09/l601.exe)
 Copying SCF densities to generalized density rwf, IOpCl= 0 IROHF=0.

 **********************************************************************

            Population analysis using the SCF density.

 **********************************************************************

 Alpha  occ. eigenvalues --  -14.78512 -10.59113 -10.59112 -10.58694 -10.56226
 Alpha  occ. eigenvalues --  -10.55978 -10.55915 -10.54963 -10.54929 -10.54893
 Alpha  occ. eigenvalues --  -10.54892 -10.54807 -10.54752 -10.54739 -10.54656
 Alpha  occ. eigenvalues --  -10.54571 -10.54046 -10.54045 -10.53986 -10.53986
 Alpha  occ. eigenvalues --  -10.53826 -10.53826 -10.53344 -10.53344 -10.52128
 Alpha  occ. eigenvalues --  -10.52060  -1.09007  -0.98457  -0.95947  -0.95782
 Alpha  occ. eigenvalues --   -0.92472  -0.90899  -0.87438  -0.85321  -0.84092
 Alpha  occ. eigenvalues --   -0.83802  -0.82659  -0.81829  -0.79218  -0.77042
 Alpha  occ. eigenvalues --   -0.72666  -0.71044  -0.70961  -0.70197  -0.68920
 Alpha  occ. eigenvalues --   -0.67294  -0.64846  -0.61927  -0.61605  -0.60452
 Alpha  occ. eigenvalues --   -0.59177  -0.57160  -0.55778  -0.53987  -0.53276
 Alpha  occ. eigenvalues --   -0.52485  -0.52458  -0.52040  -0.50411  -0.50090
 Alpha  occ. eigenvalues --   -0.49613  -0.48710  -0.48576  -0.48104  -0.48075
 Alpha  occ. eigenvalues --   -0.46679  -0.46582  -0.45826  -0.45170  -0.44009
 Alpha  occ. eigenvalues --   -0.43914  -0.43000  -0.42826  -0.42530  -0.40747
 Alpha  occ. eigenvalues --   -0.40644  -0.39910  -0.39759  -0.39489  -0.38411
 Alpha  occ. eigenvalues --   -0.37573  -0.36741  -0.34922  -0.31514  -0.30494
 Alpha  occ. eigenvalues --   -0.30065  -0.29928  -0.27283  -0.23819
 Alpha virt. eigenvalues --   -0.02577   0.00005   0.01114   0.01532   0.02925
 Alpha virt. eigenvalues --    0.04772   0.05724   0.06741   0.08511   0.09292
 Alpha virt. eigenvalues --    0.09585   0.10043   0.10199   0.11286   0.11788
 Alpha virt. eigenvalues --    0.12007   0.12071   0.12582   0.13661   0.13874
 Alpha virt. eigenvalues --    0.14068   0.14493   0.14603   0.15390   0.15807
 Alpha virt. eigenvalues --    0.15930   0.16368   0.17228   0.17247   0.17853
 Alpha virt. eigenvalues --    0.19200   0.19495   0.19774   0.20336   0.20650
 Alpha virt. eigenvalues --    0.21095   0.21423   0.21688   0.21890   0.21951
 Alpha virt. eigenvalues --    0.22771   0.22845   0.23140   0.23651   0.24098
 Alpha virt. eigenvalues --    0.24246   0.24736   0.24967   0.25296   0.25658
 Alpha virt. eigenvalues --    0.25891   0.26729   0.26793   0.27270   0.27490
 Alpha virt. eigenvalues --    0.27915   0.28186   0.28535   0.29143   0.29845
 Alpha virt. eigenvalues --    0.30566   0.30730   0.30773   0.30951   0.31756
 Alpha virt. eigenvalues --    0.32153   0.32526   0.33117   0.33345   0.33641
 Alpha virt. eigenvalues --    0.33876   0.34774   0.34871   0.35069   0.35483
 Alpha virt. eigenvalues --    0.35839   0.35867   0.36379   0.36695   0.36854
 Alpha virt. eigenvalues --    0.37953   0.38206   0.38807   0.39159   0.39336
 Alpha virt. eigenvalues --    0.39505   0.39801   0.40848   0.41126   0.41289
 Alpha virt. eigenvalues --    0.41429   0.41799   0.42154   0.42461   0.42623
 Alpha virt. eigenvalues --    0.43047   0.43142   0.43590   0.43769   0.43975
 Alpha virt. eigenvalues --    0.44102   0.44856   0.44879   0.44988   0.45248
 Alpha virt. eigenvalues --    0.45510   0.46581   0.46958   0.47533   0.48101
 Alpha virt. eigenvalues --    0.48193   0.48418   0.49085   0.49098   0.49491
 Alpha virt. eigenvalues --    0.50405   0.50647   0.51200   0.51410   0.51729
 Alpha virt. eigenvalues --    0.52254   0.52462   0.52580   0.52787   0.52900
 Alpha virt. eigenvalues --    0.53531   0.53981   0.54191   0.54335   0.55243
 Alpha virt. eigenvalues --    0.56166   0.56218   0.56949   0.57079   0.57362
 Alpha virt. eigenvalues --    0.58044   0.59088   0.59106   0.59737   0.60392
 Alpha virt. eigenvalues --    0.61153   0.62036   0.62255   0.62642   0.62769
 Alpha virt. eigenvalues --    0.63300   0.64247   0.65017   0.65155   0.66431
 Alpha virt. eigenvalues --    0.67503   0.67820   0.68478   0.68659   0.69467
 Alpha virt. eigenvalues --    0.69559   0.70023   0.71152   0.71183   0.71272
 Alpha virt. eigenvalues --    0.71679   0.71897   0.72438   0.72744   0.73037
 Alpha virt. eigenvalues --    0.73714   0.73947   0.74884   0.75048   0.75065
 Alpha virt. eigenvalues --    0.75994   0.76340   0.76738   0.77108   0.77967
 Alpha virt. eigenvalues --    0.78542   0.78768   0.79135   0.79353   0.80548
 Alpha virt. eigenvalues --    0.80589   0.81160   0.81213   0.81357   0.82412
 Alpha virt. eigenvalues --    0.83108   0.83378   0.85169   0.85294   0.85993
 Alpha virt. eigenvalues --    0.86251   0.87723   0.87752   0.88527   0.88950
 Alpha virt. eigenvalues --    0.89360   0.89564   0.89832   0.89873   0.90793
 Alpha virt. eigenvalues --    0.91175   0.91501   0.92655   0.92790   0.93353
 Alpha virt. eigenvalues --    0.93615   0.94100   0.95088   0.96244   0.96302
 Alpha virt. eigenvalues --    0.96319   0.97479   0.98623   0.98631   0.99592
 Alpha virt. eigenvalues --    1.00015   1.00693   1.01042   1.01894   1.02241
 Alpha virt. eigenvalues --    1.02964   1.04267   1.04744   1.05055   1.06554
 Alpha virt. eigenvalues --    1.06941   1.07868   1.08103   1.08637   1.09458
 Alpha virt. eigenvalues --    1.09965   1.10707   1.12156   1.12463   1.13477
 Alpha virt. eigenvalues --    1.14606   1.14646   1.15508   1.15712   1.16998
 Alpha virt. eigenvalues --    1.17295   1.17301   1.17372   1.18307   1.18557
 Alpha virt. eigenvalues --    1.19941   1.20952   1.21356   1.21529   1.22347
 Alpha virt. eigenvalues --    1.23178   1.23408   1.24989   1.25583   1.25938
 Alpha virt. eigenvalues --    1.26304   1.27170   1.27350   1.27554   1.28086
 Alpha virt. eigenvalues --    1.28447   1.28785   1.29158   1.29822   1.29964
 Alpha virt. eigenvalues --    1.30870   1.31183   1.31870   1.31970   1.33737
 Alpha virt. eigenvalues --    1.34377   1.34428   1.35266   1.36460   1.36772
 Alpha virt. eigenvalues --    1.38463   1.39046   1.39654   1.41595   1.41808
 Alpha virt. eigenvalues --    1.42296   1.42494   1.43314   1.43567   1.45205
 Alpha virt. eigenvalues --    1.45787   1.47026   1.47854   1.48203   1.48317
 Alpha virt. eigenvalues --    1.49376   1.49897   1.50053   1.50818   1.51688
 Alpha virt. eigenvalues --    1.51871   1.52611   1.53547   1.54627   1.54680
 Alpha virt. eigenvalues --    1.55767   1.55932   1.56501   1.56567   1.58111
 Alpha virt. eigenvalues --    1.58320   1.58851   1.59241   1.60815   1.61219
 Alpha virt. eigenvalues --    1.61227   1.61412   1.62181   1.63041   1.63051
 Alpha virt. eigenvalues --    1.63500   1.64608   1.64876   1.65098   1.65702
 Alpha virt. eigenvalues --    1.66388   1.66817   1.67364   1.67931   1.68071
 Alpha virt. eigenvalues --    1.68464   1.68780   1.69129   1.70364   1.70395
 Alpha virt. eigenvalues --    1.71194   1.71809   1.72315   1.72806   1.73088
 Alpha virt. eigenvalues --    1.73930   1.74667   1.75222   1.75235   1.76023
 Alpha virt. eigenvalues --    1.76510   1.77141   1.77256   1.77742   1.78544
[...]
     6  C   -0.000003   0.000021  -0.000012   0.000026   0.000002   0.000001
     7  C    0.000107   0.000074  -0.000097  -0.000115   0.000747   0.000006
     8  C   -0.000540  -0.000428   0.000660  -0.000285   0.000486  -0.000002
     9  C    0.001382  -0.001137   0.002542  -0.001837   0.000303   0.000092
    10  C    0.004865   0.000633  -0.001243  -0.000939  -0.002510   0.000227
    11  H    0.001056   0.000897   0.000109   0.000249   0.000176  -0.000036
    12  C   -0.000009  -0.000173  -0.000016   0.000103  -0.000032  -0.000004
    13  C   -0.000003   0.000021  -0.000012   0.000026   0.000002   0.000001
    14  C    0.000003  -0.000015   0.000035  -0.000000   0.000019  -0.000001
    15  H    0.001056   0.000897   0.000109   0.000249   0.000176  -0.000036
    16  H    0.000000   0.000000  -0.000000  -0.000000  -0.000002  -0.000000
    17  H   -0.000000   0.000000  -0.000000  -0.000000  -0.000000   0.000000
    18  H   -0.000001  -0.000009   0.000004  -0.000000   0.000003   0.000000
    19  H   -0.000000   0.000000  -0.000000  -0.000000  -0.000000   0.000000
    20  N    0.009245   0.011894  -0.002983   0.005318   0.003093  -0.000689
    21  C   -0.065093  -0.059412  -0.049791   0.005862  -0.000173   0.016311
    22  C    0.319007  -0.077860   0.019144  -0.108006  -0.047753  -0.072251
    23  C   -0.057437   0.421867   0.433516   0.000346   0.000266  -0.000149
    24  C   -0.058578  -0.003804  -0.000102   0.556600   0.414558  -0.073159
    25  C    4.995343  -0.042011  -0.003385  -0.025061  -0.001016   0.492530
    26  C   -0.042011   5.031126  -0.043879  -0.000344  -0.000199   0.005431
    27  H   -0.003385  -0.043879   0.455548  -0.000006   0.000011  -0.000023
    28  C   -0.025061  -0.000344  -0.000006   4.957210  -0.008777  -0.053151
    29  H   -0.001016  -0.000199   0.000011  -0.008777   0.432477   0.000468
    30  C    0.492530   0.005431  -0.000023  -0.053151   0.000468   5.079287
    31  C    0.457772   0.521283   0.008827  -0.000550   0.000075  -0.105718
    32  H    0.007617   0.429742  -0.003899   0.000002  -0.000001  -0.000269
    33  C   -0.064359  -0.000410   0.000008   0.453273   0.002960   0.543439
    34  H    0.000499   0.000007  -0.000000   0.419088  -0.003934   0.004587
    35  H   -0.039842  -0.000769  -0.000001   0.004315   0.000038   0.412189
    36  H   -0.036429  -0.033928  -0.000122   0.000186   0.000008  -0.004990
    37  H    0.005663   0.000023   0.000000  -0.037052  -0.000175  -0.038468
    38  H    0.000000   0.000000  -0.000000  -0.000000  -0.000002  -0.000000
    39  H   -0.000001  -0.000009   0.000004  -0.000000   0.000003   0.000000
    40  C    0.000003   0.000005  -0.000000  -0.000003  -0.000008   0.000000
    41  H   -0.000001  -0.000003   0.000053  -0.000000  -0.000001  -0.000000
    42  H   -0.000000   0.000000  -0.000001   0.000000  -0.000001   0.000000
    43  H   -0.000000   0.000000  -0.000001   0.000000  -0.000001   0.000000
    44  C   -0.000012  -0.000002   0.000004   0.000074   0.000047   0.000000
    45  H    0.000000   0.000000   0.000000  -0.000001   0.000005  -0.000000
    46  H    0.000001   0.000000  -0.000001  -0.000002   0.000252   0.000000
    47  H    0.000000   0.000000   0.000000  -0.000001   0.000005  -0.000000
              31         32         33         34         35         36
     1  C   -0.000113  -0.000003  -0.000006  -0.000000  -0.000000  -0.000001
     2  C   -0.000470  -0.000004  -0.000250   0.000066  -0.000003  -0.000015
     3  C    0.000524  -0.000009  -0.000154   0.000084  -0.000001   0.000002
     4  C    0.000022   0.000001   0.000005   0.000012   0.000000   0.000001
     5  C    0.000003   0.000000   0.000002  -0.000002  -0.000000  -0.000000
     6  C    0.000002  -0.000000  -0.000000  -0.000001   0.000000   0.000000
     7  C   -0.000024  -0.000000  -0.000004   0.000007   0.000000   0.000000
     8  C    0.000022   0.000001   0.000005   0.000012   0.000000   0.000001
     9  C    0.000524  -0.000009  -0.000154   0.000084  -0.000001   0.000002
    10  C   -0.000470  -0.000004  -0.000250   0.000066  -0.000003  -0.000015
    11  H    0.000203   0.000003  -0.000049   0.000001   0.000002   0.000010
    12  C   -0.000113  -0.000003  -0.000006  -0.000000  -0.000000  -0.000001
    13  C    0.000002  -0.000000  -0.000000  -0.000001   0.000000   0.000000
    14  C    0.000003   0.000000   0.000002  -0.000002  -0.000000  -0.000000
    15  H    0.000203   0.000003  -0.000049   0.000001   0.000002   0.000010
    16  H    0.000000  -0.000000  -0.000000  -0.000000  -0.000000  -0.000000
    17  H   -0.000000   0.000000   0.000000   0.000000   0.000000   0.000000
    18  H   -0.000003   0.000000   0.000000  -0.000000  -0.000000  -0.000000
    19  H   -0.000000   0.000000   0.000000   0.000000   0.000000   0.000000
    20  N    0.001682  -0.000397   0.000197  -0.000053   0.000006   0.000019
    21  C   -0.114798   0.011146  -0.003582  -0.000467  -0.000264  -0.000734
    22  C   -0.001662  -0.002654  -0.047383   0.009128   0.021429   0.017773
    23  C   -0.043398  -0.039646   0.000176  -0.000011   0.000300   0.004648
    24  C    0.017875   0.000081  -0.038201  -0.034998  -0.001569  -0.000338
    25  C    0.457772   0.007617  -0.064359   0.000499  -0.039842  -0.036429
    26  C    0.521283   0.429742  -0.000410   0.000007  -0.000769  -0.033928
    27  H    0.008827  -0.003899   0.000008  -0.000000  -0.000001  -0.000122
    28  C   -0.000550   0.000002   0.453273   0.419088   0.004315   0.000186
    29  H    0.000075  -0.000001   0.002960  -0.003934   0.000038   0.000008
    30  C   -0.105718  -0.000269   0.543439   0.004587   0.412189  -0.004990
    31  C    5.106709  -0.043469   0.006968   0.000010  -0.006453   0.410178
    32  H   -0.043469   0.461770   0.000010   0.000000  -0.000021  -0.003977
    33  C    0.006968   0.000010   4.979754  -0.037457  -0.034806  -0.000585
    34  H    0.000010   0.000000  -0.037457   0.461230  -0.000191  -0.000003
    35  H   -0.006453  -0.000021  -0.034806  -0.000191   0.466271   0.005652
    36  H    0.410178  -0.003977  -0.000585  -0.000003   0.005652   0.464125
    37  H   -0.000359  -0.000000   0.425715  -0.003174  -0.003948  -0.000029
    38  H    0.000000  -0.000000  -0.000000  -0.000000  -0.000000  -0.000000
    39  H   -0.000003   0.000000   0.000000  -0.000000  -0.000000  -0.000000
    40  C    0.000000  -0.000000  -0.000000   0.000000  -0.000000  -0.000000
    41  H    0.000001  -0.000000   0.000000  -0.000000   0.000000   0.000000
    42  H   -0.000000   0.000000  -0.000000  -0.000000   0.000000  -0.000000
    43  H   -0.000000   0.000000  -0.000000  -0.000000   0.000000  -0.000000
    44  C    0.000001   0.000000  -0.000000  -0.000001   0.000000   0.000000
    45  H   -0.000000  -0.000000   0.000000  -0.000000  -0.000000  -0.000000
    46  H   -0.000000  -0.000000  -0.000001   0.000004   0.000000   0.000000
    47  H   -0.000000  -0.000000   0.000000  -0.000000  -0.000000  -0.000000
              37         38         39         40         41         42
     1  C   -0.000000   0.000000   0.418930  -0.001187  -0.000161   0.000024
     2  C   -0.000001   0.000006  -0.034587   0.002326   0.000220   0.000083
     3  C   -0.000000   0.000173   0.007995  -0.000790   0.000752   0.001592
     4  C   -0.000000  -0.000154  -0.000421  -0.089123  -0.011531  -0.022803
     5  C    0.000000  -0.000008   0.006567  -0.033080  -0.002686  -0.001002
     6  C   -0.000000   0.000001  -0.037873   0.003707   0.000225  -0.000214
     7  C   -0.000000   0.011943  -0.000014   0.346191  -0.022171  -0.035296
     8  C   -0.000000  -0.060784  -0.000013  -0.089127  -0.011531   0.025527
     9  C   -0.000000   0.010200   0.000034  -0.000790   0.000752  -0.000280
    10  C   -0.000001  -0.000755  -0.000000   0.002325   0.000220  -0.000074
    11  H   -0.000001   0.000023  -0.000000   0.000041   0.000005  -0.000001
    12  C   -0.000000   0.003789  -0.000000  -0.001187  -0.000161   0.000018
    13  C   -0.000000  -0.012081   0.000000   0.003707   0.000225  -0.000079
    14  C    0.000000   0.414271  -0.000000  -0.033079  -0.002687   0.001342
    15  H   -0.000001  -0.000000  -0.003758   0.000041   0.000005  -0.000000
    16  H    0.000000   0.000001  -0.000210  -0.005610   0.000212  -0.000505
    17  H    0.000000  -0.000000  -0.003543   0.000033   0.000003   0.000014
    18  H   -0.000000  -0.000210  -0.000000  -0.000003  -0.000001   0.000000
    19  H    0.000000  -0.003073   0.000000   0.000033   0.000003  -0.000002
    20  N   -0.000001  -0.000161  -0.000215  -0.001784  -0.000099   0.000045
    21  C    0.000123   0.000032   0.000263  -0.001176  -0.000016   0.000031
    22  C   -0.000758  -0.000000   0.000022   0.000228   0.000023  -0.000004
    23  C   -0.000006  -0.000002   0.000014   0.000016  -0.000003   0.000000
    24  C    0.006199  -0.000001   0.000048  -0.000140   0.000001   0.000002
    25  C    0.005663   0.000000  -0.000001   0.000003  -0.000001  -0.000000
    26  C    0.000023   0.000000  -0.000009   0.000005  -0.000003   0.000000
    27  H    0.000000  -0.000000   0.000004  -0.000000   0.000053  -0.000001
    28  C   -0.037052  -0.000000  -0.000000  -0.000003  -0.000000   0.000000
    29  H   -0.000175  -0.000002   0.000003  -0.000008  -0.000001  -0.000001
    30  C   -0.038468  -0.000000   0.000000   0.000000  -0.000000   0.000000
    31  C   -0.000359   0.000000  -0.000003   0.000000   0.000001  -0.000000
    32  H   -0.000000  -0.000000   0.000000  -0.000000  -0.000000   0.000000
    33  C    0.425715  -0.000000   0.000000  -0.000000   0.000000  -0.000000
    34  H   -0.003174  -0.000000  -0.000000   0.000000  -0.000000  -0.000000
    35  H   -0.003948  -0.000000  -0.000000  -0.000000   0.000000   0.000000
    36  H   -0.000029  -0.000000  -0.000000  -0.000000   0.000000  -0.000000
    37  H    0.462524   0.000000  -0.000000   0.000000   0.000000  -0.000000
    38  H    0.000000   0.448754  -0.000000  -0.005610   0.000212   0.000114
    39  H   -0.000000  -0.000000   0.465747  -0.000003  -0.000001  -0.000000
    40  C    0.000000  -0.005610  -0.000003   5.253269   0.409803   0.414140
    41  H    0.000000   0.000212  -0.000001   0.409803   0.497301  -0.022256
    42  H   -0.000000   0.000114  -0.000000   0.414140  -0.022256   0.500247
    43  H   -0.000000  -0.000505   0.000000   0.414143  -0.022256  -0.023024
    44  C   -0.000000  -0.006586  -0.000002  -0.114984   0.013203  -0.009130
    45  H    0.000000   0.000165  -0.000001  -0.008491  -0.000171   0.000755
    46  H   -0.000000   0.000242  -0.000002   0.013556  -0.000366  -0.000160
    47  H    0.000000  -0.000596   0.000000  -0.008491  -0.000171   0.000093
              43         44         45         46         47
     1  C    0.000018  -0.000755  -0.000101  -0.000215   0.000026
     2  C   -0.000074   0.000533   0.000249   0.000446  -0.000075
     3  C   -0.000280  -0.009614   0.000485   0.001317   0.000111
     4  C    0.025527  -0.052581  -0.027516  -0.009622   0.024091
     5  C    0.001342  -0.025080  -0.000589  -0.004113   0.001244
     6  C   -0.000079   0.003630   0.000437   0.000249  -0.000108
     7  C   -0.035299   0.276355  -0.029530  -0.023474  -0.029532
     8  C   -0.022803  -0.052572   0.024090  -0.009622  -0.027512
     9  C    0.001592  -0.009615   0.000111   0.001317   0.000484
    10  C    0.000083   0.000533  -0.000075   0.000446   0.000249
    11  H   -0.000000   0.000025  -0.000001   0.000007   0.000000
    12  C    0.000024  -0.000755   0.000026  -0.000215  -0.000101
    13  C   -0.000214   0.003630  -0.000108   0.000249   0.000436
    14  C   -0.001001  -0.025076   0.001243  -0.004113  -0.000588
    15  H   -0.000001   0.000025   0.000000   0.000007  -0.000001
    16  H    0.000114  -0.006587  -0.000596   0.000242   0.000165
    17  H   -0.000002   0.000027   0.000023   0.000005  -0.000002
    18  H   -0.000000  -0.000002   0.000000  -0.000002  -0.000001
    19  H    0.000014   0.000027  -0.000002   0.000005   0.000023
    20  N    0.000045   0.004100  -0.000067  -0.000491  -0.000067
    21  C    0.000031   0.000833  -0.000003  -0.000056  -0.000003
    22  C   -0.000004  -0.000535   0.000008   0.000024   0.000008
    23  C    0.000000  -0.000005  -0.000001   0.000003  -0.000001
    24  C    0.000002   0.000242  -0.000008   0.000053  -0.000008
    25  C   -0.000000  -0.000012   0.000000   0.000001   0.000000
    26  C    0.000000  -0.000002   0.000000   0.000000   0.000000
    27  H   -0.000001   0.000004   0.000000  -0.000001   0.000000
    28  C    0.000000   0.000074  -0.000001  -0.000002  -0.000001
    29  H   -0.000001   0.000047   0.000005   0.000252   0.000005
    30  C    0.000000   0.000000  -0.000000   0.000000  -0.000000
    31  C   -0.000000   0.000001  -0.000000  -0.000000  -0.000000
    32  H    0.000000   0.000000  -0.000000  -0.000000  -0.000000
    33  C   -0.000000  -0.000000   0.000000  -0.000001   0.000000
    34  H   -0.000000  -0.000001  -0.000000   0.000004  -0.000000
    35  H    0.000000   0.000000  -0.000000   0.000000  -0.000000
    36  H   -0.000000   0.000000  -0.000000   0.000000  -0.000000
    37  H   -0.000000  -0.000000   0.000000  -0.000000   0.000000
    38  H   -0.000505  -0.006586   0.000165   0.000242  -0.000596
    39  H    0.000000  -0.000002  -0.000001  -0.000002   0.000000
    40  C    0.414143  -0.114984  -0.008491   0.013556  -0.008491
    41  H   -0.022256   0.013203  -0.000171  -0.000366  -0.000171
    42  H   -0.023024  -0.009130   0.000755  -0.000160   0.000093
    43  H    0.500247  -0.009130   0.000093  -0.000160   0.000755
    44  C   -0.009130   5.257176   0.414615   0.408821   0.414613
    45  H    0.000093   0.414615   0.498721  -0.022261  -0.022971
    46  H   -0.000160   0.408821  -0.022261   0.498470  -0.022261
    47  H    0.000755   0.414613  -0.022971  -0.022261   0.498719
 Mulliken charges:
               1
     1  C   -0.192671
     2  C   -0.213287
     3  C    0.113077
     4  C   -0.041207
     5  C   -0.229018
     6  C   -0.245137
     7  C   -0.034477
     8  C   -0.041217
     9  C    0.113078
    10  C   -0.213289
    11  H    0.201925
    12  C   -0.192671
    13  C   -0.245133
    14  C   -0.229013
    15  H    0.201924
    16  H    0.200602
    17  H    0.178585
    18  H    0.181029
    19  H    0.178585
    20  N   -0.051927
    21  C   -0.013239
    22  C    0.056084
    23  C   -0.128177
    24  C   -0.286855
    25  C    0.091931
    26  C   -0.158412
    27  H    0.183025
    28  C   -0.163838
    29  H    0.210141
    30  C   -0.205932
    31  C   -0.215287
    32  H    0.183988
    33  C   -0.184806
    34  H    0.185407
    35  H    0.177669
    36  H    0.178551
    37  H    0.183728
    38  H    0.200602
    39  H    0.181029
    40  C   -0.468902
    41  H    0.173054
    42  H    0.170805
    43  H    0.170805
    44  C   -0.475487
    45  H    0.171468
    46  H    0.171421
    47  H    0.171469
 Sum of Mulliken charges =  -0.00000
 Mulliken charges with hydrogens summed into heavy atoms:
               1
     1  C   -0.011642
     2  C   -0.011363
     3  C    0.113077
     4  C   -0.041207
     5  C   -0.028416
     6  C   -0.066552
     7  C   -0.034477
     8  C   -0.041217
     9  C    0.113078
    10  C   -0.011364
    12  C   -0.011642
    13  C   -0.066548
    14  C   -0.028411
    20  N   -0.051927
    21  C   -0.013239
    22  C    0.056084
    23  C    0.054847
    24  C   -0.076714
    25  C    0.091931
    26  C    0.025576
    28  C    0.021568
    30  C   -0.028263
    31  C   -0.036735
    33  C   -0.001078
    40  C    0.045762
    44  C    0.038871
 Electronic spatial extent (au):  <R**2>=           7987.6180
 Charge=             -0.0000 electrons
 Dipole moment (field-independent basis, Debye):
    X=              1.1680    Y=              0.0000    Z=             -0.1155  Tot=              1.1737
 Quadrupole moment (field-independent basis, Debye-Ang):
   XX=           -125.9714   YY=           -151.2817   ZZ=           -146.2823
   XY=             -0.0000   XZ=             -5.1756   YZ=             -0.0001
 Traceless Quadrupole moment (field-independent basis, Debye-Ang):
   XX=             15.2070   YY=            -10.1032   ZZ=             -5.1038
   XY=             -0.0000   XZ=             -5.1756   YZ=             -0.0001
 Octapole moment (field-independent basis, Debye-Ang**2):
  XXX=             42.2132  YYY=              0.0006  ZZZ=              0.6024  XYY=            -26.4804
  XXY=             -0.0001  XXZ=             12.8828  XZZ=             42.9275  YZZ=             -0.0001
  YYZ=             -0.3793  XYZ=              0.0003
 Hexadecapole moment (field-independent basis, Debye-Ang**3):
 XXXX=          -5705.7098 YYYY=          -2947.8302 ZZZZ=          -1324.4514 XXXY=             -0.0007
 XXXZ=            -48.4567 YYYX=              0.0012 YYYZ=             -0.0016 ZZZX=             16.7138
 ZZZY=              0.0003 XXYY=          -1617.8525 XXZZ=          -1229.2200 YYZZ=           -892.7332
 XXYZ=             -0.0003 YYXZ=            -48.0532 ZZXY=             -0.0007
 N-N= 2.238807501694D+03 E-N=-6.844279170844D+03  KE= 1.014909303074D+03
 Leave Link  601 at Tue Feb 23 01:43:22 2021, MaxMem=  5242880000 cpu:         6.7
 (Enter /opt/nce/packages/global/g09/l9999.exe)
 1\1\GINC-CN079\SP\RM062X TD-FC\Gen\C25H21N1\PNG4RJV\23-Feb-2021\0\\#p 
 m062x chkbasis geom=allcheck Guess=Read int=ultrafine scrf=(SMD,solven
 t=n,n-DiMethylFormamide) td=(NStates=30)\\Title\\0,1\C,0,-0.6716774594
 ,-3.6413833365,-0.2748737521\C,0,-0.0486701132,-2.4207839056,-0.461420
 9759\C,0,-0.758944803,-1.2196528089,-0.3138572619\C,0,-2.1159008831,-1
 .2582943814,0.0369928674\C,0,-2.7145345133,-2.504868929,0.2115195798\C
 ,0,-2.0173387155,-3.6931130167,0.0612854189\C,0,-2.9549839102,0.000223
 117,0.2225828209\C,0,-2.1157232324,1.2585961714,0.0367839835\C,0,-0.75
 87753802,1.219703646,-0.3140700559\C,0,-0.0483334226,2.420708123,-0.46
 18605693\H,0,0.9989732853,2.3971658081,-0.7283872012\C,0,-0.6711686795
 ,3.6414290742,-0.2755355215\C,0,-2.0168210361,3.6934073413,0.060619223
 1\C,0,-2.7141822582,2.5052885649,0.2110765562\H,0,0.9986427715,-2.3974
 384742,-0.7279392459\H,0,-3.7651411093,-2.546637536,0.4722376351\H,0,-
 2.517490395,-4.6419676501,0.2050904163\H,0,-0.0982153269,4.552406014,-
 0.3965218101\H,0,-2.5168414633,4.6423577952,0.2042484857\N,0,-0.108200
 9625,-0.0000376539,-0.5183228159\C,0,1.2840913669,-0.0001596539,-0.840
 2272586\C,0,2.2398192212,-0.0001240937,0.2132315294\C,0,1.6810936837,-
 0.000304219,-2.1467385368\C,0,1.8622561821,0.0000241084,1.5787998159\C
 ,0,3.6181167429,-0.0002400357,-0.1249880176\C,0,3.0543646821,-0.000422
 6703,-2.4772406922\H,0,0.9301803164,-0.0003279868,-2.9277060467\C,0,2.
 8157550934,0.0000555353,2.5594335467\H,0,0.8097622884,0.0001124069,1.8
 364004546\C,0,4.5797839375,-0.0002026283,0.9160380091\C,0,3.9990950507
 ,-0.0003905035,-1.4904079683\H,0,3.3493686344,-0.0005377609,-3.5186540
 318\C,0,4.1891188525,-0.0000586801,2.2258583356\H,0,2.5203818045,0.000
 169022,3.601100659\H,0,5.6305978418,-0.000291052,0.650757568\H,0,5.054
 9700331,-0.0004796198,-1.7345446179\H,0,4.9300338906,-0.0000310243,3.0
 154136155\H,0,-3.7647838225,2.5472570472,0.4717811061\H,0,-0.098849404
 2,-4.5524624013,-0.3956844049\C,0,-4.0982019544,0.0002165049,-0.807796
 8574\H,0,-3.7009857485,0.000116688,-1.8247162414\H,0,-4.7273871693,-0.
 8823200837,-0.6826070742\H,0,-4.7272778139,0.8828491438,-0.6827381318\
 C,0,-3.5575665823,0.0003650495,1.6391852078\H,0,-4.182151653,-0.880126
 4053,1.7938598558\H,0,-2.7676272766,0.0004040103,2.3929734991\H,0,-4.1
 820975906,0.8809193396,1.7937108997\\Version=ES64L-G09RevE.01\State=1-
 A\HF=-1020.0469255\RMSD=9.085e-09\PG=C01 [X(C25H21N1)]\\@


 Experience is what you get when you don't get what you want.
 -- Dan Stanford
 Job cpu time:       2 days  7 hours 54 minutes 18.0 seconds.
 File lengths (MBytes):  RWF=   4249 Int=      0 D2E=      0 Chk=    774 Scr=      1
 Normal termination of Gaussian 09 at Tue Feb 23 01:43:23 2021.
