
                                 *****************
                                 * O   R   C   A *
                                 *****************

                                            #,                                       
                                            ###                                      
                                            ####                                     
                                            #####                                    
                                            ######                                   
                                           ########,                                 
                                     ,,################,,,,,                         
                               ,,#################################,,                 
                          ,,##########################################,,             
                       ,#########################################, ''#####,          
                    ,#############################################,,   '####,        
                  ,##################################################,,,,####,       
                ,###########''''           ''''###############################       
              ,#####''   ,,,,##########,,,,          '''####'''          '####       
            ,##' ,,,,###########################,,,                        '##       
           ' ,,###''''                  '''############,,,                           
         ,,##''                                '''############,,,,        ,,,,,,###''
      ,#''                                            '''#######################'''  
     '                                                          ''''####''''         
             ,#######,   #######,   ,#######,      ##                                
            ,#'     '#,  ##    ##  ,#'     '#,    #''#        ######   ,####,        
            ##       ##  ##   ,#'  ##            #'  '#       #        #'  '#        
            ##       ##  #######   ##           ,######,      #####,   #    #        
            '#,     ,#'  ##    ##  '#,     ,#' ,#      #,         ##   #,  ,#        
             '#######'   ##     ##  '#######'  #'      '#     #####' # '####'        



                  #######################################################
                  #                        -***-                        #
                  #          Department of theory and spectroscopy      #
                  #    Directorship and core code : Frank Neese         #
                  #        Max Planck Institute fuer Kohlenforschung    #
                  #                Kaiser Wilhelm Platz 1               #
                  #                 D-45470 Muelheim/Ruhr               #
                  #                      Germany                        #
                  #                                                     #
                  #                  All rights reserved                #
                  #                        -***-                        #
                  #######################################################


                         Program Version 5.0.2 -  RELEASE  -


 With contributions from (in alphabetic order):
   Daniel Aravena         : Magnetic Suceptibility
   Michael Atanasov       : Ab Initio Ligand Field Theory (pilot matlab implementation)
   Alexander A. Auer      : GIAO ZORA, VPT2 properties, NMR spectrum
   Ute Becker             : Parallelization
   Giovanni Bistoni       : ED, misc. LED, open-shell LED, HFLD
   Martin Brehm           : Molecular dynamics
   Dmytro Bykov           : SCF Hessian
   Vijay G. Chilkuri      : MRCI spin determinant printing, contributions to CSF-ICE
   Dipayan Datta          : RHF DLPNO-CCSD density
   Achintya Kumar Dutta   : EOM-CC, STEOM-CC
   Dmitry Ganyushin       : Spin-Orbit,Spin-Spin,Magnetic field MRCI
   Miquel Garcia          : C-PCM and meta-GGA Hessian, CC/C-PCM, Gaussian charge scheme
   Yang Guo               : DLPNO-NEVPT2, F12-NEVPT2, CIM, IAO-localization
   Andreas Hansen         : Spin unrestricted coupled pair/coupled cluster methods
   Benjamin Helmich-Paris : MC-RPA, TRAH-SCF, COSX integrals
   Lee Huntington         : MR-EOM, pCC
   Robert Izsak           : Overlap fitted RIJCOSX, COSX-SCS-MP3, EOM
   Marcus Kettner         : VPT2
   Christian Kollmar      : KDIIS, OOCD, Brueckner-CCSD(T), CCSD density, CASPT2, CASPT2-K
   Simone Kossmann        : Meta GGA functionals, TD-DFT gradient, OOMP2, MP2 Hessian
   Martin Krupicka        : Initial AUTO-CI
   Lucas Lang             : DCDCAS
   Marvin Lechner         : AUTO-CI (C++ implementation), FIC-MRCC
   Dagmar Lenk            : GEPOL surface, SMD
   Dimitrios Liakos       : Extrapolation schemes; Compound Job, initial MDCI parallelization
   Dimitrios Manganas     : Further ROCIS development; embedding schemes
   Dimitrios Pantazis     : SARC Basis sets
   Anastasios Papadopoulos: AUTO-CI, single reference methods and gradients
   Taras Petrenko         : DFT Hessian,TD-DFT gradient, ASA, ECA, R-Raman, ABS, FL, XAS/XES, NRVS
   Peter Pinski           : DLPNO-MP2, DLPNO-MP2 Gradient
   Christoph Reimann      : Effective Core Potentials
   Marius Retegan         : Local ZFS, SOC
   Christoph Riplinger    : Optimizer, TS searches, QM/MM, DLPNO-CCSD(T), (RO)-DLPNO pert. Triples
   Tobias Risthaus        : Range-separated hybrids, TD-DFT gradient, RPA, STAB
   Michael Roemelt        : Original ROCIS implementation
   Masaaki Saitow         : Open-shell DLPNO-CCSD energy and density
   Barbara Sandhoefer     : DKH picture change effects
   Avijit Sen             : IP-ROCIS
   Kantharuban Sivalingam : CASSCF convergence, NEVPT2, FIC-MRCI
   Bernardo de Souza      : ESD, SOC TD-DFT
   Georgi Stoychev        : AutoAux, RI-MP2 NMR, DLPNO-MP2 response
   Willem Van den Heuvel  : Paramagnetic NMR
   Boris Wezisla          : Elementary symmetry handling
   Frank Wennmohs         : Technical directorship


 We gratefully acknowledge several colleagues who have allowed us to
 interface, adapt or use parts of their codes:
   Stefan Grimme, W. Hujo, H. Kruse, P. Pracht,  : VdW corrections, initial TS optimization,
                  C. Bannwarth, S. Ehlert          DFT functionals, gCP, sTDA/sTD-DF
   Ed Valeev, F. Pavosevic, A. Kumar             : LibInt (2-el integral package), F12 methods
   Garnet Chan, S. Sharma, J. Yang, R. Olivares  : DMRG
   Ulf Ekstrom                                   : XCFun DFT Library
   Mihaly Kallay                                 : mrcc  (arbitrary order and MRCC methods)
   Jiri Pittner, Ondrej Demel                    : Mk-CCSD
   Frank Weinhold                                : gennbo (NPA and NBO analysis)
   Christopher J. Cramer and Donald G. Truhlar   : smd solvation model
   Lars Goerigk                                  : TD-DFT with DH, B97 family of functionals
   V. Asgeirsson, H. Jonsson                     : NEB implementation
   FAccTs GmbH                                   : IRC, NEB, NEB-TS, DLPNO-Multilevel, CI-OPT
                                                   MM, QMMM, 2- and 3-layer-ONIOM, Crystal-QMMM,
                                                   LR-CPCM, SF, NACMEs, symmetry and pop. for TD-DFT,
                                                   nearIR, NL-DFT gradient (VV10), updates on ESD,
                                                   ML-optimized integration grids
   S Lehtola, MJT Oliveira, MAL Marques          : LibXC Library
   Liviu Ungur et al                             : ANISO software


 Your calculation uses the libint2 library for the computation of 2-el integrals
 For citations please refer to: http://libint.valeyev.net

 Your ORCA version has been built with support for libXC version: 5.1.0
 For citations please refer to: https://tddft.org/programs/libxc/

 This ORCA versions uses:
   CBLAS   interface :  Fast vector & matrix operations
   LAPACKE interface :  Fast linear algebra routines
   SCALAPACK package :  Parallel linear algebra routines
   Shared memory     :  Shared parallel matrices
   BLAS/LAPACK       :  OpenBLAS 0.3.15  USE64BITINT DYNAMIC_ARCH NO_AFFINITY Prescott SINGLE_THREADED
        Core in use  :  Prescott
   Copyright (c) 2011-2014, The OpenBLAS Project


Your calculation utilizes the SMD solvation module
Please cite in your paper:
A.V. Marenich, C.J. Cramer, D.G. Truhlar J. Phys. Chem. B, 113, (2009), 6378 

================================================================================

----- Orbital basis set information -----
Your calculation utilizes the basis: def2-TZVP
   F. Weigend and R. Ahlrichs, Phys. Chem. Chem. Phys. 7, 3297 (2005).

----- AuxJ basis set information -----
Your calculation utilizes the auxiliary basis: def2/J
   F. Weigend, Phys. Chem. Chem. Phys. 8, 1057 (2006).

----- AuxC basis set information -----
Your calculation utilizes the auxiliary basis: def2-TZVP/C
  H-La, Hf-Rn : A. Hellweg, C. Hattig, S. Hofener and W. Klopper, Theor. Chem. Acc. 117, 587 (2007).
        Ce-Lu : J. Chmela and M. E. Harding, Mol. Phys. (2018).

================================================================================
                                        WARNINGS
                       Please study these warnings very carefully!
================================================================================

INFO   : Checking CIS options ...
  ===> : (D) CORRECTION FOUND - SETTING MODE=3
  ===> : JK MODE FOUND - ACTIVATING RI-MP2 CODE
  ===> : MP2 AND CIS FOUND - CHECKING
WARNING: CIS(D) and MP2 runs must have the same orbital window
  ===> : adjusting orbital windows

WARNING: No MP2 level density has been requested!
         To caclulate MP2 level properties use
         %mp2 Density relaxed end
         or
         %mp2 Density unrelaxed end
         Otherwise for double-hybrid DFT only the energy is correct!

WARNING: The frozen-core approximation is turned on by default for 
         the MP2 part of double-hybrid DFT.

WARNING: CIS/ROCIS methods need fully converged wavefunctions
  ===> : Setting SCFConvForced true
         You can overwrite this default with %scf ConvForced false 


INFO   : the flag for use of the SHARK integral package has been found!

================================================================================
                                       INPUT FILE
================================================================================
NAME = Me2-Acr_1_M06L_def2TZVP_coords.inp
|  1> %maxcore 20000
|  2> %pal
|  3>  nprocs= 4
|  4> end
|  5> ! RI-B2GP-PLYP   def2-TZVP def2/J def2-TZVP/C RIJCOSX CPCM TightSCF
|  6> %TDDFT  
|  7>    NROOTS   30
|  8>    dcorr 4
|  9>    TDA      FALSE
| 10> END
| 11> 
| 12> %CPCM
| 13>    SMD          TRUE
| 14>    SMDsolvent   "N,N-DIMETHYLFORMAMIDE"
| 15> END
| 16>    
| 17> 
| 18> * xyz 0 1
| 19> C                  -0.68772600   -3.64018700   -0.29792100
| 20> C                  -0.05985600   -2.42065700   -0.46439600
| 21> C                  -0.76280300   -1.21840200   -0.29972400
| 22> C                  -2.12197800   -1.25661500    0.04491300
| 23> C                  -2.72334300   -2.50211200    0.20230500
| 24> C                  -2.03232400   -3.69111800    0.03669800
| 25> C                  -2.95150100    0.00002700    0.25573900
| 26> C                  -2.12194400    1.25664400    0.04490400
| 27> C                  -0.76277500    1.21839100   -0.29974600
| 28> C                  -0.05979900    2.42062600   -0.46445200
| 29> H                   0.98853900    2.39418000   -0.72769700
| 30> C                  -0.68763400    3.64017500   -0.29798200
| 31> C                  -2.03222300    3.69114500    0.03667100
| 32> C                  -2.72327100    2.50215900    0.20230200
| 33> H                   0.98848800   -2.39424400   -0.72762000
| 34> H                  -3.77400100   -2.53816500    0.46614800
| 35> H                  -2.53643000   -4.63960100    0.16839000
| 36> H                  -0.11838100    4.55160600   -0.43221300
| 37> H                  -2.53629900    4.63964300    0.16836700
| 38> N                  -0.10559900   -0.00001400   -0.47542200
| 39> C                   1.28388500   -0.00002800   -0.81346900
| 40> C                   2.25084800   -0.00001600    0.22320200
| 41> C                   1.66241000   -0.00004700   -2.13014900
| 42> C                   1.90300100   -0.00000100    1.59151800
| 43> C                   3.63127600   -0.00001700   -0.14019800
| 44> C                   3.02280300   -0.00005300   -2.48019000
| 45> H                   0.89863100   -0.00005700   -2.89816200
| 46> C                   2.87379700    0.00001300    2.55784500
| 47> H                   0.85552600   -0.00000100    1.86857700
| 48> C                   4.60314900   -0.00000000    0.88437900
| 49> C                   3.98496300   -0.00003600   -1.50674700
| 50> H                   3.30290900   -0.00006900   -3.52569400
| 51> C                   4.23490800    0.00001400    2.20271100
| 52> H                   2.59410200    0.00002400    3.60380800
| 53> H                   5.64980500   -0.00000000    0.60349100
| 54> H                   5.03613600   -0.00003800   -1.76975100
| 55> H                   4.99056900    0.00002600    2.97810500
| 56> H                  -3.77392100    2.53824600    0.46617000
| 57> H                  -0.11849300   -4.55163500   -0.43212500
| 58> C                  -4.13028600    0.00004000   -0.72900200
| 59> H                  -3.78089100    0.00003500   -1.76199700
| 60> H                  -4.75878500   -0.87895200   -0.58567700
| 61> H                  -4.75876600    0.87904700   -0.58567900
| 62> C                  -3.50470800    0.00004200    1.68925000
| 63> H                  -4.12321100   -0.87935000    1.86946000
| 64> H                  -2.69638900    0.00001900    2.42182100
| 65> H                  -4.12316100    0.87947000    1.86945900
| 66> *
| 67> 
| 68> 
| 69>                          ****END OF INPUT****
================================================================================

                       ****************************
                       * Single Point Calculation *
                       ****************************

---------------------------------
CARTESIAN COORDINATES (ANGSTROEM)
---------------------------------
  C     -0.687726   -3.640187   -0.297921
  C     -0.059856   -2.420657   -0.464396
  C     -0.762803   -1.218402   -0.299724
  C     -2.121978   -1.256615    0.044913
  C     -2.723343   -2.502112    0.202305
  C     -2.032324   -3.691118    0.036698
  C     -2.951501    0.000027    0.255739
  C     -2.121944    1.256644    0.044904
  C     -0.762775    1.218391   -0.299746
  C     -0.059799    2.420626   -0.464452
  H      0.988539    2.394180   -0.727697
  C     -0.687634    3.640175   -0.297982
  C     -2.032223    3.691145    0.036671
  C     -2.723271    2.502159    0.202302
  H      0.988488   -2.394244   -0.727620
  H     -3.774001   -2.538165    0.466148
  H     -2.536430   -4.639601    0.168390
  H     -0.118381    4.551606   -0.432213
  H     -2.536299    4.639643    0.168367
  N     -0.105599   -0.000014   -0.475422
  C      1.283885   -0.000028   -0.813469
  C      2.250848   -0.000016    0.223202
  C      1.662410   -0.000047   -2.130149
  C      1.903001   -0.000001    1.591518
  C      3.631276   -0.000017   -0.140198
  C      3.022803   -0.000053   -2.480190
  H      0.898631   -0.000057   -2.898162
  C      2.873797    0.000013    2.557845
  H      0.855526   -0.000001    1.868577
  C      4.603149   -0.000000    0.884379
  C      3.984963   -0.000036   -1.506747
  H      3.302909   -0.000069   -3.525694
  C      4.234908    0.000014    2.202711
  H      2.594102    0.000024    3.603808
  H      5.649805   -0.000000    0.603491
  H      5.036136   -0.000038   -1.769751
  H      4.990569    0.000026    2.978105
  H     -3.773921    2.538246    0.466170
  H     -0.118493   -4.551635   -0.432125
  C     -4.130286    0.000040   -0.729002
  H     -3.780891    0.000035   -1.761997
  H     -4.758785   -0.878952   -0.585677
  H     -4.758766    0.879047   -0.585679
  C     -3.504708    0.000042    1.689250
  H     -4.123211   -0.879350    1.869460
  H     -2.696389    0.000019    2.421821
  H     -4.123161    0.879470    1.869459

----------------------------
CARTESIAN COORDINATES (A.U.)
----------------------------
  NO LB      ZA    FRAG     MASS         X           Y           Z
   0 C     6.0000    0    12.011   -1.299614   -6.878957   -0.562989
   1 C     6.0000    0    12.011   -0.113111   -4.574379   -0.877581
   2 C     6.0000    0    12.011   -1.441489   -2.302446   -0.566396
   3 C     6.0000    0    12.011   -4.009957   -2.374658    0.084873
   4 C     6.0000    0    12.011   -5.146372   -4.728306    0.382301
   5 C     6.0000    0    12.011   -3.840536   -6.975202    0.069349
   6 C     6.0000    0    12.011   -5.577529    0.000051    0.483277
   7 C     6.0000    0    12.011   -4.009893    2.374713    0.084856
   8 C     6.0000    0    12.011   -1.441436    2.302425   -0.566438
   9 C     6.0000    0    12.011   -0.113004    4.574320   -0.877687
  10 H     1.0000    0     1.008    1.868068    4.524345   -1.375148
  11 C     6.0000    0    12.011   -1.299440    6.878934   -0.563104
  12 C     6.0000    0    12.011   -3.840345    6.975253    0.069298
  13 C     6.0000    0    12.011   -5.146236    4.728395    0.382295
  14 H     1.0000    0     1.008    1.867972   -4.524465   -1.375003
  15 H     1.0000    0     1.008   -7.131828   -4.796437    0.880892
  16 H     1.0000    0     1.008   -4.793158   -8.767575    0.318211
  17 H     1.0000    0     1.008   -0.223708    8.601289   -0.816764
  18 H     1.0000    0     1.008   -4.792911    8.767655    0.318168
  19 N     7.0000    0    14.007   -0.199553   -0.000026   -0.898417
  20 C     6.0000    0    12.011    2.426191   -0.000053   -1.537234
  21 C     6.0000    0    12.011    4.253486   -0.000030    0.421791
  22 C     6.0000    0    12.011    3.141500   -0.000089   -4.025398
  23 C     6.0000    0    12.011    3.596151   -0.000002    3.007533
  24 C     6.0000    0    12.011    6.862117   -0.000032   -0.264936
  25 C     6.0000    0    12.011    5.712270   -0.000100   -4.686880
  26 H     1.0000    0     1.008    1.698166   -0.000108   -5.476732
  27 C     6.0000    0    12.011    5.430689    0.000025    4.833627
  28 H     1.0000    0     1.008    1.616710   -0.000002    3.531099
  29 C     6.0000    0    12.011    8.698691   -0.000000    1.671234
  30 C     6.0000    0    12.011    7.530489   -0.000068   -2.847339
  31 H     1.0000    0     1.008    6.241593   -0.000130   -6.662596
  32 C     6.0000    0    12.011    8.002816    0.000026    4.162521
  33 H     1.0000    0     1.008    4.902142    0.000045    6.810210
  34 H     1.0000    0     1.008   10.676584   -0.000000    1.140433
  35 H     1.0000    0     1.008    9.516918   -0.000072   -3.344345
  36 H     1.0000    0     1.008    9.430809    0.000049    5.627803
  37 H     1.0000    0     1.008   -7.131677    4.796590    0.880934
  38 H     1.0000    0     1.008   -0.223919   -8.601344   -0.816598
  39 C     6.0000    0    12.011   -7.805109    0.000076   -1.377614
  40 H     1.0000    0     1.008   -7.144849    0.000066   -3.329692
  41 H     1.0000    0     1.008   -8.992800   -1.660979   -1.106769
  42 H     1.0000    0     1.008   -8.992764    1.661158   -1.106773
  43 C     6.0000    0    12.011   -6.622938    0.000079    3.192220
  44 H     1.0000    0     1.008   -7.791740   -1.661731    3.532767
  45 H     1.0000    0     1.008   -5.095437    0.000036    4.576578
  46 H     1.0000    0     1.008   -7.791645    1.661957    3.532766

--------------------------------
INTERNAL COORDINATES (ANGSTROEM)
--------------------------------
 C      0   0   0     0.000000000000     0.00000000     0.00000000
 C      1   0   0     1.381733723778     0.00000000     0.00000000
 C      2   1   0     1.402379562536   120.97985182     0.00000000
 C      3   2   1     1.402708656765   119.41895130     0.28485418
 C      4   3   2     1.392003908722   118.08373792   359.60498445
 C      5   4   3     1.385159992508   122.61600352     0.22767357
 C      4   3   2     1.520429257141   122.69758508   179.36179733
 C      7   4   3     1.520428392974   111.48106929     0.03773281
 C      8   7   4     1.402707127333   122.69757483   359.96295096
 C      9   8   7     1.402380946190   119.41901256   180.63696247
 H     10   9   8     1.081207604110   119.58146388   179.84923806
 C     10   9   8     1.381733987252   120.97981171   359.71589631
 C     12  10   9     1.386546122648   120.14276456     0.00000000
 C     13  12  10     1.385160162097   118.75749842     0.18369657
 H      2   1   3     1.081207502324   119.43849211   180.13323895
 H      5   4   3     1.083879689090   118.42826269   180.15099490
 H      6   5   4     1.082167105113   120.35854162   179.98146526
 H     12  10   9     1.082946631710   119.27839074   180.01951014
 H     13  12  10     1.082166764504   120.88385113   180.10163855
 N      9   8   7     1.395440108345   120.73520942     0.43914606
 C     20   9   8     1.430014531626   119.16762481   180.62252147
 C     21  20   9     1.417640365450   119.33362399    89.27759193
 C     21  20   9     1.370009999374   119.71293387   269.27786869
 C     22  21  20     1.411837884281   122.72922712     0.00000000
 C     22  21  20     1.427459639774   118.25884994   180.00060971
 C     23  21  20     1.404705597684   120.46880668   179.99962409
 H     23  21  20     1.083144648286   119.11925054     0.00000000
 C     24  22  21     1.369756454535   120.60448282   180.00013503
 H     24  22  21     1.083496915135   119.07888522     0.00000000
 C     25  22  21     1.412195155546   118.73921949   179.99976356
 C     26  23  21     1.368701260370   120.23632838     0.00000000
 H     26  23  21     1.082376083211   119.42784903   179.99994357
 C     30  25  22     1.368795345003   120.90589884     0.00000000
 H     28  24  22     1.082713207879   119.89695003   180.00002609
 H     30  25  22     1.083691307929   118.46547184   180.00005005
 H     31  26  23     1.083575461123   120.61896124   180.00015399
 H     33  30  25     1.082709287991   120.13212260   179.99994104
 H     14  13  12     1.083879151701   118.95551504   179.85972370
 H      1   2   3     1.082947080244   119.27837795   179.98054128
 C      7   4   3     1.535984672279   109.25757700   120.89673346
 H     40   7   4     1.090484083366   111.18759124   298.89749505
 H     40   7   4     1.090036689607   110.98928218    59.16252239
 H     40   7   4     1.090037567599   110.98935341   178.63243329
 C      7   4   3     1.536551910023   109.01400282   239.64449392
 H     44   7   4     1.090115541937   111.00757905   300.73450114
 H     44   7   4     1.090889488597   111.08355803    60.94877814
 H     44   7   4     1.090116050737   111.00746943   181.16301998

---------------------------
INTERNAL COORDINATES (A.U.)
---------------------------
 C      0   0   0     0.000000000000     0.00000000     0.00000000
 C      1   0   0     2.611098327943     0.00000000     0.00000000
 C      2   1   0     2.650113309001   120.97985182     0.00000000
 C      3   2   1     2.650735206966   119.41895130     0.28485418
 C      4   3   2     2.630506164833   118.08373792   359.60498445
 C      5   4   3     2.617573037505   122.61600352     0.22767357
 C      4   3   2     2.873194901997   122.69758508   179.36179733
 C      7   4   3     2.873193268960   111.48106929     0.03773281
 C      8   7   4     2.650732316758   122.69757483   359.96295096
 C      9   8   7     2.650115923729   119.41901256   180.63696247
 H     10   9   8     2.043186265681   119.58146388   179.84923806
 C     10   9   8     2.611098825836   120.97981171   359.71589631
 C     12  10   9     2.620192443855   120.14276456     0.00000000
 C     13  12  10     2.617573357982   118.75749842     0.18369657
 H      2   1   3     2.043186073333   119.43849211   180.13323895
 H      5   4   3     2.048235774500   118.42826269   180.15099490
 H      6   5   4     2.044999459802   120.35854162   179.98146526
 H     12  10   9     2.046472551583   119.27839074   180.01951014
 H     13  12  10     2.044998816143   120.88385113   180.10163855
 N      9   8   7     2.636999641061   120.73520942     0.43914606
 C     20   9   8     2.702335832300   119.16762481   180.62252147
 C     21  20   9     2.678952047093   119.33362399    89.27759193
 C     21  20   9     2.588943699551   119.71293387   269.27786869
 C     22  21  20     2.667986946785   122.72922712     0.00000000
 C     22  21  20     2.697507786400   118.25884994   180.00060971
 C     23  21  20     2.654508878410   120.46880668   179.99962409
 H     23  21  20     2.046846748682   119.11925054     0.00000000
 C     24  22  21     2.588464569243   120.60448282   180.00013503
 H     24  22  21     2.047512436553   119.07888522     0.00000000
 C     25  22  21     2.668662091632   118.73921949   179.99976356
 C     26  23  21     2.586470541252   120.23632838     0.00000000
 H     26  23  21     2.045394371176   119.42784903   179.99994357
 C     30  25  22     2.586648335441   120.90589884     0.00000000
 H     28  24  22     2.046031444470   119.89695003   180.00002609
 H     30  25  22     2.047879785696   118.46547184   180.00005005
 H     31  26  23     2.047660866961   120.61896124   180.00015399
 H     33  30  25     2.046024036955   120.13212260   179.99994104
 H     14  13  12     2.048234758983   118.95551504   179.85972370
 H      1   2   3     2.046473399191   119.27837795   179.98054128
 C      7   4   3     2.902590376507   109.25757700   120.89673346
 H     40   7   4     2.060716270962   111.18759124   298.89749505
 H     40   7   4     2.059870819284   110.98928218    59.16252239
 H     40   7   4     2.059872478449   110.98935341   178.63243329
 C      7   4   3     2.903662300497   109.01400282   239.64449392
 H     44   7   4     2.060019828592   111.00757905   300.73450114
 H     44   7   4     2.061482375821   111.08355803    60.94877814
 H     44   7   4     2.060020790084   111.00746943   181.16301998

---------------------
BASIS SET INFORMATION
---------------------
There are 3 groups of distinct atoms

 Group   1 Type C   : 11s6p2d1f contracted to 5s3p2d1f pattern {62111/411/11/1}
 Group   2 Type H   : 5s1p contracted to 3s1p pattern {311/1}
 Group   3 Type N   : 11s6p2d1f contracted to 5s3p2d1f pattern {62111/411/11/1}

Atom   0C    basis set group =>   1
Atom   1C    basis set group =>   1
Atom   2C    basis set group =>   1
Atom   3C    basis set group =>   1
Atom   4C    basis set group =>   1
Atom   5C    basis set group =>   1
Atom   6C    basis set group =>   1
Atom   7C    basis set group =>   1
Atom   8C    basis set group =>   1
Atom   9C    basis set group =>   1
Atom  10H    basis set group =>   2
Atom  11C    basis set group =>   1
Atom  12C    basis set group =>   1
Atom  13C    basis set group =>   1
Atom  14H    basis set group =>   2
Atom  15H    basis set group =>   2
Atom  16H    basis set group =>   2
Atom  17H    basis set group =>   2
Atom  18H    basis set group =>   2
Atom  19N    basis set group =>   3
Atom  20C    basis set group =>   1
Atom  21C    basis set group =>   1
Atom  22C    basis set group =>   1
Atom  23C    basis set group =>   1
Atom  24C    basis set group =>   1
Atom  25C    basis set group =>   1
Atom  26H    basis set group =>   2
Atom  27C    basis set group =>   1
Atom  28H    basis set group =>   2
Atom  29C    basis set group =>   1
Atom  30C    basis set group =>   1
Atom  31H    basis set group =>   2
Atom  32C    basis set group =>   1
Atom  33H    basis set group =>   2
Atom  34H    basis set group =>   2
Atom  35H    basis set group =>   2
Atom  36H    basis set group =>   2
Atom  37H    basis set group =>   2
Atom  38H    basis set group =>   2
Atom  39C    basis set group =>   1
Atom  40H    basis set group =>   2
Atom  41H    basis set group =>   2
Atom  42H    basis set group =>   2
Atom  43C    basis set group =>   1
Atom  44H    basis set group =>   2
Atom  45H    basis set group =>   2
Atom  46H    basis set group =>   2
---------------------------------
AUXILIARY/J BASIS SET INFORMATION
---------------------------------
There are 3 groups of distinct atoms

 Group   1 Type C   : 12s5p4d2f1g contracted to 6s4p3d1f1g pattern {711111/2111/211/2/1}
 Group   2 Type H   : 5s2p1d contracted to 3s1p1d pattern {311/2/1}
 Group   3 Type N   : 12s5p4d2f1g contracted to 6s4p3d1f1g pattern {711111/2111/211/2/1}

Atom   0C    basis set group =>   1
Atom   1C    basis set group =>   1
Atom   2C    basis set group =>   1
Atom   3C    basis set group =>   1
Atom   4C    basis set group =>   1
Atom   5C    basis set group =>   1
Atom   6C    basis set group =>   1
Atom   7C    basis set group =>   1
Atom   8C    basis set group =>   1
Atom   9C    basis set group =>   1
Atom  10H    basis set group =>   2
Atom  11C    basis set group =>   1
Atom  12C    basis set group =>   1
Atom  13C    basis set group =>   1
Atom  14H    basis set group =>   2
Atom  15H    basis set group =>   2
Atom  16H    basis set group =>   2
Atom  17H    basis set group =>   2
Atom  18H    basis set group =>   2
Atom  19N    basis set group =>   3
Atom  20C    basis set group =>   1
Atom  21C    basis set group =>   1
Atom  22C    basis set group =>   1
Atom  23C    basis set group =>   1
Atom  24C    basis set group =>   1
Atom  25C    basis set group =>   1
Atom  26H    basis set group =>   2
Atom  27C    basis set group =>   1
Atom  28H    basis set group =>   2
Atom  29C    basis set group =>   1
Atom  30C    basis set group =>   1
Atom  31H    basis set group =>   2
Atom  32C    basis set group =>   1
Atom  33H    basis set group =>   2
Atom  34H    basis set group =>   2
Atom  35H    basis set group =>   2
Atom  36H    basis set group =>   2
Atom  37H    basis set group =>   2
Atom  38H    basis set group =>   2
Atom  39C    basis set group =>   1
Atom  40H    basis set group =>   2
Atom  41H    basis set group =>   2
Atom  42H    basis set group =>   2
Atom  43C    basis set group =>   1
Atom  44H    basis set group =>   2
Atom  45H    basis set group =>   2
Atom  46H    basis set group =>   2
---------------------------------
AUXILIARY/C BASIS SET INFORMATION
---------------------------------
There are 3 groups of distinct atoms

 Group   1 Type C   : 8s6p5d3f1g contracted to 8s6p4d3f1g pattern {11111111/111111/2111/111/1}
 Group   2 Type H   : 4s3p2d contracted to 4s2p1d pattern {1111/21/2}
 Group   3 Type N   : 8s6p5d3f1g contracted to 8s6p4d3f1g pattern {11111111/111111/2111/111/1}

Atom   0C    basis set group =>   1
Atom   1C    basis set group =>   1
Atom   2C    basis set group =>   1
Atom   3C    basis set group =>   1
Atom   4C    basis set group =>   1
Atom   5C    basis set group =>   1
Atom   6C    basis set group =>   1
Atom   7C    basis set group =>   1
Atom   8C    basis set group =>   1
Atom   9C    basis set group =>   1
Atom  10H    basis set group =>   2
Atom  11C    basis set group =>   1
Atom  12C    basis set group =>   1
Atom  13C    basis set group =>   1
Atom  14H    basis set group =>   2
Atom  15H    basis set group =>   2
Atom  16H    basis set group =>   2
Atom  17H    basis set group =>   2
Atom  18H    basis set group =>   2
Atom  19N    basis set group =>   3
Atom  20C    basis set group =>   1
Atom  21C    basis set group =>   1
Atom  22C    basis set group =>   1
Atom  23C    basis set group =>   1
Atom  24C    basis set group =>   1
Atom  25C    basis set group =>   1
Atom  26H    basis set group =>   2
Atom  27C    basis set group =>   1
Atom  28H    basis set group =>   2
Atom  29C    basis set group =>   1
Atom  30C    basis set group =>   1
Atom  31H    basis set group =>   2
Atom  32C    basis set group =>   1
Atom  33H    basis set group =>   2
Atom  34H    basis set group =>   2
Atom  35H    basis set group =>   2
Atom  36H    basis set group =>   2
Atom  37H    basis set group =>   2
Atom  38H    basis set group =>   2
Atom  39C    basis set group =>   1
Atom  40H    basis set group =>   2
Atom  41H    basis set group =>   2
Atom  42H    basis set group =>   2
Atom  43C    basis set group =>   1
Atom  44H    basis set group =>   2
Atom  45H    basis set group =>   2
Atom  46H    basis set group =>   2


           ************************************************************
           *        Program running with 4 parallel MPI-processes     *
           *              working on a common directory               *
           ************************************************************
------------------------------------------------------------------------------
                           ORCA GTO INTEGRAL CALCULATION
                           -- RI-GTO INTEGRALS CHOSEN --
------------------------------------------------------------------------------
------------------------------------------------------------------------------
                   ___                                                        
                  /   \      - P O W E R E D   B Y -                         
                 /     \                                                     
                 |  |  |   _    _      __       _____    __    __             
                 |  |  |  | |  | |    /  \     |  _  \  |  |  /  |          
                  \  \/   | |  | |   /    \    | | | |  |  | /  /          
                 / \  \   | |__| |  /  /\  \   | |_| |  |  |/  /          
                |  |  |   |  __  | /  /__\  \  |    /   |      \           
                |  |  |   | |  | | |   __   |  |    \   |  |\   \          
                \     /   | |  | | |  |  |  |  | |\  \  |  | \   \       
                 \___/    |_|  |_| |__|  |__|  |_| \__\ |__|  \__/        
                                                                              
                      - O R C A' S   B I G   F R I E N D -                    
                                      &                                       
                       - I N T E G R A L  F E E D E R -                       
                                                                              
 v1 FN, 2020, v2 2021                                                         
------------------------------------------------------------------------------


Reading SHARK input file Me2-Acr_1_M06L_def2TZVP_coords.SHARKINP.tmp ... ok
----------------------
SHARK INTEGRAL PACKAGE
----------------------

Number of atoms                             ...     47
Number of basis functions                   ...    932
Number of shells                            ...    370
Maximum angular momentum                    ...      3
Integral batch strategy                     ... SHARK/LIBINT Hybrid
RI-J (if used) integral strategy            ... SPLIT-RIJ (Revised 2003 algorithm where possible)
Printlevel                                  ...      1
Contraction scheme used                     ... SEGMENTED contraction
Coulomb Range Separation                    ... NOT USED
Exchange Range Separation                   ... NOT USED
Finite Nucleus Model                        ... NOT USED
Auxiliary Coulomb fitting basis             ... AVAILABLE
   # of basis functions in Aux-J            ...   1505
   # of shells in Aux-J                     ...    495
   Maximum angular momentum in Aux-J        ...      4
Auxiliary J/K fitting basis                 ... NOT available
Auxiliary Correlation fitting basis         ... AVAILABLE
   # of basis functions in Aux-C            ...   2291
   # of shells in Aux-C                     ...    719
   Maximum angular momentum in Aux-C        ...      4
Auxiliary 'external' fitting basis          ... NOT available
Integral threshold                          ...     2.500000e-11
Primitive cut-off                           ...     2.500000e-12
Primitive pair pre-selection threshold      ...     2.500000e-12

Calculating pre-screening integrals         ... done (  0.1 sec) Dimension = 370
Organizing shell pair data                  ... done (  2.0 sec)
Shell pair information
Total number of shell pairs                 ...     68635
Shell pairs after pre-screening             ...     49934
Total number of primitive shell pairs       ...    209616
Primitive shell pairs kept                  ...    100617
          la=0 lb=0:  12983 shell pairs
          la=1 lb=0:  14389 shell pairs
          la=1 lb=1:   3985 shell pairs
          la=2 lb=0:   7144 shell pairs
          la=2 lb=1:   3982 shell pairs
          la=2 lb=2:   1043 shell pairs
          la=3 lb=0:   3333 shell pairs
          la=3 lb=1:   1895 shell pairs
          la=3 lb=2:    941 shell pairs
          la=3 lb=3:    239 shell pairs

Calculating one electron integrals          ... done (  0.1 sec)
Calculating RI/J V-Matrix + Cholesky decomp.... done (  0.1 sec)
Calculating RI/C V-Matrix + Cholesky decomp.... done (  0.3 sec)
Calculating Nuclear repulsion               ... done (  0.0 sec) ENN=   2238.522328077757 Eh

SHARK setup successfully completed in   3.2 seconds

Maximum memory used throughout the entire GTOINT-calculation: 92.0 MB


           ************************************************************
           *        Program running with 4 parallel MPI-processes     *
           *              working on a common directory               *
           ************************************************************
-------------------------------------------------------------------------------
                                 ORCA SCF
-------------------------------------------------------------------------------

------------
SCF SETTINGS
------------
Hamiltonian:
 Density Functional     Method          .... DFT(GTOs)
 Exchange Functional    Exchange        .... B88
   X-Alpha parameter    XAlpha          ....  0.666667
   Becke's b parameter  XBeta           ....  0.004200
 Correlation Functional Correlation     .... LYP
 LDA part of GGA corr.  LDAOpt          .... VWN-3
 Gradients option       PostSCFGGA      .... off
 Hybrid DFT is turned on
   Fraction HF Exchange ScalHFX         ....  0.650000
   Scaling of DF-GGA-X  ScalDFX         ....  0.350000
   Scaling of DF-GGA-C  ScalDFC         ....  0.640000
   Scaling of DF-LDA-C  ScalLDAC        ....  0.640000
   Perturbative correction              ....  0.360000
   Density functional embedding theory  .... OFF
 RI-approximation to the Coulomb term is turned on
   Number of AuxJ basis functions       .... 1505
   RIJ-COSX (HFX calculated with COS-X)).... on


General Settings:
 Integral files         IntName         .... Me2-Acr_1_M06L_def2TZVP_coords
 Hartree-Fock type      HFTyp           .... RHF
 Total Charge           Charge          ....    0
 Multiplicity           Mult            ....    1
 Number of Electrons    NEL             ....  178
 Basis Dimension        Dim             ....  932
 Nuclear Repulsion      ENuc            ....   2238.5223280778 Eh

Convergence Acceleration:
 DIIS                   CNVDIIS         .... on
   Start iteration      DIISMaxIt       ....    12
   Startup error        DIISStart       ....  0.200000
   # of expansion vecs  DIISMaxEq       ....     5
   Bias factor          DIISBfac        ....   1.050
   Max. coefficient     DIISMaxC        ....  10.000
 Trust-Rad. Augm. Hess. CNVTRAH         .... auto
   Auto Start mean grad. ratio tolernc. ....  1.125000
   Auto Start start iteration           ....    20
   Auto Start num. interpolation iter.  ....    10
   Max. Number of Micro iterations      ....    16
   Max. Number of Macro iterations      .... Maxiter - #DIIS iter
   Number of Davidson start vectors     ....     2
   Converg. threshold I  (grad. norm)   ....   1.000e-05
   Converg. threshold II (energy diff.) ....   1.000e-08
   Grad. Scal. Fac. for Micro threshold ....   0.100
   Minimum threshold for Micro iter.    ....   0.010
   NR start threshold (gradient norm)   ....   0.001
   Initial trust radius                 ....   0.400
   Minimum AH scaling param. (alpha)    ....   1.000
   Maximum AH scaling param. (alpha)    .... 1000.000
   Orbital update algorithm             .... Taylor
   White noise on init. David. guess    .... on
   Maximum white noise                  ....   0.010
   Quad. conv. algorithm                .... NR
 SOSCF                  CNVSOSCF        .... on
   Start iteration      SOSCFMaxIt      ....   150
   Startup grad/error   SOSCFStart      ....  0.003300
 Level Shifting         CNVShift        .... on
   Level shift para.    LevelShift      ....    0.2500
   Turn off err/grad.   ShiftErr        ....    0.0010
 Zerner damping         CNVZerner       .... off
 Static damping         CNVDamp         .... on
   Fraction old density DampFac         ....    0.7000
   Max. Damping (<1)    DampMax         ....    0.9800
   Min. Damping (>=0)   DampMin         ....    0.0000
   Turn off err/grad.   DampErr         ....    0.1000
 Fernandez-Rico         CNVRico         .... off

SCF Procedure:
 Maximum # iterations   MaxIter         ....   125
 SCF integral mode      SCFMode         .... Direct
   Integral package                     .... SHARK and LIBINT hybrid scheme
 Reset frequency        DirectResetFreq ....    20
 Integral Threshold     Thresh          ....  2.500e-11 Eh
 Primitive CutOff       TCut            ....  2.500e-12 Eh

Convergence Tolerance:
 Convergence Check Mode ConvCheckMode   .... Total+1el-Energy
 Convergence forced     ConvForced      .... 1
 Energy Change          TolE            ....  1.000e-08 Eh
 1-El. energy change                    ....  1.000e-05 Eh
 Orbital Gradient       TolG            ....  1.000e-05
 Orbital Rotation angle TolX            ....  1.000e-05
 DIIS Error             TolErr          ....  5.000e-07


Diagonalization of the overlap matrix:
Smallest eigenvalue                        ... 3.645e-06
Time for diagonalization                   ...    0.380 sec
Threshold for overlap eigenvalues          ... 1.000e-08
Number of eigenvalues below threshold      ... 0
Time for construction of square roots      ...    0.324 sec
Total time needed                          ...    0.708 sec

Time for model grid setup =    0.523 sec

------------------------------
INITIAL GUESS: MODEL POTENTIAL
------------------------------
Loading Hartree-Fock densities                     ... done
Calculating cut-offs                               ... done
Initializing the effective Hamiltonian             ... done
Setting up the integral package (SHARK)            ... done
Starting the Coulomb interaction                   ... done (   1.2 sec)
Reading the grid                                   ... done
Mapping shells                                     ... done
Starting the XC term evaluation                    ... done (   0.9 sec)
  promolecular density results
     # of electrons  =    178.010420364
     EX              =   -141.515842658
     EC              =     -0.674616943
     EX+EC           =   -142.190459601
Transforming the Hamiltonian                       ... done (   0.3 sec)
Diagonalizing the Hamiltonian                      ... done (   0.4 sec)
Back transforming the eigenvectors                 ... done (   0.2 sec)
Now organizing SCF variables                       ... done
                      ------------------
                      INITIAL GUESS DONE (   3.5 sec)
                      ------------------
-------------------
DFT GRID GENERATION
-------------------

General Integration Accuracy     IntAcc      ... 4.388
Radial Grid Type                 RadialGrid  ... OptM3 with GC (2021)
Angular Grid (max. ang.)         AngularGrid ... 4 (Lebedev-302)
Angular grid pruning method      GridPruning ... 4 (adaptive)
Weight generation scheme         WeightScheme... Becke
Basis function cutoff            BFCut       ... 1.0000e-11
Integration weight cutoff        WCut        ... 1.0000e-14
Angular grids for H and He will be reduced by one unit
Partially contracted basis set               ... off
Rotationally invariant grid construction     ... off

Total number of grid points                  ...   220540
Total number of batches                      ...     3470
Average number of points per batch           ...       63
Average number of grid points per atom       ...     4692
Time for grid setup =    2.053 sec

--------------------
COSX GRID GENERATION
--------------------

GRIDX 1
-------
General Integration Accuracy     IntAcc      ... 3.816
Radial Grid Type                 RadialGrid  ... OptM3 with GC (2021)
Angular Grid (max. ang.)         AngularGrid ... 1 (Lebedev-50)
Angular grid pruning method      GridPruning ... 4 (adaptive)
Weight generation scheme         WeightScheme... Becke
Basis function cutoff            BFCut       ... 1.0000e-11
Integration weight cutoff        WCut        ... 1.0000e-14
Angular grids for H and He will be reduced by one unit
Partially contracted basis set               ... on
Rotationally invariant grid construction     ... off

Total number of grid points                  ...    28016
Total number of batches                      ...      457
Average number of points per batch           ...       61
Average number of grid points per atom       ...      596
UseSFitting                                  ... on

GRIDX 2
-------
General Integration Accuracy     IntAcc      ... 4.020
Radial Grid Type                 RadialGrid  ... OptM3 with GC (2021)
Angular Grid (max. ang.)         AngularGrid ... 2 (Lebedev-110)
Angular grid pruning method      GridPruning ... 4 (adaptive)
Weight generation scheme         WeightScheme... Becke
Basis function cutoff            BFCut       ... 1.0000e-11
Integration weight cutoff        WCut        ... 1.0000e-14
Angular grids for H and He will be reduced by one unit
Partially contracted basis set               ... on
Rotationally invariant grid construction     ... off

Total number of grid points                  ...    60231
Total number of batches                      ...      964
Average number of points per batch           ...       62
Average number of grid points per atom       ...     1282
UseSFitting                                  ... on

GRIDX 3
-------
General Integration Accuracy     IntAcc      ... 4.338
Radial Grid Type                 RadialGrid  ... OptM3 with GC (2021)
Angular Grid (max. ang.)         AngularGrid ... 3 (Lebedev-194)
Angular grid pruning method      GridPruning ... 4 (adaptive)
Weight generation scheme         WeightScheme... Becke
Basis function cutoff            BFCut       ... 1.0000e-11
Integration weight cutoff        WCut        ... 1.0000e-14
Angular grids for H and He will be reduced by one unit
Partially contracted basis set               ... on
Rotationally invariant grid construction     ... off

Total number of grid points                  ...   131157
Total number of batches                      ...     2073
Average number of points per batch           ...       63
Average number of grid points per atom       ...     2791
UseSFitting                                  ... on

Time for X-Grid setup             =    5.133 sec


--------------------
CPCM SOLVATION MODEL
--------------------
CPCM parameters:
  Epsilon                                         ...      37.2190
  Refrac                                          ...       1.4305
  Rsolv                                           ...       1.3000
  Surface type                                    ... GAUSSIAN VDW
  Epsilon function type                           ...         CPCM
Solvent:                                     ... N,N-DIMETHYLFORMAMIDE
SMD-CDS solvent descriptors:
  Soln                                       ...    1.4305
  Soln25                                     ...    1.4280
  Sola                                       ...    0.0000
  Solb                                       ...    0.7400
  Solg                                       ...   49.5600
  Solc                                       ...    0.0000
  Solh                                       ...    0.0000
Radii:
 Radius for C  used is    3.4960 Bohr (=   1.8500 Ang.)
 Radius for H  used is    2.2677 Bohr (=   1.2000 Ang.)
 Radius for N  used is    3.5716 Bohr (=   1.8900 Ang.)
Calculating surface                               ...        done! (  0.0s)
GEPOL surface points                              ...         2627
GEPOL Volume                                      ...    2356.2800
GEPOL Surface-area                                ...    1266.0629
Calculating surface distance matrix               ...        done! (  0.1s)
Performing Cholesky decomposition & store         ...        done! (  0.4s)
Overall time for CPCM initialization              ...                 0.5s
--------------
SCF ITERATIONS
--------------
ITER       Energy         Delta-E        Max-DP      RMS-DP      [F,P]     Damp
               ***  Starting incremental Fock matrix formation  ***
  0  -1016.8993452908   0.000000000000 0.03686088  0.00059586  0.1845644 0.7000
  1  -1017.1711012874  -0.271755996583 0.02742721  0.00048328  0.1124438 0.7000
                               ***Turning on DIIS***
  2  -1017.3268603467  -0.155759059273 0.06407802  0.00109737  0.0598082 0.0000
  3  -1017.6034171823  -0.276556835602 0.05430792  0.00032911  0.0389235 0.0000
  4  -1017.6297764279  -0.026359245612 0.01183668  0.00010495  0.0081080 0.0000
                      *** Initiating the SOSCF procedure ***
                           *** Shutting down DIIS ***
                      *** Re-Reading the Fockian *** 
                      *** Removing any level shift *** 
ITER      Energy       Delta-E        Grad      Rot      Max-DP    RMS-DP
  5  -1017.63061797  -0.0008415450  0.001020  0.001020  0.003376  0.000045
               *** Restarting incremental Fock matrix formation ***
  6  -1017.63065703  -0.0000390570  0.000824  0.002440  0.018292  0.000189
  7  -1017.63068519  -0.0000281608  0.000254  0.001167  0.008667  0.000076
  8  -1017.63069005  -0.0000048598  0.000114  0.000238  0.008019  0.000062
  9  -1017.63069189  -0.0000018392  0.000048  0.000145  0.001268  0.000012
 10  -1017.63069204  -0.0000001520  0.000020  0.000057  0.000696  0.000005
 11  -1017.63069208  -0.0000000363  0.000005  0.000023  0.000359  0.000003
 12  -1017.63069209  -0.0000000115  0.000004  0.000018  0.000327  0.000002
                  ***Gradient check signals convergence***
              ***Rediagonalizing the Fockian in SOSCF/NRSCF***

               *****************************************************
               *                     SUCCESS                       *
               *           SCF CONVERGED AFTER  13 CYCLES          *
               *****************************************************

Old exchange energy                            =    -93.698436476 Eh
New exchange energy                            =    -93.698566923 Eh
Exchange energy change after final integration =     -0.000130448 Eh
Total energy after final integration           =  -1017.630822633 Eh
Final COS-X integration done in                =    81.396 sec

SMD CDS free energy correction energy :                -3.58485     Kcal/mol
Total Energy after SMD CDS correction =             -1017.636535447 Eh

----------------
TOTAL SCF ENERGY
----------------

Total Energy       :        -1017.63653545 Eh          -27691.29793 eV

Components:
Nuclear Repulsion  :         2238.52232808 Eh           60913.28932 eV
Electronic Energy  :        -3256.15886352 Eh          -88604.58725 eV
One Electron Energy:        -5827.94915901 Eh         -158586.55900 eV
Two Electron Energy:         2571.79029549 Eh           69981.97175 eV
Max COSX asymmetry :            0.00000789 Eh               0.00021 eV
CPCM Dielectric    :           -0.02123208 Eh              -0.57775 eV
SMD CDS (Gcds)     :           -0.00571281 Eh              -0.15545 eV

Virial components:
Potential Energy   :        -2032.12352657 Eh          -55296.89240 eV
Kinetic Energy     :         1014.48699112 Eh           27605.59447 eV
Virial Ratio       :            2.00310457


DFT components:
N(Alpha)           :       88.999898028101 electrons
N(Beta)            :       88.999898028101 electrons
N(Total)           :      177.999796056202 electrons
E(X)               :      -50.498940847687 Eh       
E(C)               :       -3.855089751825 Eh       
E(XC)              :      -54.354030599512 Eh       
DFET-embed. en.    :        0.000000000000 Eh       
CPCM Solvation Model Properties:
Surface-charge          :           -0.07282783
Charge-correction       :            0.00014446 Eh               0.00393 eV
Free-energy (cav+disp)  :           -0.00571281 Eh              -0.15545 eV

---------------
SCF CONVERGENCE
---------------

  Last Energy change         ...   -9.5858e-08  Tolerance :   1.0000e-08
  Last MAX-Density change    ...    1.5543e-15  Tolerance :   1.0000e-07
  Last RMS-Density change    ...    1.2910e-17  Tolerance :   5.0000e-09
  Last Orbital Gradient      ...    7.6912e-07  Tolerance :   1.0000e-05
  Last Orbital Rotation      ...    4.1153e-06  Tolerance :   1.0000e-05

             **** THE GBW FILE WAS UPDATED (Me2-Acr_1_M06L_def2TZVP_coords.gbw) ****
             **** DENSITY Me2-Acr_1_M06L_def2TZVP_coords.scfp WAS UPDATED ****
             **** ENERGY FILE WAS UPDATED (Me2-Acr_1_M06L_def2TZVP_coords.en.tmp) ****
             **** THE GBW FILE WAS UPDATED (Me2-Acr_1_M06L_def2TZVP_coords.gbw) ****
             **** DENSITY Me2-Acr_1_M06L_def2TZVP_coords.scfp WAS UPDATED ****
----------------
ORBITAL ENERGIES
----------------

  NO   OCC          E(Eh)            E(eV) 
   0   2.0000     -15.055024      -409.6680 
   1   2.0000     -10.823673      -294.5271 
   2   2.0000     -10.823656      -294.5267 
   3   2.0000     -10.817733      -294.3655 
   4   2.0000     -10.791532      -293.6525 
   5   2.0000     -10.790598      -293.6271 
   6   2.0000     -10.789796      -293.6053 
   7   2.0000     -10.780399      -293.3496 
   8   2.0000     -10.779939      -293.3370 
   9   2.0000     -10.778597      -293.3005 
  10   2.0000     -10.778539      -293.2990 
  11   2.0000     -10.778389      -293.2949 
  12   2.0000     -10.777408      -293.2682 
  13   2.0000     -10.777317      -293.2657 
  14   2.0000     -10.777305      -293.2654 
  15   2.0000     -10.776593      -293.2460 
  16   2.0000     -10.772114      -293.1241 
  17   2.0000     -10.772113      -293.1241 
  18   2.0000     -10.770957      -293.0926 
  19   2.0000     -10.770956      -293.0926 
  20   2.0000     -10.767692      -293.0038 
  21   2.0000     -10.767692      -293.0038 
  22   2.0000     -10.763516      -292.8902 
  23   2.0000     -10.763516      -292.8902 
  24   2.0000     -10.750558      -292.5375 
  25   2.0000     -10.750539      -292.5370 
  26   2.0000      -1.162219       -31.6256 
  27   2.0000      -1.056007       -28.7354 
  28   2.0000      -1.028944       -27.9990 
  29   2.0000      -1.027111       -27.9491 
  30   2.0000      -0.992033       -26.9946 
  31   2.0000      -0.975220       -26.5371 
  32   2.0000      -0.936875       -25.4937 
  33   2.0000      -0.912989       -24.8437 
  34   2.0000      -0.901730       -24.5373 
  35   2.0000      -0.899004       -24.4632 
  36   2.0000      -0.885007       -24.0823 
  37   2.0000      -0.877579       -23.8801 
  38   2.0000      -0.849159       -23.1068 
  39   2.0000      -0.823745       -22.4152 
  40   2.0000      -0.775512       -21.1027 
  41   2.0000      -0.759678       -20.6719 
  42   2.0000      -0.756626       -20.5889 
  43   2.0000      -0.750807       -20.4305 
  44   2.0000      -0.734601       -19.9895 
  45   2.0000      -0.718848       -19.5608 
  46   2.0000      -0.691888       -18.8272 
  47   2.0000      -0.661537       -18.0013 
  48   2.0000      -0.652741       -17.7620 
  49   2.0000      -0.640164       -17.4198 
  50   2.0000      -0.630386       -17.1537 
  51   2.0000      -0.609726       -16.5915 
  52   2.0000      -0.593528       -16.1507 
  53   2.0000      -0.573483       -15.6053 
  54   2.0000      -0.568090       -15.4585 
  55   2.0000      -0.559691       -15.2300 
  56   2.0000      -0.555921       -15.1274 
  57   2.0000      -0.553183       -15.0529 
  58   2.0000      -0.534210       -14.5366 
  59   2.0000      -0.530902       -14.4466 
  60   2.0000      -0.526741       -14.3334 
  61   2.0000      -0.519364       -14.1326 
  62   2.0000      -0.516891       -14.0653 
  63   2.0000      -0.513503       -13.9731 
  64   2.0000      -0.511343       -13.9144 
  65   2.0000      -0.497781       -13.5453 
  66   2.0000      -0.481565       -13.1040 
  67   2.0000      -0.480176       -13.0663 
  68   2.0000      -0.475761       -12.9461 
  69   2.0000      -0.470737       -12.8094 
  70   2.0000      -0.469084       -12.7644 
  71   2.0000      -0.458016       -12.4632 
  72   2.0000      -0.454535       -12.3685 
  73   2.0000      -0.444222       -12.0879 
  74   2.0000      -0.435603       -11.8534 
  75   2.0000      -0.433115       -11.7857 
  76   2.0000      -0.423956       -11.5364 
  77   2.0000      -0.420575       -11.4444 
  78   2.0000      -0.408336       -11.1114 
  79   2.0000      -0.400374       -10.8947 
  80   2.0000      -0.397967       -10.8292 
  81   2.0000      -0.392395       -10.6776 
  82   2.0000      -0.351755        -9.5717 
  83   2.0000      -0.312721        -8.5096 
  84   2.0000      -0.302782        -8.2391 
  85   2.0000      -0.297875        -8.1056 
  86   2.0000      -0.296384        -8.0650 
  87   2.0000      -0.267386        -7.2759 
  88   2.0000      -0.236917        -6.4468 
  89   0.0000       0.015423         0.4197 
  90   0.0000       0.042121         1.1462 
  91   0.0000       0.054083         1.4717 
  92   0.0000       0.059741         1.6256 
  93   0.0000       0.073911         2.0112 
  94   0.0000       0.093774         2.5517 
  95   0.0000       0.098096         2.6693 
  96   0.0000       0.101551         2.7633 
  97   0.0000       0.116036         3.1575 
  98   0.0000       0.120076         3.2674 
  99   0.0000       0.125575         3.4171 
 100   0.0000       0.127520         3.4700 
 101   0.0000       0.130109         3.5404 
 102   0.0000       0.143909         3.9160 
 103   0.0000       0.144981         3.9451 
 104   0.0000       0.146625         3.9899 
 105   0.0000       0.153228         4.1695 
 106   0.0000       0.164809         4.4847 
 107   0.0000       0.164959         4.4888 
 108   0.0000       0.168124         4.5749 
 109   0.0000       0.168150         4.5756 
 110   0.0000       0.175819         4.7843 
 111   0.0000       0.183814         5.0018 
 112   0.0000       0.183967         5.0060 
 113   0.0000       0.189537         5.1576 
 114   0.0000       0.190406         5.1812 
 115   0.0000       0.196024         5.3341 
 116   0.0000       0.206308         5.6139 
 117   0.0000       0.211712         5.7610 
 118   0.0000       0.216200         5.8831 
 119   0.0000       0.229885         6.2555 
 120   0.0000       0.235048         6.3960 
 121   0.0000       0.239677         6.5219 
 122   0.0000       0.243965         6.6386 
 123   0.0000       0.244339         6.6488 
 124   0.0000       0.249309         6.7840 
 125   0.0000       0.252419         6.8687 
 126   0.0000       0.253765         6.9053 
 127   0.0000       0.264525         7.1981 
 128   0.0000       0.266668         7.2564 
 129   0.0000       0.266809         7.2602 
 130   0.0000       0.269305         7.3282 
 131   0.0000       0.276002         7.5104 
 132   0.0000       0.276589         7.5264 
 133   0.0000       0.281724         7.6661 
 134   0.0000       0.283502         7.7145 
 135   0.0000       0.288889         7.8611 
 136   0.0000       0.293851         7.9961 
 137   0.0000       0.294122         8.0035 
 138   0.0000       0.300285         8.1712 
 139   0.0000       0.302462         8.2304 
 140   0.0000       0.309824         8.4307 
 141   0.0000       0.311330         8.4717 
 142   0.0000       0.317197         8.6314 
 143   0.0000       0.317456         8.6384 
 144   0.0000       0.324058         8.8181 
 145   0.0000       0.331883         9.0310 
 146   0.0000       0.335185         9.1209 
 147   0.0000       0.343000         9.3335 
 148   0.0000       0.347833         9.4650 
 149   0.0000       0.349200         9.5022 
 150   0.0000       0.351703         9.5703 
 151   0.0000       0.356614         9.7040 
 152   0.0000       0.360367         9.8061 
 153   0.0000       0.365416         9.9435 
 154   0.0000       0.373669        10.1681 
 155   0.0000       0.380320        10.3490 
 156   0.0000       0.382844        10.4177 
 157   0.0000       0.388707        10.5773 
 158   0.0000       0.389719        10.6048 
 159   0.0000       0.393412        10.7053 
 160   0.0000       0.398006        10.8303 
 161   0.0000       0.398846        10.8531 
 162   0.0000       0.402691        10.9578 
 163   0.0000       0.405387        11.0312 
 164   0.0000       0.411691        11.2027 
 165   0.0000       0.412144        11.2150 
 166   0.0000       0.416963        11.3461 
 167   0.0000       0.420870        11.4524 
 168   0.0000       0.422354        11.4928 
 169   0.0000       0.434170        11.8144 
 170   0.0000       0.439123        11.9492 
 171   0.0000       0.444006        12.0820 
 172   0.0000       0.447979        12.1901 
 173   0.0000       0.448500        12.2043 
 174   0.0000       0.449674        12.2362 
 175   0.0000       0.452962        12.3257 
 176   0.0000       0.459548        12.5049 
 177   0.0000       0.470698        12.8084 
 178   0.0000       0.475748        12.9458 
 179   0.0000       0.476491        12.9660 
 180   0.0000       0.478222        13.0131 
 181   0.0000       0.479785        13.0556 
 182   0.0000       0.482243        13.1225 
 183   0.0000       0.487190        13.2571 
 184   0.0000       0.488654        13.2969 
 185   0.0000       0.491987        13.3876 
 186   0.0000       0.494995        13.4695 
 187   0.0000       0.495662        13.4877 
 188   0.0000       0.498269        13.5586 
 189   0.0000       0.499026        13.5792 
 190   0.0000       0.504235        13.7209 
 191   0.0000       0.507533        13.8107 
 192   0.0000       0.511161        13.9094 
 193   0.0000       0.513326        13.9683 
 194   0.0000       0.517935        14.0937 
 195   0.0000       0.525814        14.3081 
 196   0.0000       0.528747        14.3880 
 197   0.0000       0.532426        14.4880 
 198   0.0000       0.538720        14.6593 
 199   0.0000       0.541692        14.7402 
 200   0.0000       0.544405        14.8140 
 201   0.0000       0.547656        14.9025 
 202   0.0000       0.553195        15.0532 
 203   0.0000       0.554857        15.0984 
 204   0.0000       0.563289        15.3279 
 205   0.0000       0.565441        15.3864 
 206   0.0000       0.568769        15.4770 
 207   0.0000       0.572365        15.5748 
 208   0.0000       0.577082        15.7032 
 209   0.0000       0.581041        15.8109 
 210   0.0000       0.581372        15.8199 
 211   0.0000       0.589128        16.0310 
 212   0.0000       0.591396        16.0927 
 213   0.0000       0.592977        16.1357 
 214   0.0000       0.598120        16.2757 
 215   0.0000       0.599335        16.3087 
 216   0.0000       0.601361        16.3639 
 217   0.0000       0.609936        16.5972 
 218   0.0000       0.621847        16.9213 
 219   0.0000       0.623700        16.9717 
 220   0.0000       0.629972        17.1424 
 221   0.0000       0.633072        17.2268 
 222   0.0000       0.635472        17.2921 
 223   0.0000       0.638750        17.3813 
 224   0.0000       0.646543        17.5933 
 225   0.0000       0.654615        17.8130 
 226   0.0000       0.660130        17.9630 
 227   0.0000       0.667621        18.1669 
 228   0.0000       0.671415        18.2701 
 229   0.0000       0.683377        18.5956 
 230   0.0000       0.684934        18.6380 
 231   0.0000       0.690303        18.7841 
 232   0.0000       0.694957        18.9107 
 233   0.0000       0.697053        18.9678 
 234   0.0000       0.704615        19.1735 
 235   0.0000       0.713632        19.4189 
 236   0.0000       0.718246        19.5445 
 237   0.0000       0.729362        19.8470 
 238   0.0000       0.735458        20.0128 
 239   0.0000       0.748783        20.3754 
 240   0.0000       0.749112        20.3844 
 241   0.0000       0.759430        20.6651 
 242   0.0000       0.760635        20.6979 
 243   0.0000       0.769600        20.9419 
 244   0.0000       0.774753        21.0821 
 245   0.0000       0.779376        21.2079 
 246   0.0000       0.784521        21.3479 
 247   0.0000       0.784972        21.3602 
 248   0.0000       0.785173        21.3656 
 249   0.0000       0.788028        21.4433 
 250   0.0000       0.794794        21.6274 
 251   0.0000       0.801337        21.8055 
 252   0.0000       0.805866        21.9287 
 253   0.0000       0.807551        21.9746 
 254   0.0000       0.812186        22.1007 
 255   0.0000       0.815892        22.2016 
 256   0.0000       0.821127        22.3440 
 257   0.0000       0.823661        22.4130 
 258   0.0000       0.832998        22.6670 
 259   0.0000       0.835683        22.7401 
 260   0.0000       0.846291        23.0288 
 261   0.0000       0.846972        23.0473 
 262   0.0000       0.849039        23.1035 
 263   0.0000       0.855658        23.2836 
 264   0.0000       0.856705        23.3121 
 265   0.0000       0.863387        23.4939 
 266   0.0000       0.873360        23.7653 
 267   0.0000       0.877363        23.8743 
 268   0.0000       0.879087        23.9212 
 269   0.0000       0.881055        23.9747 
 270   0.0000       0.884963        24.0811 
 271   0.0000       0.894874        24.3508 
 272   0.0000       0.900487        24.5035 
 273   0.0000       0.904420        24.6105 
 274   0.0000       0.905162        24.6307 
 275   0.0000       0.912845        24.8398 
 276   0.0000       0.925335        25.1796 
 277   0.0000       0.929317        25.2880 
 278   0.0000       0.935502        25.4563 
 279   0.0000       0.938082        25.5265 
 280   0.0000       0.953698        25.9514 
 281   0.0000       0.954044        25.9608 
 282   0.0000       0.962676        26.1957 
 283   0.0000       0.966711        26.3056 
 284   0.0000       0.968181        26.3455 
 285   0.0000       0.972613        26.4662 
 286   0.0000       0.976115        26.5614 
 287   0.0000       0.979785        26.6613 
 288   0.0000       0.985192        26.8084 
 289   0.0000       0.991202        26.9720 
 290   0.0000       0.996339        27.1118 
 291   0.0000       1.005148        27.3515 
 292   0.0000       1.007308        27.4102 
 293   0.0000       1.011194        27.5160 
 294   0.0000       1.015362        27.6294 
 295   0.0000       1.020959        27.7817 
 296   0.0000       1.031723        28.0746 
 297   0.0000       1.038614        28.2621 
 298   0.0000       1.040954        28.3258 
 299   0.0000       1.046666        28.4812 
 300   0.0000       1.056752        28.7557 
 301   0.0000       1.061858        28.8946 
 302   0.0000       1.069305        29.0973 
 303   0.0000       1.072754        29.1911 
 304   0.0000       1.082098        29.4454 
 305   0.0000       1.088698        29.6250 
 306   0.0000       1.090619        29.6772 
 307   0.0000       1.101041        29.9609 
 308   0.0000       1.104618        30.0582 
 309   0.0000       1.116048        30.3692 
 310   0.0000       1.125639        30.6302 
 311   0.0000       1.136204        30.9177 
 312   0.0000       1.140174        31.0257 
 313   0.0000       1.152825        31.3700 
 314   0.0000       1.159406        31.5490 
 315   0.0000       1.165610        31.7179 
 316   0.0000       1.167541        31.7704 
 317   0.0000       1.168854        31.8061 
 318   0.0000       1.184991        32.2452 
 319   0.0000       1.187323        32.3087 
 320   0.0000       1.196356        32.5545 
 321   0.0000       1.211617        32.9698 
 322   0.0000       1.222756        33.2729 
 323   0.0000       1.226404        33.3722 
 324   0.0000       1.232074        33.5264 
 325   0.0000       1.236373        33.6434 
 326   0.0000       1.248516        33.9739 
 327   0.0000       1.257415        34.2160 
 328   0.0000       1.261550        34.3285 
 329   0.0000       1.263311        34.3764 
 330   0.0000       1.264813        34.4173 
 331   0.0000       1.266866        34.4732 
 332   0.0000       1.275544        34.7093 
 333   0.0000       1.282417        34.8963 
 334   0.0000       1.295392        35.2494 
 335   0.0000       1.304365        35.4936 
 336   0.0000       1.311917        35.6991 
 337   0.0000       1.314759        35.7764 
 338   0.0000       1.323072        36.0026 
 339   0.0000       1.329214        36.1697 
 340   0.0000       1.336927        36.3796 
 341   0.0000       1.344951        36.5980 
 342   0.0000       1.355905        36.8961 
 343   0.0000       1.357499        36.9394 
 344   0.0000       1.360342        37.0168 
 345   0.0000       1.368345        37.2346 
 346   0.0000       1.371726        37.3266 
 347   0.0000       1.373856        37.3845 
 348   0.0000       1.379401        37.5354 
 349   0.0000       1.386915        37.7399 
 350   0.0000       1.389483        37.8098 
 351   0.0000       1.390613        37.8405 
 352   0.0000       1.394664        37.9507 
 353   0.0000       1.399310        38.0772 
 354   0.0000       1.409330        38.3498 
 355   0.0000       1.412479        38.4355 
 356   0.0000       1.419533        38.6274 
 357   0.0000       1.421649        38.6850 
 358   0.0000       1.440309        39.1928 
 359   0.0000       1.445185        39.3255 
 360   0.0000       1.450385        39.4670 
 361   0.0000       1.458268        39.6815 
 362   0.0000       1.468686        39.9650 
 363   0.0000       1.473981        40.1091 
 364   0.0000       1.492214        40.6052 
 365   0.0000       1.497014        40.7358 
 366   0.0000       1.503458        40.9112 
 367   0.0000       1.519991        41.3611 
 368   0.0000       1.527819        41.5741 
 369   0.0000       1.533548        41.7299 
 370   0.0000       1.537442        41.8359 
 371   0.0000       1.547446        42.1081 
 372   0.0000       1.553193        42.2645 
 373   0.0000       1.562689        42.5229 
 374   0.0000       1.570358        42.7316 
 375   0.0000       1.581337        43.0304 
 376   0.0000       1.591743        43.3135 
 377   0.0000       1.591882        43.3173 
 378   0.0000       1.594202        43.3805 
 379   0.0000       1.607747        43.7490 
 380   0.0000       1.608863        43.7794 
 381   0.0000       1.615182        43.9514 
 382   0.0000       1.619392        44.0659 
 383   0.0000       1.631172        44.3864 
 384   0.0000       1.633912        44.4610 
 385   0.0000       1.635659        44.5085 
 386   0.0000       1.648200        44.8498 
 387   0.0000       1.658011        45.1168 
 388   0.0000       1.659356        45.1534 
 389   0.0000       1.670381        45.4534 
 390   0.0000       1.674163        45.5563 
 391   0.0000       1.679594        45.7041 
 392   0.0000       1.681451        45.7546 
 393   0.0000       1.694477        46.1091 
 394   0.0000       1.695680        46.1418 
 395   0.0000       1.704161        46.3726 
 396   0.0000       1.710244        46.5381 
 397   0.0000       1.718763        46.7699 
 398   0.0000       1.720221        46.8096 
 399   0.0000       1.729276        47.0560 
 400   0.0000       1.731380        47.1133 
 401   0.0000       1.736545        47.2538 
 402   0.0000       1.742532        47.4167 
 403   0.0000       1.742748        47.4226 
 404   0.0000       1.749344        47.6021 
 405   0.0000       1.761982        47.9460 
 406   0.0000       1.766217        48.0612 
 407   0.0000       1.769236        48.1434 
 408   0.0000       1.779728        48.4289 
 409   0.0000       1.781740        48.4836 
 410   0.0000       1.786455        48.6119 
 411   0.0000       1.787676        48.6451 
 412   0.0000       1.797798        48.9206 
 413   0.0000       1.804033        49.0902 
 414   0.0000       1.804475        49.1023 
 415   0.0000       1.810510        49.2665 
 416   0.0000       1.813561        49.3495 
 417   0.0000       1.826360        49.6978 
 418   0.0000       1.826549        49.7029 
 419   0.0000       1.837656        50.0052 
 420   0.0000       1.842351        50.1329 
 421   0.0000       1.848274        50.2941 
 422   0.0000       1.849578        50.3296 
 423   0.0000       1.852553        50.4105 
 424   0.0000       1.867089        50.8061 
 425   0.0000       1.871464        50.9251 
 426   0.0000       1.877271        51.0831 
 427   0.0000       1.878450        51.1152 
 428   0.0000       1.887058        51.3495 
 429   0.0000       1.891337        51.4659 
 430   0.0000       1.900281        51.7093 
 431   0.0000       1.900807        51.7236 
 432   0.0000       1.902930        51.7814 
 433   0.0000       1.905953        51.8636 
 434   0.0000       1.926746        52.4294 
 435   0.0000       1.927182        52.4413 
 436   0.0000       1.938159        52.7400 
 437   0.0000       1.946405        52.9644 
 438   0.0000       1.948145        53.0117 
 439   0.0000       1.956822        53.2478 
 440   0.0000       1.965843        53.4933 
 441   0.0000       1.970094        53.6090 
 442   0.0000       1.976866        53.7932 
 443   0.0000       1.984478        54.0004 
 444   0.0000       2.000823        54.4452 
 445   0.0000       2.010570        54.7104 
 446   0.0000       2.010595        54.7111 
 447   0.0000       2.021905        55.0188 
 448   0.0000       2.028050        55.1860 
 449   0.0000       2.034576        55.3636 
 450   0.0000       2.037770        55.4505 
 451   0.0000       2.041079        55.5406 
 452   0.0000       2.061615        56.0994 
 453   0.0000       2.071562        56.3701 
 454   0.0000       2.077214        56.5239 
 455   0.0000       2.102142        57.2022 
 456   0.0000       2.103293        57.2335 
 457   0.0000       2.115235        57.5585 
 458   0.0000       2.128669        57.9240 
 459   0.0000       2.135177        58.1011 
 460   0.0000       2.135650        58.1140 
 461   0.0000       2.150276        58.5120 
 462   0.0000       2.158194        58.7275 
 463   0.0000       2.165374        58.9228 
 464   0.0000       2.170756        59.0693 
 465   0.0000       2.171558        59.0911 
 466   0.0000       2.177003        59.2393 
 467   0.0000       2.184482        59.4428 
 468   0.0000       2.197445        59.7955 
 469   0.0000       2.213580        60.2346 
 470   0.0000       2.218453        60.3672 
 471   0.0000       2.232978        60.7624 
 472   0.0000       2.243149        61.0392 
 473   0.0000       2.257207        61.4217 
 474   0.0000       2.258752        61.4638 
 475   0.0000       2.268414        61.7267 
 476   0.0000       2.272863        61.8477 
 477   0.0000       2.279222        62.0208 
 478   0.0000       2.289893        62.3112 
 479   0.0000       2.305479        62.7353 
 480   0.0000       2.313257        62.9469 
 481   0.0000       2.315257        63.0014 
 482   0.0000       2.332055        63.4585 
 483   0.0000       2.333716        63.5036 
 484   0.0000       2.342146        63.7330 
 485   0.0000       2.346517        63.8520 
 486   0.0000       2.359783        64.2130 
 487   0.0000       2.362274        64.2807 
 488   0.0000       2.367855        64.4326 
 489   0.0000       2.371792        64.5397 
 490   0.0000       2.377561        64.6967 
 491   0.0000       2.380909        64.7878 
 492   0.0000       2.390609        65.0518 
 493   0.0000       2.395415        65.1826 
 494   0.0000       2.401280        65.3421 
 495   0.0000       2.410430        65.5911 
 496   0.0000       2.415782        65.7368 
 497   0.0000       2.423905        65.9578 
 498   0.0000       2.440661        66.4138 
 499   0.0000       2.440843        66.4187 
 500   0.0000       2.450416        66.6792 
 501   0.0000       2.457045        66.8596 
 502   0.0000       2.464803        67.0707 
 503   0.0000       2.469188        67.1900 
 504   0.0000       2.473527        67.3081 
 505   0.0000       2.490881        67.7803 
 506   0.0000       2.500225        68.0346 
 507   0.0000       2.500546        68.0433 
 508   0.0000       2.516780        68.4851 
 509   0.0000       2.520162        68.5771 
 510   0.0000       2.525236        68.7152 
 511   0.0000       2.531612        68.8887 
 512   0.0000       2.549633        69.3790 
 513   0.0000       2.555666        69.5432 
 514   0.0000       2.558908        69.6314 
 515   0.0000       2.574996        70.0692 
 516   0.0000       2.589260        70.4573 
 517   0.0000       2.591550        70.5197 
 518   0.0000       2.593997        70.5862 
 519   0.0000       2.607945        70.9658 
 520   0.0000       2.612961        71.1023 
 521   0.0000       2.628761        71.5322 
 522   0.0000       2.643634        71.9369 
 523   0.0000       2.647118        72.0318 
 524   0.0000       2.654376        72.2292 
 525   0.0000       2.662708        72.4560 
 526   0.0000       2.669262        72.6343 
 527   0.0000       2.673268        72.7433 
 528   0.0000       2.678697        72.8910 
 529   0.0000       2.682680        72.9994 
 530   0.0000       2.700635        73.4880 
 531   0.0000       2.713170        73.8291 
 532   0.0000       2.723719        74.1162 
 533   0.0000       2.728281        74.2403 
 534   0.0000       2.739083        74.5342 
 535   0.0000       2.740307        74.5675 
 536   0.0000       2.748415        74.7882 
 537   0.0000       2.748605        74.7933 
 538   0.0000       2.759510        75.0901 
 539   0.0000       2.762219        75.1638 
 540   0.0000       2.770015        75.3759 
 541   0.0000       2.777336        75.5751 
 542   0.0000       2.784750        75.7769 
 543   0.0000       2.787872        75.8618 
 544   0.0000       2.795700        76.0749 
 545   0.0000       2.796093        76.0856 
 546   0.0000       2.799824        76.1871 
 547   0.0000       2.811654        76.5090 
 548   0.0000       2.819558        76.7241 
 549   0.0000       2.819745        76.7292 
 550   0.0000       2.825116        76.8753 
 551   0.0000       2.830979        77.0349 
 552   0.0000       2.831885        77.0595 
 553   0.0000       2.842156        77.3390 
 554   0.0000       2.846680        77.4621 
 555   0.0000       2.859568        77.8128 
 556   0.0000       2.860400        77.8354 
 557   0.0000       2.863796        77.9278 
 558   0.0000       2.867251        78.0219 
 559   0.0000       2.878221        78.3204 
 560   0.0000       2.879890        78.3658 
 561   0.0000       2.885801        78.5266 
 562   0.0000       2.891177        78.6729 
 563   0.0000       2.894194        78.7550 
 564   0.0000       2.895156        78.7812 
 565   0.0000       2.898506        78.8724 
 566   0.0000       2.906149        79.0803 
 567   0.0000       2.912337        79.2487 
 568   0.0000       2.915278        79.3288 
 569   0.0000       2.916129        79.3519 
 570   0.0000       2.925386        79.6038 
 571   0.0000       2.930516        79.7434 
 572   0.0000       2.933022        79.8116 
 573   0.0000       2.941243        80.0353 
 574   0.0000       2.946973        80.1912 
 575   0.0000       2.949994        80.2734 
 576   0.0000       2.955394        80.4204 
 577   0.0000       2.964804        80.6764 
 578   0.0000       2.965679        80.7002 
 579   0.0000       2.968387        80.7739 
 580   0.0000       2.973519        80.9136 
 581   0.0000       2.979179        81.0676 
 582   0.0000       2.980506        81.1037 
[...]
    88a ->  96a  :     0.073763 

STATE  9:  E=   0.215311 au      5.859 eV    47255.3 cm**-1 <S**2> =   0.000000
    83a ->  92a  :     0.071093 
    83a ->  93a  :     0.022926 
    84a ->  90a  :     0.055375 
    84a ->  92a  :     0.023756 
    84a ->  93a  :     0.070285 
    85a ->  91a  :     0.275175 
    86a ->  89a  :     0.055305 
    86a ->  93a  :     0.031987 
    87a ->  90a  :     0.056449 
    87a ->  92a  :     0.012654 
    88a ->  96a  :     0.265651 

STATE 10:  E=   0.221090 au      6.016 eV    48523.6 cm**-1 <S**2> =   0.000000
    82a ->  89a  :     0.012783 
    83a ->  90a  :     0.029251 
    83a ->  92a  :     0.011746 
    83a ->  93a  :     0.018437 
    84a ->  92a  :     0.010230 
    84a ->  93a  :     0.011332 
    85a ->  91a  :     0.038672 
    86a ->  90a  :     0.675112 
    86a ->  92a  :     0.020584 
    86a ->  93a  :     0.012018 
    87a ->  89a  :     0.058094 
    87a ->  94a  :     0.029905 
    88a ->  96a  :     0.022621 

STATE 11:  E=   0.225298 au      6.131 eV    49447.2 cm**-1 <S**2> =   0.000000
    83a ->  91a  :     0.069285 
    84a ->  91a  :     0.329335 
    85a ->  90a  :     0.117968 
    85a ->  93a  :     0.252825 
    86a ->  91a  :     0.105480 
    87a ->  91a  :     0.036262 
    88a ->  92a  :     0.041127 

STATE 12:  E=   0.229132 au      6.235 eV    50288.7 cm**-1 <S**2> =   0.000000
    82a ->  89a  :     0.266628 
    83a ->  89a  :     0.033984 
    84a ->  90a  :     0.010225 
    85a ->  91a  :     0.017669 
    86a ->  90a  :     0.038720 
    87a ->  92a  :     0.015594 
    87a ->  93a  :     0.036264 
    87a ->  94a  :     0.477113 
    88a ->  95a  :     0.023612 

STATE 13:  E=   0.216705 au      5.897 eV    47561.1 cm**-1 <S**2> =   0.000000
    87a ->  94a  :     0.014095 
    88a ->  95a  :     0.743778 
    88a ->  97a  :     0.047266 
    88a ->  98a  :     0.012704 
    88a -> 101a  :     0.058632 
    88a -> 105a  :     0.016715 

STATE 14:  E=   0.211929 au      5.767 eV    46513.1 cm**-1 <S**2> =   0.000000
    83a ->  91a  :     0.010321 
    83a ->  96a  :     0.027414 
    84a ->  91a  :     0.035570 
    84a ->  96a  :     0.056279 
    85a ->  89a  :     0.010924 
    85a ->  90a  :     0.090741 
    85a ->  92a  :     0.466772 
    86a ->  96a  :     0.023081 
    88a ->  93a  :     0.206003 
    88a ->  94a  :     0.033806 

STATE 15:  E=   0.217478 au      5.918 eV    47731.0 cm**-1 <S**2> =   0.000000
    80a ->  91a  :     0.014309 
    83a ->  90a  :     0.081383 
    83a ->  92a  :     0.040288 
    83a ->  93a  :     0.023147 
    84a ->  90a  :     0.034104 
    84a ->  92a  :     0.266229 
    84a ->  93a  :     0.023685 
    85a ->  91a  :     0.011276 
    85a ->  96a  :     0.128582 
    86a ->  92a  :     0.111776 
    87a ->  92a  :     0.066668 
    88a ->  91a  :     0.097191 
    88a ->  95a  :     0.019417 
    88a ->  96a  :     0.014550 

STATE 16:  E=   0.203192 au      5.529 eV    44595.5 cm**-1 <S**2> =   0.000000
    85a ->  89a  :     0.638262 
    85a ->  92a  :     0.029605 
    88a ->  89a  :     0.018224 
    88a ->  94a  :     0.260188 

STATE 17:  E=   0.201600 au      5.486 eV    44246.2 cm**-1 <S**2> =   0.000000
    85a ->  89a  :     0.329580 
    85a ->  92a  :     0.015977 
    88a ->  94a  :     0.594522 

STATE 18:  E=   0.224770 au      6.116 eV    49331.3 cm**-1 <S**2> =   0.000000
    83a ->  89a  :     0.025617 
    84a ->  89a  :     0.030031 
    84a ->  90a  :     0.023083 
    84a ->  92a  :     0.022314 
    84a ->  93a  :     0.055883 
    85a ->  91a  :     0.209471 
    85a ->  96a  :     0.010152 
    86a ->  90a  :     0.016328 
    86a ->  94a  :     0.017276 
    87a ->  94a  :     0.019555 
    88a ->  96a  :     0.459225 

STATE 19:  E=   0.216082 au      5.880 eV    47424.5 cm**-1 <S**2> =   0.000000
    84a ->  91a  :     0.037528 
    87a ->  91a  :     0.890983 
    88a ->  94a  :     0.015278 

STATE 20:  E=   0.211912 au      5.766 eV    46509.4 cm**-1 <S**2> =   0.000000
    82a ->  89a  :     0.019798 
    82a ->  90a  :     0.035364 
    83a ->  89a  :     0.153607 
    84a ->  89a  :     0.562184 
    86a ->  89a  :     0.068205 
    86a ->  94a  :     0.054281 
    87a ->  92a  :     0.015698 
    87a ->  94a  :     0.041521 

STATE 21:  E=   0.216287 au      5.885 eV    47469.6 cm**-1 <S**2> =   0.000000
    78a ->  89a  :     0.010783 
    82a ->  89a  :     0.022122 
    82a ->  90a  :     0.076750 
    83a ->  89a  :     0.256283 
    84a ->  89a  :     0.334625 
    84a ->  92a  :     0.011416 
    84a ->  94a  :     0.012963 
    85a ->  91a  :     0.010182 
    86a ->  94a  :     0.088274 
    87a ->  94a  :     0.067550 
    88a ->  96a  :     0.031048 

STATE 22:  E=   0.221445 au      6.026 eV    48601.6 cm**-1 <S**2> =   0.000000
    78a ->  89a  :     0.020785 
    82a ->  89a  :     0.171071 
    82a ->  90a  :     0.169394 
    82a ->  93a  :     0.011153 
    83a ->  89a  :     0.088383 
    83a ->  94a  :     0.027388 
    86a ->  93a  :     0.013382 
    86a ->  94a  :     0.199927 
    87a ->  92a  :     0.134531 
    87a ->  93a  :     0.016420 
    87a ->  94a  :     0.060198 

STATE 23:  E=   0.221007 au      6.014 eV    48505.4 cm**-1 <S**2> =   0.000000
    82a ->  90a  :     0.029872 
    82a ->  92a  :     0.015220 
    83a ->  89a  :     0.107032 
    84a ->  92a  :     0.051479 
    85a ->  91a  :     0.010253 
    86a ->  89a  :     0.016946 
    86a ->  94a  :     0.040916 
    87a ->  90a  :     0.030392 
    87a ->  92a  :     0.590671 
    87a ->  93a  :     0.013768 
    87a ->  94a  :     0.011804 

STATE 24:  E=   0.222606 au      6.057 eV    48856.4 cm**-1 <S**2> =   0.000000
    82a ->  89a  :     0.439185 
    82a ->  90a  :     0.012530 
    83a ->  89a  :     0.221729 
    83a ->  94a  :     0.010722 
    86a ->  89a  :     0.020102 
    87a ->  92a  :     0.076863 
    87a ->  93a  :     0.046321 
    87a ->  94a  :     0.117930 

STATE 25:  E=   0.236158 au      6.426 eV    51830.7 cm**-1 <S**2> =   0.000000
    83a -> 100a  :     0.035755 
    84a -> 100a  :     0.011027 
    88a ->  95a  :     0.065766 
    88a ->  97a  :     0.795336 
    88a ->  99a  :     0.011457 
    88a -> 101a  :     0.012747 

STATE 26:  E=   0.234306 au      6.376 eV    51424.3 cm**-1 <S**2> =   0.000000
    80a ->  93a  :     0.019431 
    83a ->  91a  :     0.336236 
    84a ->  91a  :     0.286106 
    85a ->  92a  :     0.100720 
    85a ->  93a  :     0.017449 
    86a ->  91a  :     0.113109 
    87a ->  91a  :     0.023308 
    88a ->  93a  :     0.053685 

STATE 27:  E=   0.234564 au      6.383 eV    51480.9 cm**-1 <S**2> =   0.000000
    80a ->  96a  :     0.012253 
    83a ->  90a  :     0.176560 
    83a ->  92a  :     0.099015 
    83a ->  93a  :     0.021468 
    84a ->  90a  :     0.171747 
    84a ->  92a  :     0.188809 
    84a ->  93a  :     0.013063 
    85a ->  91a  :     0.062493 
    86a ->  92a  :     0.014422 
    87a ->  93a  :     0.101784 
    87a ->  94a  :     0.012345 
    88a ->  96a  :     0.042610 
    88a ->  99a  :     0.013462 

STATE 28:  E=   0.233859 au      6.364 eV    51326.1 cm**-1 <S**2> =   0.000000
    83a ->  90a  :     0.021232 
    83a ->  92a  :     0.035839 
    84a ->  92a  :     0.012887 
    85a ->  91a  :     0.022728 
    86a ->  92a  :     0.012880 
    87a ->  90a  :     0.040218 
    87a ->  93a  :     0.658788 
    87a ->  94a  :     0.105351 
    88a ->  96a  :     0.010811 
    88a ->  99a  :     0.010624 

STATE 29:  E=   0.260356 au      7.085 eV    57141.5 cm**-1 <S**2> =   0.000000
    87a ->  95a  :     0.196337 
    87a ->  97a  :     0.130466 
    87a ->  98a  :     0.252393 
    87a ->  99a  :     0.034414 
    87a -> 104a  :     0.022553 
    87a -> 109a  :     0.013055 
    88a -> 100a  :     0.240440 

STATE 30:  E=   0.248111 au      6.751 eV    54454.0 cm**-1 <S**2> =   0.000000
    84a ->  90a  :     0.028467 
    85a ->  91a  :     0.012029 
    88a ->  95a  :     0.023147 
    88a ->  97a  :     0.030563 
    88a ->  98a  :     0.322555 
    88a ->  99a  :     0.278195 
    88a -> 101a  :     0.110648 
    88a -> 103a  :     0.081880 
    88a -> 107a  :     0.011382 
    88a -> 110a  :     0.014519 


-------------------------
TD-DFT-EXCITATION SPECTRA
-------------------------

Center of mass = (  0.0660, -0.0000, -0.0170)
Calculating the Dipole integrals                  ... done
Transforming integrals                            ... done
Calculating the Linear Momentum integrals         ... done
Transforming integrals                            ... done
Calculating angular momentum integrals            ... done
Transforming integrals                            ... done

-----------------------------------------------------------------------------
         ABSORPTION SPECTRUM VIA TRANSITION ELECTRIC DIPOLE MOMENTS
-----------------------------------------------------------------------------
State   Energy    Wavelength  fosc         T2        TX        TY        TZ  
        (cm-1)      (nm)                 (au**2)    (au)      (au)      (au) 
-----------------------------------------------------------------------------
   1   28305.6    353.3   0.000680198   0.00791  -0.00003  -0.08894   0.00001
   2   36404.1    274.7   0.190171069   1.71977  -1.28742   0.00001   0.24963
   3   34635.8    288.7   0.174990194   1.66328   0.00003   1.28968   0.00000
   4   34841.3    287.0   0.006239411   0.05896  -0.22716   0.00002   0.08574
   5   33731.1    296.5   0.069185978   0.67525   0.80537   0.00002  -0.16315
   6   35619.3    280.7   0.191469214   1.76966  -0.00000  -1.33028   0.00001
   7   37195.3    268.9   0.012947326   0.11460  -0.00002  -0.33852   0.00001
   8   44675.4    223.8   1.269993786   9.35855   1.43055   0.00001   2.70408
   9   47255.3    211.6   0.181946286   1.26756  -0.00256  -0.00001   1.12586
  10   48523.6    206.1   0.698651891   4.74005  -2.03695   0.00003   0.76869
  11   49447.2    202.2   0.724347831   4.82260   0.00005   2.19604   0.00006
  12   50288.7    198.9   0.011051545   0.07235  -0.17999  -0.00000  -0.19988
  13   47561.1    210.3   0.030619648   0.21195   0.06730   0.00024  -0.45543
  14   46513.1    215.0   0.396267783   2.80472  -0.00004  -1.67473  -0.00002
  15   47731.0    209.5   0.203439866   1.40317   1.18385  -0.00003  -0.04086
  16   44595.5    224.2   0.014886543   0.10990  -0.00018   0.33150   0.00003
  17   44246.2    226.0   0.022285401   0.16581   0.00005   0.40720  -0.00002
  18   49331.3    202.7   0.399938954   2.66899  -1.55232  -0.00063   0.50921
  19   47424.5    210.9   0.016786884   0.11653   0.00296  -0.34135  -0.00104
  20   46509.4    215.0   0.029882744   0.21152  -0.04362  -0.00008   0.45784
  21   47469.6    210.7   0.069558666   0.48240   0.54430  -0.00005  -0.43144
  22   48601.6    205.8   0.021995467   0.14899  -0.14872  -0.00004   0.35619
  23   48505.4    206.2   0.026666605   0.18099  -0.42372  -0.00006   0.03807
  24   48856.4    204.7   0.013639565   0.09191   0.11868   0.00001  -0.27897
  25   51830.7    192.9   0.000635840   0.00404   0.05336  -0.00001   0.03452
  26   51424.3    194.5   0.246550753   1.57839   0.00017  -1.25634  -0.00005
  27   51480.9    194.2   0.269021366   1.72035  -1.22336  -0.00016   0.47301
  28   51326.1    194.8   0.022213228   0.14248  -0.10559   0.00002  -0.36239
  29   57141.5    175.0   0.000127713   0.00074  -0.00000  -0.02713  -0.00004
  30   54454.0    183.6   0.013145133   0.07947   0.28149  -0.00006   0.01534

-----------------------------------------------------------------------------
         ABSORPTION SPECTRUM VIA TRANSITION VELOCITY DIPOLE MOMENTS
-----------------------------------------------------------------------------
State   Energy    Wavelength   fosc        P2         PX        PY        PZ  
        (cm-1)      (nm)                 (au**2)     (au)      (au)      (au) 
-----------------------------------------------------------------------------
   1   28305.6    353.3   0.001235162   0.00024   0.00000   0.01546  -0.00000
   2   36404.1    274.7   0.199593602   0.04966   0.21870  -0.00000  -0.04277
   3   34635.8    288.7   0.210417386   0.04981  -0.00001  -0.22318  -0.00000
   4   34841.3    287.0   0.007782062   0.00185   0.04071  -0.00000  -0.01399
   5   33731.1    296.5   0.092888428   0.02141  -0.14334  -0.00000   0.02944
   6   35619.3    280.7   0.253228078   0.06165   0.00000   0.24829  -0.00000
   7   37195.3    268.9   0.018369290   0.00467   0.00000   0.06834  -0.00000
   8   44675.4    223.8   1.415370321   0.43216  -0.30840  -0.00000  -0.58056
   9   47255.3    211.6   0.184795765   0.05968   0.00214   0.00000  -0.24429
  10   48523.6    206.1   0.765240706   0.25378   0.47152  -0.00001  -0.17734
  11   49447.2    202.2   0.768582115   0.25974  -0.00001  -0.50965  -0.00001
  12   50288.7    198.9   0.011333577   0.00390   0.04184   0.00000   0.04631
  13   47561.1    210.3   0.036554103   0.01188  -0.01524  -0.00005   0.10793
  14   46513.1    215.0   0.499335202   0.15874   0.00001   0.39842   0.00001
  15   47731.0    209.5   0.253035424   0.08254  -0.28713   0.00000   0.00998
  16   44595.5    224.2   0.021482090   0.00655   0.00004  -0.08092  -0.00001
  17   44246.2    226.0   0.032662834   0.00988  -0.00001  -0.09938   0.00000
  18   49331.3    202.7   0.493992047   0.16655   0.38780   0.00016  -0.12713
  19   47424.5    210.9   0.022506081   0.00729  -0.00074   0.08541   0.00026
  20   46509.4    215.0   0.040149510   0.01276   0.01030   0.00002  -0.11250
  21   47469.6    210.7   0.093050523   0.03019  -0.13632   0.00002   0.10773
  22   48601.6    205.8   0.027716325   0.00921   0.03684   0.00001  -0.08860
  23   48505.4    206.2   0.034586098   0.01147   0.10647   0.00001  -0.01142
  24   48856.4    204.7   0.018084310   0.00604  -0.03177  -0.00000   0.07092
  25   51830.7    192.9   0.000620089   0.00022  -0.01369   0.00001  -0.00568
  26   51424.3    194.5   0.314169293   0.11042  -0.00004   0.33229   0.00001
  27   51480.9    194.2   0.342695605   0.12058   0.32406   0.00005  -0.12476
  28   51326.1    194.8   0.029720241   0.01043   0.02933  -0.00001   0.09780
  29   57141.5    175.0   0.000026887   0.00001  -0.00000   0.00324   0.00001
  30   54454.0    183.6   0.015290875   0.00569  -0.07541   0.00001   0.00217

-------------------------------------------------------------------
                             CD SPECTRUM
-------------------------------------------------------------------
State  Energy     Wavelength     R         MX        MY        MZ   
       (cm-1)       (nm)     (1e40*cgs)   (au)      (au)      (au)  
-------------------------------------------------------------------
   1   28305.6    353.3     -0.00200   0.17925  -0.00000   0.02848
   2   36404.1    274.7      0.00135  -0.00000  -0.12932  -0.00000
   3   34635.8    288.7      0.00935   0.30468   0.00001   0.74928
   4   34841.3    287.0     -0.00028   0.00000  -0.01043   0.00000
   5   33731.1    296.5      0.00021  -0.00000  -0.06364  -0.00001
   6   35619.3    280.7      0.00372   0.05524  -0.00000   0.73042
   7   37195.3    268.9      0.00005  -0.01258   0.00000   0.15770
   8   44675.4    223.8      0.03663  -0.00002  -1.98197   0.00004
   9   47255.3    211.6      0.00102  -0.00000  -0.59424  -0.00000
  10   48523.6    206.1     -0.00321   0.00000  -0.19358   0.00000
  11   49447.2    202.2     -0.04736   0.35959  -0.00007   0.43828
  12   50288.7    198.9      0.00665  -0.00001  -0.95528  -0.00004
  13   47561.1    210.3      0.02664   0.00001   0.14689  -0.00004
  14   46513.1    215.0     -0.02957   0.22118   0.00001   1.62476
  15   47731.0    209.5      0.00160  -0.00000  -0.27006  -0.00002
  16   44595.5    224.2     -0.01056   0.04665   0.00001  -0.50591
  17   44246.2    226.0     -0.00012  -0.09742  -0.00001  -0.46895
  18   49331.3    202.7      0.15021  -0.00000  -0.07381   0.00053
  19   47424.5    210.9     -0.16596  -0.00046   0.00019   0.27445
  20   46509.4    215.0      0.02558  -0.00000  -0.33947   0.00006
  21   47469.6    210.7     -0.00964  -0.00001   0.23886   0.00001
  22   48601.6    205.8      0.00703   0.00000  -0.23394   0.00002
  23   48505.4    206.2     -0.00559   0.00001   0.11790   0.00001
  24   48856.4    204.7      0.00183  -0.00001   0.03115  -0.00002
  25   51830.7    192.9     -0.00067  -0.00001   0.15917   0.00003
  26   51424.3    194.5     -0.01161   0.18331  -0.00001   1.37586
  27   51480.9    194.2      0.01242   0.00003   0.07243   0.00017
  28   51326.1    194.8     -0.00867   0.00002   0.17170   0.00006
  29   57141.5    175.0      0.00269  -0.18315   0.00001  -0.12812
  30   54454.0    183.6      0.01392   0.00009  -0.07967  -0.00009

Total run time:    21218.188 sec

           *** ORCA-CIS/TD-DFT FINISHED WITHOUT ERROR ***

Maximum memory used throughout the entire CIS-calculation: 4274.2 MB

-----------------------
CIS/TD-DFT TOTAL ENERGY
-----------------------

    E(SCF)  =  -1017.636535447 Eh
    DE(CIS) =      0.128969890 Eh (Root  1)
    ----------------------------- ---------
    E(tot)  =  -1017.507565557 Eh


-------------------------   --------------------
FINAL SINGLE POINT ENERGY     -1017.507565556739
-------------------------   --------------------


                            ***************************************
                            *     ORCA property calculations      *
                            ***************************************


  WARNING: The energy has been calculated at the MP2 level but the densities
           used in the property calculations are still SCF densities
           MP2 response densities have not been calculated 
           use %mp2 Density relaxed end
           or  %mp2 Density unrelaxed end

                                    ---------------------
                                    Active property flags
                                    ---------------------
   (+) Dipole Moment


------------------------------------------------------------------------------
                       ORCA ELECTRIC PROPERTIES CALCULATION
------------------------------------------------------------------------------

Dipole Moment Calculation                       ... on
Quadrupole Moment Calculation                   ... off
Polarizability Calculation                      ... off
GBWName                                         ... Me2-Acr_1_M06L_def2TZVP_coords.gbw
Electron density                                ... Me2-Acr_1_M06L_def2TZVP_coords.scfp
The origin for moment calculation is the CENTER OF MASS  = ( 0.066034, -0.000001 -0.016989)

-------------
DIPOLE MOMENT
-------------
                                X             Y             Z
Electronic contribution:     12.17292      -0.00018      -3.07197
Nuclear contribution   :    -11.75410       0.00018       3.02396
                        -----------------------------------------
Total Dipole Moment    :      0.41882       0.00001      -0.04801
                        -----------------------------------------
Magnitude (a.u.)       :      0.42157
Magnitude (Debye)      :      1.07153



--------------------
Rotational spectrum 
--------------------
 
Rotational constants in cm-1:     0.010615     0.006095     0.004924 
Rotational constants in MHz :   318.221091   182.736497   147.607039 

 Dipole components along the rotational axes: 
x,y,z [a.u.] :    -0.418571     0.000006    -0.050156 
x,y,z [Debye]:    -1.063923     0.000015    -0.127486 

 

Timings for individual modules:

Sum of individual times         ...    22682.511 sec (= 378.042 min)
GTO integral calculation        ...        3.457 sec (=   0.058 min)   0.0 %
SCF iterations                  ...      604.753 sec (=  10.079 min)   2.7 %
MP2 module                      ...      854.976 sec (=  14.250 min)   3.8 %
CIS module                      ...    21219.326 sec (= 353.655 min)  93.5 %
                             ****ORCA TERMINATED NORMALLY****
TOTAL RUN TIME: 0 days 6 hours 18 minutes 9 seconds 734 msec
