
                                 *****************
                                 * O   R   C   A *
                                 *****************

                                            #,                                       
                                            ###                                      
                                            ####                                     
                                            #####                                    
                                            ######                                   
                                           ########,                                 
                                     ,,################,,,,,                         
                               ,,#################################,,                 
                          ,,##########################################,,             
                       ,#########################################, ''#####,          
                    ,#############################################,,   '####,        
                  ,##################################################,,,,####,       
                ,###########''''           ''''###############################       
              ,#####''   ,,,,##########,,,,          '''####'''          '####       
            ,##' ,,,,###########################,,,                        '##       
           ' ,,###''''                  '''############,,,                           
         ,,##''                                '''############,,,,        ,,,,,,###''
      ,#''                                            '''#######################'''  
     '                                                          ''''####''''         
             ,#######,   #######,   ,#######,      ##                                
            ,#'     '#,  ##    ##  ,#'     '#,    #''#        ######   ,####,        
            ##       ##  ##   ,#'  ##            #'  '#       #        #'  '#        
            ##       ##  #######   ##           ,######,      #####,   #    #        
            '#,     ,#'  ##    ##  '#,     ,#' ,#      #,         ##   #,  ,#        
             '#######'   ##     ##  '#######'  #'      '#     #####' # '####'        



                  #######################################################
                  #                        -***-                        #
                  #          Department of theory and spectroscopy      #
                  #    Directorship and core code : Frank Neese         #
                  #        Max Planck Institute fuer Kohlenforschung    #
                  #                Kaiser Wilhelm Platz 1               #
                  #                 D-45470 Muelheim/Ruhr               #
                  #                      Germany                        #
                  #                                                     #
                  #                  All rights reserved                #
                  #                        -***-                        #
                  #######################################################


                         Program Version 5.0.2 -  RELEASE  -


 With contributions from (in alphabetic order):
   Daniel Aravena         : Magnetic Suceptibility
   Michael Atanasov       : Ab Initio Ligand Field Theory (pilot matlab implementation)
   Alexander A. Auer      : GIAO ZORA, VPT2 properties, NMR spectrum
   Ute Becker             : Parallelization
   Giovanni Bistoni       : ED, misc. LED, open-shell LED, HFLD
   Martin Brehm           : Molecular dynamics
   Dmytro Bykov           : SCF Hessian
   Vijay G. Chilkuri      : MRCI spin determinant printing, contributions to CSF-ICE
   Dipayan Datta          : RHF DLPNO-CCSD density
   Achintya Kumar Dutta   : EOM-CC, STEOM-CC
   Dmitry Ganyushin       : Spin-Orbit,Spin-Spin,Magnetic field MRCI
   Miquel Garcia          : C-PCM and meta-GGA Hessian, CC/C-PCM, Gaussian charge scheme
   Yang Guo               : DLPNO-NEVPT2, F12-NEVPT2, CIM, IAO-localization
   Andreas Hansen         : Spin unrestricted coupled pair/coupled cluster methods
   Benjamin Helmich-Paris : MC-RPA, TRAH-SCF, COSX integrals
   Lee Huntington         : MR-EOM, pCC
   Robert Izsak           : Overlap fitted RIJCOSX, COSX-SCS-MP3, EOM
   Marcus Kettner         : VPT2
   Christian Kollmar      : KDIIS, OOCD, Brueckner-CCSD(T), CCSD density, CASPT2, CASPT2-K
   Simone Kossmann        : Meta GGA functionals, TD-DFT gradient, OOMP2, MP2 Hessian
   Martin Krupicka        : Initial AUTO-CI
   Lucas Lang             : DCDCAS
   Marvin Lechner         : AUTO-CI (C++ implementation), FIC-MRCC
   Dagmar Lenk            : GEPOL surface, SMD
   Dimitrios Liakos       : Extrapolation schemes; Compound Job, initial MDCI parallelization
   Dimitrios Manganas     : Further ROCIS development; embedding schemes
   Dimitrios Pantazis     : SARC Basis sets
   Anastasios Papadopoulos: AUTO-CI, single reference methods and gradients
   Taras Petrenko         : DFT Hessian,TD-DFT gradient, ASA, ECA, R-Raman, ABS, FL, XAS/XES, NRVS
   Peter Pinski           : DLPNO-MP2, DLPNO-MP2 Gradient
   Christoph Reimann      : Effective Core Potentials
   Marius Retegan         : Local ZFS, SOC
   Christoph Riplinger    : Optimizer, TS searches, QM/MM, DLPNO-CCSD(T), (RO)-DLPNO pert. Triples
   Tobias Risthaus        : Range-separated hybrids, TD-DFT gradient, RPA, STAB
   Michael Roemelt        : Original ROCIS implementation
   Masaaki Saitow         : Open-shell DLPNO-CCSD energy and density
   Barbara Sandhoefer     : DKH picture change effects
   Avijit Sen             : IP-ROCIS
   Kantharuban Sivalingam : CASSCF convergence, NEVPT2, FIC-MRCI
   Bernardo de Souza      : ESD, SOC TD-DFT
   Georgi Stoychev        : AutoAux, RI-MP2 NMR, DLPNO-MP2 response
   Willem Van den Heuvel  : Paramagnetic NMR
   Boris Wezisla          : Elementary symmetry handling
   Frank Wennmohs         : Technical directorship


 We gratefully acknowledge several colleagues who have allowed us to
 interface, adapt or use parts of their codes:
   Stefan Grimme, W. Hujo, H. Kruse, P. Pracht,  : VdW corrections, initial TS optimization,
                  C. Bannwarth, S. Ehlert          DFT functionals, gCP, sTDA/sTD-DF
   Ed Valeev, F. Pavosevic, A. Kumar             : LibInt (2-el integral package), F12 methods
   Garnet Chan, S. Sharma, J. Yang, R. Olivares  : DMRG
   Ulf Ekstrom                                   : XCFun DFT Library
   Mihaly Kallay                                 : mrcc  (arbitrary order and MRCC methods)
   Jiri Pittner, Ondrej Demel                    : Mk-CCSD
   Frank Weinhold                                : gennbo (NPA and NBO analysis)
   Christopher J. Cramer and Donald G. Truhlar   : smd solvation model
   Lars Goerigk                                  : TD-DFT with DH, B97 family of functionals
   V. Asgeirsson, H. Jonsson                     : NEB implementation
   FAccTs GmbH                                   : IRC, NEB, NEB-TS, DLPNO-Multilevel, CI-OPT
                                                   MM, QMMM, 2- and 3-layer-ONIOM, Crystal-QMMM,
                                                   LR-CPCM, SF, NACMEs, symmetry and pop. for TD-DFT,
                                                   nearIR, NL-DFT gradient (VV10), updates on ESD,
                                                   ML-optimized integration grids
   S Lehtola, MJT Oliveira, MAL Marques          : LibXC Library
   Liviu Ungur et al                             : ANISO software


 Your calculation uses the libint2 library for the computation of 2-el integrals
 For citations please refer to: http://libint.valeyev.net

 Your ORCA version has been built with support for libXC version: 5.1.0
 For citations please refer to: https://tddft.org/programs/libxc/

 This ORCA versions uses:
   CBLAS   interface :  Fast vector & matrix operations
   LAPACKE interface :  Fast linear algebra routines
   SCALAPACK package :  Parallel linear algebra routines
   Shared memory     :  Shared parallel matrices
   BLAS/LAPACK       :  OpenBLAS 0.3.15  USE64BITINT DYNAMIC_ARCH NO_AFFINITY Zen SINGLE_THREADED
        Core in use  :  Zen
   Copyright (c) 2011-2014, The OpenBLAS Project


Your calculation utilizes the SMD solvation module
Please cite in your paper:
A.V. Marenich, C.J. Cramer, D.G. Truhlar J. Phys. Chem. B, 113, (2009), 6378 

================================================================================

----- Orbital basis set information -----
Your calculation utilizes the basis: def2-TZVP
   F. Weigend and R. Ahlrichs, Phys. Chem. Chem. Phys. 7, 3297 (2005).

----- AuxJ basis set information -----
Your calculation utilizes the auxiliary basis: def2/J
   F. Weigend, Phys. Chem. Chem. Phys. 8, 1057 (2006).

----- AuxC basis set information -----
Your calculation utilizes the auxiliary basis: def2-TZVP/C
  H-La, Hf-Rn : A. Hellweg, C. Hattig, S. Hofener and W. Klopper, Theor. Chem. Acc. 117, 587 (2007).
        Ce-Lu : J. Chmela and M. E. Harding, Mol. Phys. (2018).

================================================================================
                                        WARNINGS
                       Please study these warnings very carefully!
================================================================================

INFO   : Checking CIS options ...
  ===> : (D) CORRECTION FOUND - SETTING MODE=3
  ===> : JK MODE FOUND - ACTIVATING RI-MP2 CODE
  ===> : MP2 AND CIS FOUND - CHECKING
WARNING: CIS(D) and MP2 runs must have the same orbital window
  ===> : adjusting orbital windows

WARNING: No MP2 level density has been requested!
         To caclulate MP2 level properties use
         %mp2 Density relaxed end
         or
         %mp2 Density unrelaxed end
         Otherwise for double-hybrid DFT only the energy is correct!

WARNING: The frozen-core approximation is turned on by default for 
         the MP2 part of double-hybrid DFT.

WARNING:  You are using a Range-Separated Double Hybrid functional with Doubles Correction 
          Changing Mode to RPA_AOINTS 


WARNING: CIS/ROCIS methods need fully converged wavefunctions
  ===> : Setting SCFConvForced true
         You can overwrite this default with %scf ConvForced false 


INFO   : the flag for use of the SHARK integral package has been found!

================================================================================
                                       INPUT FILE
================================================================================
NAME = Me2-Acr_1_M06L_def2TZVP_coords.inp
|  1> %maxcore 20000
|  2> %pal
|  3>  nprocs= 4
|  4> end
|  5> ! RI-wPBEPP86   def2-TZVP def2/J def2-TZVP/C RIJCOSX CPCM TightSCF
|  6> %TDDFT  
|  7>    NROOTS   30
|  8>    dcorr 1
|  9>    TDA      FALSE
| 10> END
| 11> 
| 12> %CPCM
| 13>    SMD          TRUE
| 14>    SMDsolvent   "N,N-DIMETHYLFORMAMIDE"
| 15> END
| 16>    
| 17> 
| 18> * xyz 0 1
| 19> C                  -0.68772600   -3.64018700   -0.29792100
| 20> C                  -0.05985600   -2.42065700   -0.46439600
| 21> C                  -0.76280300   -1.21840200   -0.29972400
| 22> C                  -2.12197800   -1.25661500    0.04491300
| 23> C                  -2.72334300   -2.50211200    0.20230500
| 24> C                  -2.03232400   -3.69111800    0.03669800
| 25> C                  -2.95150100    0.00002700    0.25573900
| 26> C                  -2.12194400    1.25664400    0.04490400
| 27> C                  -0.76277500    1.21839100   -0.29974600
| 28> C                  -0.05979900    2.42062600   -0.46445200
| 29> H                   0.98853900    2.39418000   -0.72769700
| 30> C                  -0.68763400    3.64017500   -0.29798200
| 31> C                  -2.03222300    3.69114500    0.03667100
| 32> C                  -2.72327100    2.50215900    0.20230200
| 33> H                   0.98848800   -2.39424400   -0.72762000
| 34> H                  -3.77400100   -2.53816500    0.46614800
| 35> H                  -2.53643000   -4.63960100    0.16839000
| 36> H                  -0.11838100    4.55160600   -0.43221300
| 37> H                  -2.53629900    4.63964300    0.16836700
| 38> N                  -0.10559900   -0.00001400   -0.47542200
| 39> C                   1.28388500   -0.00002800   -0.81346900
| 40> C                   2.25084800   -0.00001600    0.22320200
| 41> C                   1.66241000   -0.00004700   -2.13014900
| 42> C                   1.90300100   -0.00000100    1.59151800
| 43> C                   3.63127600   -0.00001700   -0.14019800
| 44> C                   3.02280300   -0.00005300   -2.48019000
| 45> H                   0.89863100   -0.00005700   -2.89816200
| 46> C                   2.87379700    0.00001300    2.55784500
| 47> H                   0.85552600   -0.00000100    1.86857700
| 48> C                   4.60314900   -0.00000000    0.88437900
| 49> C                   3.98496300   -0.00003600   -1.50674700
| 50> H                   3.30290900   -0.00006900   -3.52569400
| 51> C                   4.23490800    0.00001400    2.20271100
| 52> H                   2.59410200    0.00002400    3.60380800
| 53> H                   5.64980500   -0.00000000    0.60349100
| 54> H                   5.03613600   -0.00003800   -1.76975100
| 55> H                   4.99056900    0.00002600    2.97810500
| 56> H                  -3.77392100    2.53824600    0.46617000
| 57> H                  -0.11849300   -4.55163500   -0.43212500
| 58> C                  -4.13028600    0.00004000   -0.72900200
| 59> H                  -3.78089100    0.00003500   -1.76199700
| 60> H                  -4.75878500   -0.87895200   -0.58567700
| 61> H                  -4.75876600    0.87904700   -0.58567900
| 62> C                  -3.50470800    0.00004200    1.68925000
| 63> H                  -4.12321100   -0.87935000    1.86946000
| 64> H                  -2.69638900    0.00001900    2.42182100
| 65> H                  -4.12316100    0.87947000    1.86945900
| 66> *
| 67> 
| 68> 
| 69>                          ****END OF INPUT****
================================================================================

                       ****************************
                       * Single Point Calculation *
                       ****************************

---------------------------------
CARTESIAN COORDINATES (ANGSTROEM)
---------------------------------
  C     -0.687726   -3.640187   -0.297921
  C     -0.059856   -2.420657   -0.464396
  C     -0.762803   -1.218402   -0.299724
  C     -2.121978   -1.256615    0.044913
  C     -2.723343   -2.502112    0.202305
  C     -2.032324   -3.691118    0.036698
  C     -2.951501    0.000027    0.255739
  C     -2.121944    1.256644    0.044904
  C     -0.762775    1.218391   -0.299746
  C     -0.059799    2.420626   -0.464452
  H      0.988539    2.394180   -0.727697
  C     -0.687634    3.640175   -0.297982
  C     -2.032223    3.691145    0.036671
  C     -2.723271    2.502159    0.202302
  H      0.988488   -2.394244   -0.727620
  H     -3.774001   -2.538165    0.466148
  H     -2.536430   -4.639601    0.168390
  H     -0.118381    4.551606   -0.432213
  H     -2.536299    4.639643    0.168367
  N     -0.105599   -0.000014   -0.475422
  C      1.283885   -0.000028   -0.813469
  C      2.250848   -0.000016    0.223202
  C      1.662410   -0.000047   -2.130149
  C      1.903001   -0.000001    1.591518
  C      3.631276   -0.000017   -0.140198
  C      3.022803   -0.000053   -2.480190
  H      0.898631   -0.000057   -2.898162
  C      2.873797    0.000013    2.557845
  H      0.855526   -0.000001    1.868577
  C      4.603149   -0.000000    0.884379
  C      3.984963   -0.000036   -1.506747
  H      3.302909   -0.000069   -3.525694
  C      4.234908    0.000014    2.202711
  H      2.594102    0.000024    3.603808
  H      5.649805   -0.000000    0.603491
  H      5.036136   -0.000038   -1.769751
  H      4.990569    0.000026    2.978105
  H     -3.773921    2.538246    0.466170
  H     -0.118493   -4.551635   -0.432125
  C     -4.130286    0.000040   -0.729002
  H     -3.780891    0.000035   -1.761997
  H     -4.758785   -0.878952   -0.585677
  H     -4.758766    0.879047   -0.585679
  C     -3.504708    0.000042    1.689250
  H     -4.123211   -0.879350    1.869460
  H     -2.696389    0.000019    2.421821
  H     -4.123161    0.879470    1.869459

----------------------------
CARTESIAN COORDINATES (A.U.)
----------------------------
  NO LB      ZA    FRAG     MASS         X           Y           Z
   0 C     6.0000    0    12.011   -1.299614   -6.878957   -0.562989
   1 C     6.0000    0    12.011   -0.113111   -4.574379   -0.877581
   2 C     6.0000    0    12.011   -1.441489   -2.302446   -0.566396
   3 C     6.0000    0    12.011   -4.009957   -2.374658    0.084873
   4 C     6.0000    0    12.011   -5.146372   -4.728306    0.382301
   5 C     6.0000    0    12.011   -3.840536   -6.975202    0.069349
   6 C     6.0000    0    12.011   -5.577529    0.000051    0.483277
   7 C     6.0000    0    12.011   -4.009893    2.374713    0.084856
   8 C     6.0000    0    12.011   -1.441436    2.302425   -0.566438
   9 C     6.0000    0    12.011   -0.113004    4.574320   -0.877687
  10 H     1.0000    0     1.008    1.868068    4.524345   -1.375148
  11 C     6.0000    0    12.011   -1.299440    6.878934   -0.563104
  12 C     6.0000    0    12.011   -3.840345    6.975253    0.069298
  13 C     6.0000    0    12.011   -5.146236    4.728395    0.382295
  14 H     1.0000    0     1.008    1.867972   -4.524465   -1.375003
  15 H     1.0000    0     1.008   -7.131828   -4.796437    0.880892
  16 H     1.0000    0     1.008   -4.793158   -8.767575    0.318211
  17 H     1.0000    0     1.008   -0.223708    8.601289   -0.816764
  18 H     1.0000    0     1.008   -4.792911    8.767655    0.318168
  19 N     7.0000    0    14.007   -0.199553   -0.000026   -0.898417
  20 C     6.0000    0    12.011    2.426191   -0.000053   -1.537234
  21 C     6.0000    0    12.011    4.253486   -0.000030    0.421791
  22 C     6.0000    0    12.011    3.141500   -0.000089   -4.025398
  23 C     6.0000    0    12.011    3.596151   -0.000002    3.007533
  24 C     6.0000    0    12.011    6.862117   -0.000032   -0.264936
  25 C     6.0000    0    12.011    5.712270   -0.000100   -4.686880
  26 H     1.0000    0     1.008    1.698166   -0.000108   -5.476732
  27 C     6.0000    0    12.011    5.430689    0.000025    4.833627
  28 H     1.0000    0     1.008    1.616710   -0.000002    3.531099
  29 C     6.0000    0    12.011    8.698691   -0.000000    1.671234
  30 C     6.0000    0    12.011    7.530489   -0.000068   -2.847339
  31 H     1.0000    0     1.008    6.241593   -0.000130   -6.662596
  32 C     6.0000    0    12.011    8.002816    0.000026    4.162521
  33 H     1.0000    0     1.008    4.902142    0.000045    6.810210
  34 H     1.0000    0     1.008   10.676584   -0.000000    1.140433
  35 H     1.0000    0     1.008    9.516918   -0.000072   -3.344345
  36 H     1.0000    0     1.008    9.430809    0.000049    5.627803
  37 H     1.0000    0     1.008   -7.131677    4.796590    0.880934
  38 H     1.0000    0     1.008   -0.223919   -8.601344   -0.816598
  39 C     6.0000    0    12.011   -7.805109    0.000076   -1.377614
  40 H     1.0000    0     1.008   -7.144849    0.000066   -3.329692
  41 H     1.0000    0     1.008   -8.992800   -1.660979   -1.106769
  42 H     1.0000    0     1.008   -8.992764    1.661158   -1.106773
  43 C     6.0000    0    12.011   -6.622938    0.000079    3.192220
  44 H     1.0000    0     1.008   -7.791740   -1.661731    3.532767
  45 H     1.0000    0     1.008   -5.095437    0.000036    4.576578
  46 H     1.0000    0     1.008   -7.791645    1.661957    3.532766

--------------------------------
INTERNAL COORDINATES (ANGSTROEM)
--------------------------------
 C      0   0   0     0.000000000000     0.00000000     0.00000000
 C      1   0   0     1.381733723778     0.00000000     0.00000000
 C      2   1   0     1.402379562536   120.97985182     0.00000000
 C      3   2   1     1.402708656765   119.41895130     0.28485418
 C      4   3   2     1.392003908722   118.08373792   359.60498445
 C      5   4   3     1.385159992508   122.61600352     0.22767357
 C      4   3   2     1.520429257141   122.69758508   179.36179733
 C      7   4   3     1.520428392974   111.48106929     0.03773281
 C      8   7   4     1.402707127333   122.69757483   359.96295096
 C      9   8   7     1.402380946190   119.41901256   180.63696247
 H     10   9   8     1.081207604110   119.58146388   179.84923806
 C     10   9   8     1.381733987252   120.97981171   359.71589631
 C     12  10   9     1.386546122648   120.14276456     0.00000000
 C     13  12  10     1.385160162097   118.75749842     0.18369657
 H      2   1   3     1.081207502324   119.43849211   180.13323895
 H      5   4   3     1.083879689090   118.42826269   180.15099490
 H      6   5   4     1.082167105113   120.35854162   179.98146526
 H     12  10   9     1.082946631710   119.27839074   180.01951014
 H     13  12  10     1.082166764504   120.88385113   180.10163855
 N      9   8   7     1.395440108345   120.73520942     0.43914606
 C     20   9   8     1.430014531626   119.16762481   180.62252147
 C     21  20   9     1.417640365450   119.33362399    89.27759193
 C     21  20   9     1.370009999374   119.71293387   269.27786869
 C     22  21  20     1.411837884281   122.72922712     0.00000000
 C     22  21  20     1.427459639774   118.25884994   180.00060971
 C     23  21  20     1.404705597684   120.46880668   179.99962409
 H     23  21  20     1.083144648286   119.11925054     0.00000000
 C     24  22  21     1.369756454535   120.60448282   180.00013503
 H     24  22  21     1.083496915135   119.07888522     0.00000000
 C     25  22  21     1.412195155546   118.73921949   179.99976356
 C     26  23  21     1.368701260370   120.23632838     0.00000000
 H     26  23  21     1.082376083211   119.42784903   179.99994357
 C     30  25  22     1.368795345003   120.90589884     0.00000000
 H     28  24  22     1.082713207879   119.89695003   180.00002609
 H     30  25  22     1.083691307929   118.46547184   180.00005005
 H     31  26  23     1.083575461123   120.61896124   180.00015399
 H     33  30  25     1.082709287991   120.13212260   179.99994104
 H     14  13  12     1.083879151701   118.95551504   179.85972370
 H      1   2   3     1.082947080244   119.27837795   179.98054128
 C      7   4   3     1.535984672279   109.25757700   120.89673346
 H     40   7   4     1.090484083366   111.18759124   298.89749505
 H     40   7   4     1.090036689607   110.98928218    59.16252239
 H     40   7   4     1.090037567599   110.98935341   178.63243329
 C      7   4   3     1.536551910023   109.01400282   239.64449392
 H     44   7   4     1.090115541937   111.00757905   300.73450114
 H     44   7   4     1.090889488597   111.08355803    60.94877814
 H     44   7   4     1.090116050737   111.00746943   181.16301998

---------------------------
INTERNAL COORDINATES (A.U.)
---------------------------
 C      0   0   0     0.000000000000     0.00000000     0.00000000
 C      1   0   0     2.611098327943     0.00000000     0.00000000
 C      2   1   0     2.650113309001   120.97985182     0.00000000
 C      3   2   1     2.650735206966   119.41895130     0.28485418
 C      4   3   2     2.630506164833   118.08373792   359.60498445
 C      5   4   3     2.617573037505   122.61600352     0.22767357
 C      4   3   2     2.873194901997   122.69758508   179.36179733
 C      7   4   3     2.873193268960   111.48106929     0.03773281
 C      8   7   4     2.650732316758   122.69757483   359.96295096
 C      9   8   7     2.650115923729   119.41901256   180.63696247
 H     10   9   8     2.043186265681   119.58146388   179.84923806
 C     10   9   8     2.611098825836   120.97981171   359.71589631
 C     12  10   9     2.620192443855   120.14276456     0.00000000
 C     13  12  10     2.617573357982   118.75749842     0.18369657
 H      2   1   3     2.043186073333   119.43849211   180.13323895
 H      5   4   3     2.048235774500   118.42826269   180.15099490
 H      6   5   4     2.044999459802   120.35854162   179.98146526
 H     12  10   9     2.046472551583   119.27839074   180.01951014
 H     13  12  10     2.044998816143   120.88385113   180.10163855
 N      9   8   7     2.636999641061   120.73520942     0.43914606
 C     20   9   8     2.702335832300   119.16762481   180.62252147
 C     21  20   9     2.678952047093   119.33362399    89.27759193
 C     21  20   9     2.588943699551   119.71293387   269.27786869
 C     22  21  20     2.667986946785   122.72922712     0.00000000
 C     22  21  20     2.697507786400   118.25884994   180.00060971
 C     23  21  20     2.654508878410   120.46880668   179.99962409
 H     23  21  20     2.046846748682   119.11925054     0.00000000
 C     24  22  21     2.588464569243   120.60448282   180.00013503
 H     24  22  21     2.047512436553   119.07888522     0.00000000
 C     25  22  21     2.668662091632   118.73921949   179.99976356
 C     26  23  21     2.586470541252   120.23632838     0.00000000
 H     26  23  21     2.045394371176   119.42784903   179.99994357
 C     30  25  22     2.586648335441   120.90589884     0.00000000
 H     28  24  22     2.046031444470   119.89695003   180.00002609
 H     30  25  22     2.047879785696   118.46547184   180.00005005
 H     31  26  23     2.047660866961   120.61896124   180.00015399
 H     33  30  25     2.046024036955   120.13212260   179.99994104
 H     14  13  12     2.048234758983   118.95551504   179.85972370
 H      1   2   3     2.046473399191   119.27837795   179.98054128
 C      7   4   3     2.902590376507   109.25757700   120.89673346
 H     40   7   4     2.060716270962   111.18759124   298.89749505
 H     40   7   4     2.059870819284   110.98928218    59.16252239
 H     40   7   4     2.059872478449   110.98935341   178.63243329
 C      7   4   3     2.903662300497   109.01400282   239.64449392
 H     44   7   4     2.060019828592   111.00757905   300.73450114
 H     44   7   4     2.061482375821   111.08355803    60.94877814
 H     44   7   4     2.060020790084   111.00746943   181.16301998

---------------------
BASIS SET INFORMATION
---------------------
There are 3 groups of distinct atoms

 Group   1 Type C   : 11s6p2d1f contracted to 5s3p2d1f pattern {62111/411/11/1}
 Group   2 Type H   : 5s1p contracted to 3s1p pattern {311/1}
 Group   3 Type N   : 11s6p2d1f contracted to 5s3p2d1f pattern {62111/411/11/1}

Atom   0C    basis set group =>   1
Atom   1C    basis set group =>   1
Atom   2C    basis set group =>   1
Atom   3C    basis set group =>   1
Atom   4C    basis set group =>   1
Atom   5C    basis set group =>   1
Atom   6C    basis set group =>   1
Atom   7C    basis set group =>   1
Atom   8C    basis set group =>   1
Atom   9C    basis set group =>   1
Atom  10H    basis set group =>   2
Atom  11C    basis set group =>   1
Atom  12C    basis set group =>   1
Atom  13C    basis set group =>   1
Atom  14H    basis set group =>   2
Atom  15H    basis set group =>   2
Atom  16H    basis set group =>   2
Atom  17H    basis set group =>   2
Atom  18H    basis set group =>   2
Atom  19N    basis set group =>   3
Atom  20C    basis set group =>   1
Atom  21C    basis set group =>   1
Atom  22C    basis set group =>   1
Atom  23C    basis set group =>   1
Atom  24C    basis set group =>   1
Atom  25C    basis set group =>   1
Atom  26H    basis set group =>   2
Atom  27C    basis set group =>   1
Atom  28H    basis set group =>   2
Atom  29C    basis set group =>   1
Atom  30C    basis set group =>   1
Atom  31H    basis set group =>   2
Atom  32C    basis set group =>   1
Atom  33H    basis set group =>   2
Atom  34H    basis set group =>   2
Atom  35H    basis set group =>   2
Atom  36H    basis set group =>   2
Atom  37H    basis set group =>   2
Atom  38H    basis set group =>   2
Atom  39C    basis set group =>   1
Atom  40H    basis set group =>   2
Atom  41H    basis set group =>   2
Atom  42H    basis set group =>   2
Atom  43C    basis set group =>   1
Atom  44H    basis set group =>   2
Atom  45H    basis set group =>   2
Atom  46H    basis set group =>   2
---------------------------------
AUXILIARY/J BASIS SET INFORMATION
---------------------------------
There are 3 groups of distinct atoms

 Group   1 Type C   : 12s5p4d2f1g contracted to 6s4p3d1f1g pattern {711111/2111/211/2/1}
 Group   2 Type H   : 5s2p1d contracted to 3s1p1d pattern {311/2/1}
 Group   3 Type N   : 12s5p4d2f1g contracted to 6s4p3d1f1g pattern {711111/2111/211/2/1}

Atom   0C    basis set group =>   1
Atom   1C    basis set group =>   1
Atom   2C    basis set group =>   1
Atom   3C    basis set group =>   1
Atom   4C    basis set group =>   1
Atom   5C    basis set group =>   1
Atom   6C    basis set group =>   1
Atom   7C    basis set group =>   1
Atom   8C    basis set group =>   1
Atom   9C    basis set group =>   1
Atom  10H    basis set group =>   2
Atom  11C    basis set group =>   1
Atom  12C    basis set group =>   1
Atom  13C    basis set group =>   1
Atom  14H    basis set group =>   2
Atom  15H    basis set group =>   2
Atom  16H    basis set group =>   2
Atom  17H    basis set group =>   2
Atom  18H    basis set group =>   2
Atom  19N    basis set group =>   3
Atom  20C    basis set group =>   1
Atom  21C    basis set group =>   1
Atom  22C    basis set group =>   1
Atom  23C    basis set group =>   1
Atom  24C    basis set group =>   1
Atom  25C    basis set group =>   1
Atom  26H    basis set group =>   2
Atom  27C    basis set group =>   1
Atom  28H    basis set group =>   2
Atom  29C    basis set group =>   1
Atom  30C    basis set group =>   1
Atom  31H    basis set group =>   2
Atom  32C    basis set group =>   1
Atom  33H    basis set group =>   2
Atom  34H    basis set group =>   2
Atom  35H    basis set group =>   2
Atom  36H    basis set group =>   2
Atom  37H    basis set group =>   2
Atom  38H    basis set group =>   2
Atom  39C    basis set group =>   1
Atom  40H    basis set group =>   2
Atom  41H    basis set group =>   2
Atom  42H    basis set group =>   2
Atom  43C    basis set group =>   1
Atom  44H    basis set group =>   2
Atom  45H    basis set group =>   2
Atom  46H    basis set group =>   2
---------------------------------
AUXILIARY/C BASIS SET INFORMATION
---------------------------------
There are 3 groups of distinct atoms

 Group   1 Type C   : 8s6p5d3f1g contracted to 8s6p4d3f1g pattern {11111111/111111/2111/111/1}
 Group   2 Type H   : 4s3p2d contracted to 4s2p1d pattern {1111/21/2}
 Group   3 Type N   : 8s6p5d3f1g contracted to 8s6p4d3f1g pattern {11111111/111111/2111/111/1}

Atom   0C    basis set group =>   1
Atom   1C    basis set group =>   1
Atom   2C    basis set group =>   1
Atom   3C    basis set group =>   1
Atom   4C    basis set group =>   1
Atom   5C    basis set group =>   1
Atom   6C    basis set group =>   1
Atom   7C    basis set group =>   1
Atom   8C    basis set group =>   1
Atom   9C    basis set group =>   1
Atom  10H    basis set group =>   2
Atom  11C    basis set group =>   1
Atom  12C    basis set group =>   1
Atom  13C    basis set group =>   1
Atom  14H    basis set group =>   2
Atom  15H    basis set group =>   2
Atom  16H    basis set group =>   2
Atom  17H    basis set group =>   2
Atom  18H    basis set group =>   2
Atom  19N    basis set group =>   3
Atom  20C    basis set group =>   1
Atom  21C    basis set group =>   1
Atom  22C    basis set group =>   1
Atom  23C    basis set group =>   1
Atom  24C    basis set group =>   1
Atom  25C    basis set group =>   1
Atom  26H    basis set group =>   2
Atom  27C    basis set group =>   1
Atom  28H    basis set group =>   2
Atom  29C    basis set group =>   1
Atom  30C    basis set group =>   1
Atom  31H    basis set group =>   2
Atom  32C    basis set group =>   1
Atom  33H    basis set group =>   2
Atom  34H    basis set group =>   2
Atom  35H    basis set group =>   2
Atom  36H    basis set group =>   2
Atom  37H    basis set group =>   2
Atom  38H    basis set group =>   2
Atom  39C    basis set group =>   1
Atom  40H    basis set group =>   2
Atom  41H    basis set group =>   2
Atom  42H    basis set group =>   2
Atom  43C    basis set group =>   1
Atom  44H    basis set group =>   2
Atom  45H    basis set group =>   2
Atom  46H    basis set group =>   2


           ************************************************************
           *        Program running with 4 parallel MPI-processes     *
           *              working on a common directory               *
           ************************************************************
------------------------------------------------------------------------------
                           ORCA GTO INTEGRAL CALCULATION
                           -- RI-GTO INTEGRALS CHOSEN --
------------------------------------------------------------------------------
------------------------------------------------------------------------------
                   ___                                                        
                  /   \      - P O W E R E D   B Y -                         
                 /     \                                                     
                 |  |  |   _    _      __       _____    __    __             
                 |  |  |  | |  | |    /  \     |  _  \  |  |  /  |          
                  \  \/   | |  | |   /    \    | | | |  |  | /  /          
                 / \  \   | |__| |  /  /\  \   | |_| |  |  |/  /          
                |  |  |   |  __  | /  /__\  \  |    /   |      \           
                |  |  |   | |  | | |   __   |  |    \   |  |\   \          
                \     /   | |  | | |  |  |  |  | |\  \  |  | \   \       
                 \___/    |_|  |_| |__|  |__|  |_| \__\ |__|  \__/        
                                                                              
                      - O R C A' S   B I G   F R I E N D -                    
                                      &                                       
                       - I N T E G R A L  F E E D E R -                       
                                                                              
 v1 FN, 2020, v2 2021                                                         
------------------------------------------------------------------------------


Reading SHARK input file Me2-Acr_1_M06L_def2TZVP_coords.SHARKINP.tmp ... ok
----------------------
SHARK INTEGRAL PACKAGE
----------------------

Number of atoms                             ...     47
Number of basis functions                   ...    932
Number of shells                            ...    370
Maximum angular momentum                    ...      3
Integral batch strategy                     ... SHARK/LIBINT Hybrid
RI-J (if used) integral strategy            ... SPLIT-RIJ (Revised 2003 algorithm where possible)
Printlevel                                  ...      1
Contraction scheme used                     ... SEGMENTED contraction
Coulomb Range Separation                    ... NOT USED
Exchange Range Separation                   ... Long Range
   Mu parameter                             ...  0.180000
   Scaling (regular/separated)              ...  0.700000  0.300000
Finite Nucleus Model                        ... NOT USED
Auxiliary Coulomb fitting basis             ... AVAILABLE
   # of basis functions in Aux-J            ...   1505
   # of shells in Aux-J                     ...    495
   Maximum angular momentum in Aux-J        ...      4
Auxiliary J/K fitting basis                 ... NOT available
Auxiliary Correlation fitting basis         ... AVAILABLE
   # of basis functions in Aux-C            ...   2291
   # of shells in Aux-C                     ...    719
   Maximum angular momentum in Aux-C        ...      4
Auxiliary 'external' fitting basis          ... NOT available
Integral threshold                          ...     2.500000e-11
Primitive cut-off                           ...     2.500000e-12
Primitive pair pre-selection threshold      ...     2.500000e-12

Calculating pre-screening integrals         ... done (  0.2 sec) Dimension = 370
Organizing shell pair data                  ... done (  6.4 sec)
Shell pair information
Total number of shell pairs                 ...     68635
Shell pairs after pre-screening             ...     49934
Total number of primitive shell pairs       ...    209616
Primitive shell pairs kept                  ...    100617
          la=0 lb=0:  12983 shell pairs
          la=1 lb=0:  14389 shell pairs
          la=1 lb=1:   3985 shell pairs
          la=2 lb=0:   7144 shell pairs
          la=2 lb=1:   3982 shell pairs
          la=2 lb=2:   1043 shell pairs
          la=3 lb=0:   3333 shell pairs
          la=3 lb=1:   1895 shell pairs
          la=3 lb=2:    941 shell pairs
          la=3 lb=3:    239 shell pairs

Calculating one electron integrals          ... done (  0.3 sec)
Calculating RI/J V-Matrix + Cholesky decomp.... done (  0.2 sec)
Calculating RI/C V-Matrix + Cholesky decomp.... done (  0.4 sec)
Calculating Nuclear repulsion               ... done (  0.0 sec) ENN=   2238.522328077757 Eh

SHARK setup successfully completed in   8.4 seconds

Maximum memory used throughout the entire GTOINT-calculation: 92.0 MB


           ************************************************************
           *        Program running with 4 parallel MPI-processes     *
           *              working on a common directory               *
           ************************************************************
-------------------------------------------------------------------------------
                                 ORCA SCF
-------------------------------------------------------------------------------

------------
SCF SETTINGS
------------
Hamiltonian:
 Density Functional     Method          .... DFT(GTOs)
 Exchange Functional    Exchange        .... LC-PBE
 Correlation Functional Correlation     .... P86
 LDA part of GGA corr.  LDAOpt          .... VWN-5
 Gradients option       PostSCFGGA      .... off
 Hybrid DFT is turned on
   Fraction HF Exchange ScalHFX         ....  0.700000
   Scaling of DF-GGA-X  ScalDFX         ....  0.000000
   Scaling of DF-GGA-C  ScalDFC         ....  0.680000
   Scaling of DF-LDA-C  ScalLDAC        ....  0.680000
   Perturbative correction              ....  0.480000
   Density functional embedding theory  .... OFF
 Long-range corrected/Screened/Range-Separated Hybrid DFT is turned on
   Amount of maximum screened exact exchange              ....  0.300000
   Range separation parameter mu (erf(mu*r12)/r12)        ....  0.180000
 RI-approximation to the Coulomb term is turned on
   Number of AuxJ basis functions       .... 1505
   RIJ-COSX (HFX calculated with COS-X)).... on


General Settings:
 Integral files         IntName         .... Me2-Acr_1_M06L_def2TZVP_coords
 Hartree-Fock type      HFTyp           .... RHF
 Total Charge           Charge          ....    0
 Multiplicity           Mult            ....    1
 Number of Electrons    NEL             ....  178
 Basis Dimension        Dim             ....  932
 Nuclear Repulsion      ENuc            ....   2238.5223280778 Eh

Convergence Acceleration:
 DIIS                   CNVDIIS         .... on
   Start iteration      DIISMaxIt       ....    12
   Startup error        DIISStart       ....  0.200000
   # of expansion vecs  DIISMaxEq       ....     5
   Bias factor          DIISBfac        ....   1.050
   Max. coefficient     DIISMaxC        ....  10.000
 Trust-Rad. Augm. Hess. CNVTRAH         .... auto
   Auto Start mean grad. ratio tolernc. ....  1.125000
   Auto Start start iteration           ....    20
   Auto Start num. interpolation iter.  ....    10
   Max. Number of Micro iterations      ....    16
   Max. Number of Macro iterations      .... Maxiter - #DIIS iter
   Number of Davidson start vectors     ....     2
   Converg. threshold I  (grad. norm)   ....   1.000e-05
   Converg. threshold II (energy diff.) ....   1.000e-08
   Grad. Scal. Fac. for Micro threshold ....   0.100
   Minimum threshold for Micro iter.    ....   0.010
   NR start threshold (gradient norm)   ....   0.001
   Initial trust radius                 ....   0.400
   Minimum AH scaling param. (alpha)    ....   1.000
   Maximum AH scaling param. (alpha)    .... 1000.000
   Orbital update algorithm             .... Taylor
   White noise on init. David. guess    .... on
   Maximum white noise                  ....   0.010
   Quad. conv. algorithm                .... NR
 SOSCF                  CNVSOSCF        .... on
   Start iteration      SOSCFMaxIt      ....   150
   Startup grad/error   SOSCFStart      ....  0.003300
 Level Shifting         CNVShift        .... on
   Level shift para.    LevelShift      ....    0.2500
   Turn off err/grad.   ShiftErr        ....    0.0010
 Zerner damping         CNVZerner       .... off
 Static damping         CNVDamp         .... on
   Fraction old density DampFac         ....    0.7000
   Max. Damping (<1)    DampMax         ....    0.9800
   Min. Damping (>=0)   DampMin         ....    0.0000
   Turn off err/grad.   DampErr         ....    0.1000
 Fernandez-Rico         CNVRico         .... off

SCF Procedure:
 Maximum # iterations   MaxIter         ....   125
 SCF integral mode      SCFMode         .... Direct
   Integral package                     .... SHARK and LIBINT hybrid scheme
 Reset frequency        DirectResetFreq ....    20
 Integral Threshold     Thresh          ....  2.500e-11 Eh
 Primitive CutOff       TCut            ....  2.500e-12 Eh

Convergence Tolerance:
 Convergence Check Mode ConvCheckMode   .... Total+1el-Energy
 Convergence forced     ConvForced      .... 1
 Energy Change          TolE            ....  1.000e-08 Eh
 1-El. energy change                    ....  1.000e-05 Eh
 Orbital Gradient       TolG            ....  1.000e-05
 Orbital Rotation angle TolX            ....  1.000e-05
 DIIS Error             TolErr          ....  5.000e-07


Diagonalization of the overlap matrix:
Smallest eigenvalue                        ... 3.645e-06
Time for diagonalization                   ...    0.606 sec
Threshold for overlap eigenvalues          ... 1.000e-08
Number of eigenvalues below threshold      ... 0
Time for construction of square roots      ...    0.478 sec
Total time needed                          ...    1.093 sec

Time for model grid setup =    2.023 sec

------------------------------
INITIAL GUESS: MODEL POTENTIAL
------------------------------
Loading Hartree-Fock densities                     ... done
Calculating cut-offs                               ... done
Initializing the effective Hamiltonian             ... done
Setting up the integral package (SHARK)            ... done
Starting the Coulomb interaction                   ... done (   6.0 sec)
Reading the grid                                   ... done
Mapping shells                                     ... done
Starting the XC term evaluation                    ... done (   3.2 sec)
  promolecular density results
     # of electrons  =    178.010420364
     EX              =   -135.082839919
     EC              =     -2.933757348
     EX+EC           =   -138.016597267
Transforming the Hamiltonian                       ... done (   0.6 sec)
Diagonalizing the Hamiltonian                      ... done (   0.3 sec)
Back transforming the eigenvectors                 ... done (   0.1 sec)
Now organizing SCF variables                       ... done
                      ------------------
                      INITIAL GUESS DONE (  12.3 sec)
                      ------------------
-------------------
DFT GRID GENERATION
-------------------

General Integration Accuracy     IntAcc      ... 4.388
Radial Grid Type                 RadialGrid  ... OptM3 with GC (2021)
Angular Grid (max. ang.)         AngularGrid ... 4 (Lebedev-302)
Angular grid pruning method      GridPruning ... 4 (adaptive)
Weight generation scheme         WeightScheme... Becke
Basis function cutoff            BFCut       ... 1.0000e-11
Integration weight cutoff        WCut        ... 1.0000e-14
Angular grids for H and He will be reduced by one unit
Partially contracted basis set               ... off
Rotationally invariant grid construction     ... off

Total number of grid points                  ...   220540
Total number of batches                      ...     3470
Average number of points per batch           ...       63
Average number of grid points per atom       ...     4692
Time for grid setup =    6.423 sec

--------------------
COSX GRID GENERATION
--------------------

GRIDX 1
-------
General Integration Accuracy     IntAcc      ... 3.816
Radial Grid Type                 RadialGrid  ... OptM3 with GC (2021)
Angular Grid (max. ang.)         AngularGrid ... 1 (Lebedev-50)
Angular grid pruning method      GridPruning ... 4 (adaptive)
Weight generation scheme         WeightScheme... Becke
Basis function cutoff            BFCut       ... 1.0000e-11
Integration weight cutoff        WCut        ... 1.0000e-14
Angular grids for H and He will be reduced by one unit
Partially contracted basis set               ... on
Rotationally invariant grid construction     ... off

Total number of grid points                  ...    28016
Total number of batches                      ...      457
Average number of points per batch           ...       61
Average number of grid points per atom       ...      596
UseSFitting                                  ... on

GRIDX 2
-------
General Integration Accuracy     IntAcc      ... 4.020
Radial Grid Type                 RadialGrid  ... OptM3 with GC (2021)
Angular Grid (max. ang.)         AngularGrid ... 2 (Lebedev-110)
Angular grid pruning method      GridPruning ... 4 (adaptive)
Weight generation scheme         WeightScheme... Becke
Basis function cutoff            BFCut       ... 1.0000e-11
Integration weight cutoff        WCut        ... 1.0000e-14
Angular grids for H and He will be reduced by one unit
Partially contracted basis set               ... on
Rotationally invariant grid construction     ... off

Total number of grid points                  ...    60231
Total number of batches                      ...      964
Average number of points per batch           ...       62
Average number of grid points per atom       ...     1282
UseSFitting                                  ... on

GRIDX 3
-------
General Integration Accuracy     IntAcc      ... 4.338
Radial Grid Type                 RadialGrid  ... OptM3 with GC (2021)
Angular Grid (max. ang.)         AngularGrid ... 3 (Lebedev-194)
Angular grid pruning method      GridPruning ... 4 (adaptive)
Weight generation scheme         WeightScheme... Becke
Basis function cutoff            BFCut       ... 1.0000e-11
Integration weight cutoff        WCut        ... 1.0000e-14
Angular grids for H and He will be reduced by one unit
Partially contracted basis set               ... on
Rotationally invariant grid construction     ... off

Total number of grid points                  ...   131157
Total number of batches                      ...     2073
Average number of points per batch           ...       63
Average number of grid points per atom       ...     2791
UseSFitting                                  ... on

Time for X-Grid setup             =   11.694 sec


--------------------
CPCM SOLVATION MODEL
--------------------
CPCM parameters:
  Epsilon                                         ...      37.2190
  Refrac                                          ...       1.4305
  Rsolv                                           ...       1.3000
  Surface type                                    ... GAUSSIAN VDW
  Epsilon function type                           ...         CPCM
Solvent:                                     ... N,N-DIMETHYLFORMAMIDE
SMD-CDS solvent descriptors:
  Soln                                       ...    1.4305
  Soln25                                     ...    1.4280
  Sola                                       ...    0.0000
  Solb                                       ...    0.7400
  Solg                                       ...   49.5600
  Solc                                       ...    0.0000
  Solh                                       ...    0.0000
Radii:
 Radius for C  used is    3.4960 Bohr (=   1.8500 Ang.)
 Radius for H  used is    2.2677 Bohr (=   1.2000 Ang.)
 Radius for N  used is    3.5716 Bohr (=   1.8900 Ang.)
Calculating surface                               ...        done! (  0.0s)
GEPOL surface points                              ...         2627
GEPOL Volume                                      ...    2356.2800
GEPOL Surface-area                                ...    1266.0629
Calculating surface distance matrix               ...        done! (  0.1s)
Performing Cholesky decomposition & store         ...        done! (  1.7s)
Overall time for CPCM initialization              ...                 1.7s
--------------
SCF ITERATIONS
--------------
ITER       Energy         Delta-E        Max-DP      RMS-DP      [F,P]     Damp
               ***  Starting incremental Fock matrix formation  ***
  0  -1016.8594397417   0.000000000000 0.04561011  0.00060448  0.1737496 0.7000
  1  -1017.0872164859  -0.227776744194 0.03748001  0.00051142  0.1087013 0.7000
                               ***Turning on DIIS***
  2  -1017.2244337431  -0.137217257265 0.09509515  0.00121106  0.0614564 0.0000
  3  -1017.4827680023  -0.258334259132 0.04997241  0.00033342  0.0315481 0.0000
  4  -1017.5004389494  -0.017670947147 0.01369116  0.00011296  0.0074513 0.0000
                      *** Initiating the SOSCF procedure ***
                           *** Shutting down DIIS ***
                      *** Re-Reading the Fockian *** 
                      *** Removing any level shift *** 
ITER      Energy       Delta-E        Grad      Rot      Max-DP    RMS-DP
  5  -1017.50114742  -0.0007084702  0.001345  0.001345  0.007229  0.000050
               *** Restarting incremental Fock matrix formation ***
  6  -1017.50120043  -0.0000530065  0.001150  0.002876  0.028541  0.000227
  7  -1017.50124598  -0.0000455563  0.000408  0.001773  0.013186  0.000094
  8  -1017.50125608  -0.0000100980  0.000129  0.000244  0.011395  0.000076
  9  -1017.50125862  -0.0000025369  0.000074  0.000185  0.000816  0.000008
 10  -1017.50125884  -0.0000002271  0.000023  0.000077  0.001180  0.000006
 11  -1017.50125890  -0.0000000517  0.000009  0.000048  0.000464  0.000004
 12  -1017.50125891  -0.0000000113  0.000005  0.000022  0.000229  0.000002
                  ***Gradient check signals convergence***
              ***Rediagonalizing the Fockian in SOSCF/NRSCF***

               *****************************************************
               *                     SUCCESS                       *
               *           SCF CONVERGED AFTER  13 CYCLES          *
               *****************************************************

Old exchange energy                            =   -106.074977788 Eh
New exchange energy                            =   -106.075109768 Eh
Exchange energy change after final integration =     -0.000131980 Eh
Total energy after final integration           =  -1017.501390920 Eh
Final COS-X integration done in                =   295.324 sec

SMD CDS free energy correction energy :                -3.58485     Kcal/mol
Total Energy after SMD CDS correction =             -1017.507103734 Eh

----------------
TOTAL SCF ENERGY
----------------

Total Energy       :        -1017.50710373 Eh          -27687.77591 eV

Components:
Nuclear Repulsion  :         2238.52232808 Eh           60913.28932 eV
Electronic Energy  :        -3256.02943181 Eh          -88601.06523 eV
One Electron Energy:        -5827.85623163 Eh         -158584.03032 eV
Two Electron Energy:         2571.82679982 Eh           69982.96509 eV
Max COSX asymmetry :            0.00000857 Eh               0.00023 eV
CPCM Dielectric    :           -0.02427759 Eh              -0.66063 eV
SMD CDS (Gcds)     :           -0.00571281 Eh              -0.15545 eV

Virial components:
Potential Energy   :        -2030.76379134 Eh          -55259.89212 eV
Kinetic Energy     :         1013.25668761 Eh           27572.11621 eV
Virial Ratio       :            2.00419481


DFT components:
N(Alpha)           :       88.999896875629 electrons
N(Beta)            :       88.999896875629 electrons
N(Total)           :      177.999793751258 electrons
E(X)               :      -37.278534065316 Eh       
E(C)               :       -4.458186561275 Eh       
E(XC)              :      -41.736720626591 Eh       
DFET-embed. en.    :        0.000000000000 Eh       
CPCM Solvation Model Properties:
Surface-charge          :           -0.06964898
Charge-correction       :            0.00004303 Eh               0.00117 eV
Free-energy (cav+disp)  :           -0.00571281 Eh              -0.15545 eV

---------------
SCF CONVERGENCE
---------------

  Last Energy change         ...   -3.2507e-08  Tolerance :   1.0000e-08
  Last MAX-Density change    ...    1.5543e-15  Tolerance :   1.0000e-07
  Last RMS-Density change    ...    1.2240e-17  Tolerance :   5.0000e-09
  Last Orbital Gradient      ...    1.9535e-06  Tolerance :   1.0000e-05
  Last Orbital Rotation      ...    6.3828e-06  Tolerance :   1.0000e-05

             **** THE GBW FILE WAS UPDATED (Me2-Acr_1_M06L_def2TZVP_coords.gbw) ****
             **** DENSITY Me2-Acr_1_M06L_def2TZVP_coords.scfp WAS UPDATED ****
             **** ENERGY FILE WAS UPDATED (Me2-Acr_1_M06L_def2TZVP_coords.en.tmp) ****
             **** THE GBW FILE WAS UPDATED (Me2-Acr_1_M06L_def2TZVP_coords.gbw) ****
             **** DENSITY Me2-Acr_1_M06L_def2TZVP_coords.scfp WAS UPDATED ****
----------------
ORBITAL ENERGIES
----------------

  NO   OCC          E(Eh)            E(eV) 
   0   2.0000     -15.163934      -412.6316 
   1   2.0000     -10.917065      -297.0684 
   2   2.0000     -10.917048      -297.0680 
   3   2.0000     -10.910771      -296.8972 
   4   2.0000     -10.883953      -296.1674 
   5   2.0000     -10.883444      -296.1536 
   6   2.0000     -10.882478      -296.1273 
   7   2.0000     -10.872039      -295.8432 
   8   2.0000     -10.871755      -295.8355 
   9   2.0000     -10.870502      -295.8014 
  10   2.0000     -10.870489      -295.8010 
  11   2.0000     -10.870015      -295.7882 
  12   2.0000     -10.869865      -295.7841 
  13   2.0000     -10.869846      -295.7836 
  14   2.0000     -10.868857      -295.7566 
  15   2.0000     -10.867714      -295.7255 
  16   2.0000     -10.863788      -295.6187 
  17   2.0000     -10.863788      -295.6187 
  18   2.0000     -10.863145      -295.6012 
  19   2.0000     -10.863144      -295.6012 
  20   2.0000     -10.859555      -295.5035 
  21   2.0000     -10.859555      -295.5035 
  22   2.0000     -10.854803      -295.3742 
  23   2.0000     -10.854803      -295.3742 
  24   2.0000     -10.839267      -294.9515 
  25   2.0000     -10.839257      -294.9512 
  26   2.0000      -1.229533       -33.4573 
  27   2.0000      -1.121467       -30.5167 
  28   2.0000      -1.094022       -29.7698 
  29   2.0000      -1.091908       -29.7123 
  30   2.0000      -1.055689       -28.7268 
  31   2.0000      -1.038697       -28.2644 
  32   2.0000      -0.999111       -27.1872 
  33   2.0000      -0.974873       -26.5276 
  34   2.0000      -0.962785       -26.1987 
  35   2.0000      -0.960449       -26.1351 
  36   2.0000      -0.945724       -25.7345 
  37   2.0000      -0.938104       -25.5271 
  38   2.0000      -0.908905       -24.7326 
  39   2.0000      -0.881861       -23.9966 
  40   2.0000      -0.833656       -22.6849 
  41   2.0000      -0.816801       -22.2263 
  42   2.0000      -0.814402       -22.1610 
  43   2.0000      -0.807821       -21.9819 
  44   2.0000      -0.791252       -21.5311 
  45   2.0000      -0.774882       -21.0856 
  46   2.0000      -0.747235       -20.3333 
  47   2.0000      -0.715897       -19.4805 
  48   2.0000      -0.708323       -19.2744 
  49   2.0000      -0.694451       -18.8970 
  50   2.0000      -0.683542       -18.6001 
  51   2.0000      -0.662774       -18.0350 
  52   2.0000      -0.645886       -17.5755 
  53   2.0000      -0.624562       -16.9952 
  54   2.0000      -0.619552       -16.8589 
  55   2.0000      -0.611317       -16.6348 
  56   2.0000      -0.607664       -16.5354 
  57   2.0000      -0.604252       -16.4425 
  58   2.0000      -0.584879       -15.9154 
  59   2.0000      -0.581124       -15.8132 
  60   2.0000      -0.576713       -15.6932 
  61   2.0000      -0.568983       -15.4828 
  62   2.0000      -0.566516       -15.4157 
  63   2.0000      -0.562859       -15.3162 
  64   2.0000      -0.560402       -15.2493 
  65   2.0000      -0.545699       -14.8492 
  66   2.0000      -0.534070       -14.5328 
  67   2.0000      -0.530133       -14.4257 
  68   2.0000      -0.525196       -14.2913 
  69   2.0000      -0.517932       -14.0937 
  70   2.0000      -0.516082       -14.0433 
  71   2.0000      -0.504330       -13.7235 
  72   2.0000      -0.501332       -13.6419 
  73   2.0000      -0.494686       -13.4611 
  74   2.0000      -0.481605       -13.1052 
  75   2.0000      -0.479368       -13.0443 
  76   2.0000      -0.469268       -12.7694 
  77   2.0000      -0.466120       -12.6838 
  78   2.0000      -0.458084       -12.4651 
  79   2.0000      -0.447755       -12.1840 
  80   2.0000      -0.446092       -12.1388 
  81   2.0000      -0.437138       -11.8951 
  82   2.0000      -0.398914       -10.8550 
  83   2.0000      -0.358112        -9.7447 
  84   2.0000      -0.347339        -9.4516 
  85   2.0000      -0.342425        -9.3179 
  86   2.0000      -0.339499        -9.2382 
  87   2.0000      -0.309536        -8.4229 
  88   2.0000      -0.279326        -7.6008 
  89   0.0000       0.032291         0.8787 
  90   0.0000       0.058609         1.5948 
  91   0.0000       0.071285         1.9398 
  92   0.0000       0.077445         2.1074 
  93   0.0000       0.092969         2.5298 
  94   0.0000       0.113872         3.0986 
  95   0.0000       0.120481         3.2784 
  96   0.0000       0.121404         3.3036 
  97   0.0000       0.139160         3.7867 
  98   0.0000       0.145994         3.9727 
  99   0.0000       0.151595         4.1251 
 100   0.0000       0.155259         4.2248 
 101   0.0000       0.156773         4.2660 
 102   0.0000       0.170084         4.6282 
 103   0.0000       0.172753         4.7008 
 104   0.0000       0.173945         4.7333 
 105   0.0000       0.181043         4.9264 
 106   0.0000       0.185267         5.0414 
 107   0.0000       0.193224         5.2579 
 108   0.0000       0.194841         5.3019 
 109   0.0000       0.195842         5.3291 
 110   0.0000       0.203334         5.5330 
 111   0.0000       0.206869         5.6292 
 112   0.0000       0.210051         5.7158 
 113   0.0000       0.213961         5.8222 
 114   0.0000       0.216887         5.9018 
 115   0.0000       0.219505         5.9730 
 116   0.0000       0.231089         6.2882 
 117   0.0000       0.235115         6.3978 
 118   0.0000       0.241987         6.5848 
 119   0.0000       0.252208         6.8629 
 120   0.0000       0.260798         7.0967 
 121   0.0000       0.260834         7.0977 
 122   0.0000       0.268168         7.2972 
 123   0.0000       0.268616         7.3094 
 124   0.0000       0.272618         7.4183 
 125   0.0000       0.276225         7.5165 
 126   0.0000       0.279111         7.5950 
 127   0.0000       0.287115         7.8128 
 128   0.0000       0.289945         7.8898 
 129   0.0000       0.291550         7.9335 
 130   0.0000       0.293300         7.9811 
 131   0.0000       0.299876         8.1600 
 132   0.0000       0.302925         8.2430 
 133   0.0000       0.305158         8.3038 
 134   0.0000       0.307565         8.3693 
 135   0.0000       0.310880         8.4595 
 136   0.0000       0.316504         8.6125 
 137   0.0000       0.319686         8.6991 
 138   0.0000       0.322100         8.7648 
 139   0.0000       0.327486         8.9113 
 140   0.0000       0.332544         9.0490 
 141   0.0000       0.334848         9.1117 
 142   0.0000       0.341142         9.2829 
 143   0.0000       0.341717         9.2986 
 144   0.0000       0.348415         9.4808 
 145   0.0000       0.355757         9.6807 
 146   0.0000       0.356705         9.7064 
 147   0.0000       0.366397         9.9702 
 148   0.0000       0.369923        10.0661 
 149   0.0000       0.374339        10.1863 
 150   0.0000       0.374687        10.1957 
 151   0.0000       0.380412        10.3515 
 152   0.0000       0.382822        10.4171 
 153   0.0000       0.390450        10.6247 
 154   0.0000       0.397242        10.8095 
 155   0.0000       0.403493        10.9796 
 156   0.0000       0.405339        11.0298 
 157   0.0000       0.412575        11.2267 
 158   0.0000       0.413194        11.2436 
 159   0.0000       0.416702        11.3390 
 160   0.0000       0.422154        11.4874 
 161   0.0000       0.422609        11.4998 
 162   0.0000       0.427154        11.6235 
 163   0.0000       0.427799        11.6410 
 164   0.0000       0.434539        11.8244 
 165   0.0000       0.436161        11.8686 
 166   0.0000       0.440417        11.9844 
 167   0.0000       0.444322        12.0906 
 168   0.0000       0.444962        12.1080 
 169   0.0000       0.457578        12.4513 
 170   0.0000       0.464409        12.6372 
 171   0.0000       0.469316        12.7707 
 172   0.0000       0.471923        12.8417 
 173   0.0000       0.472761        12.8645 
 174   0.0000       0.473005        12.8711 
 175   0.0000       0.475410        12.9366 
 176   0.0000       0.485172        13.2022 
 177   0.0000       0.494906        13.4671 
 178   0.0000       0.501236        13.6393 
 179   0.0000       0.502154        13.6643 
 180   0.0000       0.503213        13.6931 
 181   0.0000       0.505103        13.7445 
 182   0.0000       0.507961        13.8223 
 183   0.0000       0.512674        13.9506 
 184   0.0000       0.514753        14.0071 
 185   0.0000       0.517359        14.0780 
 186   0.0000       0.520951        14.1758 
 187   0.0000       0.521006        14.1773 
 188   0.0000       0.523647        14.2492 
 189   0.0000       0.525292        14.2939 
 190   0.0000       0.527950        14.3663 
 191   0.0000       0.534133        14.5345 
 192   0.0000       0.537876        14.6364 
 193   0.0000       0.540378        14.7044 
 194   0.0000       0.545176        14.8350 
 195   0.0000       0.552569        15.0362 
 196   0.0000       0.553155        15.0521 
 197   0.0000       0.558997        15.2111 
 198   0.0000       0.565811        15.3965 
 199   0.0000       0.566417        15.4130 
 200   0.0000       0.571470        15.5505 
 201   0.0000       0.573665        15.6102 
 202   0.0000       0.577739        15.7211 
 203   0.0000       0.581981        15.8365 
 204   0.0000       0.588510        16.0142 
 205   0.0000       0.588768        16.0212 
 206   0.0000       0.595268        16.1981 
 207   0.0000       0.601435        16.3659 
 208   0.0000       0.604223        16.4417 
 209   0.0000       0.606892        16.5144 
 210   0.0000       0.609742        16.5919 
 211   0.0000       0.616682        16.7808 
 212   0.0000       0.619533        16.8584 
 213   0.0000       0.620293        16.8790 
 214   0.0000       0.626628        17.0514 
 215   0.0000       0.626883        17.0584 
 216   0.0000       0.629224        17.1221 
 217   0.0000       0.637736        17.3537 
 218   0.0000       0.649266        17.6674 
 219   0.0000       0.650576        17.7031 
 220   0.0000       0.657524        17.8921 
 221   0.0000       0.659727        17.9521 
 222   0.0000       0.664323        18.0772 
 223   0.0000       0.667105        18.1529 
 224   0.0000       0.674858        18.3638 
 225   0.0000       0.678970        18.4757 
 226   0.0000       0.687427        18.7058 
 227   0.0000       0.692747        18.8506 
 228   0.0000       0.695465        18.9246 
 229   0.0000       0.705044        19.1852 
 230   0.0000       0.712270        19.3819 
 231   0.0000       0.716812        19.5055 
 232   0.0000       0.722867        19.6702 
 233   0.0000       0.723010        19.6741 
 234   0.0000       0.729847        19.8602 
 235   0.0000       0.739453        20.1215 
 236   0.0000       0.742257        20.1978 
 237   0.0000       0.756593        20.5879 
 238   0.0000       0.761426        20.7195 
 239   0.0000       0.771253        20.9868 
 240   0.0000       0.777772        21.1642 
 241   0.0000       0.782608        21.2958 
 242   0.0000       0.787881        21.4393 
 243   0.0000       0.796226        21.6664 
 244   0.0000       0.803073        21.8527 
 245   0.0000       0.804933        21.9034 
 246   0.0000       0.807347        21.9690 
 247   0.0000       0.809952        22.0399 
 248   0.0000       0.812320        22.1044 
 249   0.0000       0.814257        22.1570 
 250   0.0000       0.819574        22.3018 
 251   0.0000       0.827566        22.5192 
 252   0.0000       0.829534        22.5728 
 253   0.0000       0.835512        22.7354 
 254   0.0000       0.837720        22.7955 
 255   0.0000       0.838948        22.8289 
 256   0.0000       0.846773        23.0419 
 257   0.0000       0.851742        23.1771 
 258   0.0000       0.859549        23.3895 
 259   0.0000       0.865698        23.5568 
 260   0.0000       0.873630        23.7727 
 261   0.0000       0.873899        23.7800 
 262   0.0000       0.876369        23.8472 
 263   0.0000       0.879011        23.9191 
 264   0.0000       0.883271        24.0350 
 265   0.0000       0.888997        24.1908 
 266   0.0000       0.897534        24.4231 
 267   0.0000       0.902272        24.5521 
 268   0.0000       0.903947        24.5977 
 269   0.0000       0.910144        24.7663 
 270   0.0000       0.911505        24.8033 
 271   0.0000       0.922488        25.1022 
 272   0.0000       0.928451        25.2644 
 273   0.0000       0.928687        25.2708 
 274   0.0000       0.930738        25.3267 
 275   0.0000       0.938810        25.5463 
 276   0.0000       0.951440        25.8900 
 277   0.0000       0.953417        25.9438 
 278   0.0000       0.962154        26.1815 
 279   0.0000       0.964676        26.2502 
 280   0.0000       0.977748        26.6059 
 281   0.0000       0.978745        26.6330 
 282   0.0000       0.987028        26.8584 
 283   0.0000       0.992231        27.0000 
 284   0.0000       0.994533        27.0626 
 285   0.0000       0.997150        27.1338 
 286   0.0000       1.003624        27.3100 
 287   0.0000       1.006036        27.3756 
 288   0.0000       1.013617        27.5819 
 289   0.0000       1.015213        27.6254 
 290   0.0000       1.020019        27.7561 
 291   0.0000       1.031890        28.0792 
 292   0.0000       1.032815        28.1043 
 293   0.0000       1.037561        28.2335 
 294   0.0000       1.041403        28.3380 
 295   0.0000       1.045829        28.4585 
 296   0.0000       1.059725        28.8366 
 297   0.0000       1.064624        28.9699 
 298   0.0000       1.068637        29.0791 
 299   0.0000       1.071632        29.1606 
 300   0.0000       1.083397        29.4807 
 301   0.0000       1.087893        29.6031 
 302   0.0000       1.095970        29.8229 
 303   0.0000       1.098283        29.8858 
 304   0.0000       1.109041        30.1785 
 305   0.0000       1.114116        30.3166 
 306   0.0000       1.117316        30.4037 
 307   0.0000       1.127071        30.6692 
 308   0.0000       1.130346        30.7583 
 309   0.0000       1.142909        31.1001 
 310   0.0000       1.152059        31.3491 
 311   0.0000       1.161689        31.6112 
 312   0.0000       1.166125        31.7319 
 313   0.0000       1.179255        32.0892 
 314   0.0000       1.186132        32.2763 
 315   0.0000       1.191415        32.4201 
 316   0.0000       1.193735        32.4832 
 317   0.0000       1.195469        32.5304 
 318   0.0000       1.210913        32.9506 
 319   0.0000       1.214661        33.0526 
 320   0.0000       1.224597        33.3230 
 321   0.0000       1.238239        33.6942 
 322   0.0000       1.247607        33.9491 
 323   0.0000       1.253093        34.0984 
 324   0.0000       1.258097        34.2346 
 325   0.0000       1.263270        34.3753 
 326   0.0000       1.275764        34.7153 
 327   0.0000       1.285909        34.9914 
 328   0.0000       1.288520        35.0624 
 329   0.0000       1.291651        35.1476 
 330   0.0000       1.292221        35.1631 
 331   0.0000       1.294371        35.2216 
 332   0.0000       1.303577        35.4721 
 333   0.0000       1.310433        35.6587 
 334   0.0000       1.323827        36.0232 
 335   0.0000       1.333027        36.2735 
 336   0.0000       1.339455        36.4484 
 337   0.0000       1.342183        36.5227 
 338   0.0000       1.350928        36.7606 
 339   0.0000       1.357256        36.9328 
 340   0.0000       1.364717        37.1358 
 341   0.0000       1.373300        37.3694 
 342   0.0000       1.383738        37.6534 
 343   0.0000       1.386286        37.7228 
 344   0.0000       1.387711        37.7615 
 345   0.0000       1.396669        38.0053 
 346   0.0000       1.400907        38.1206 
 347   0.0000       1.402307        38.1587 
 348   0.0000       1.406823        38.2816 
 349   0.0000       1.415289        38.5120 
 350   0.0000       1.415457        38.5166 
 351   0.0000       1.417707        38.5778 
 352   0.0000       1.422596        38.7108 
 353   0.0000       1.427673        38.8489 
 354   0.0000       1.437043        39.1039 
 355   0.0000       1.439394        39.1679 
 356   0.0000       1.447921        39.3999 
 357   0.0000       1.448642        39.4196 
 358   0.0000       1.470171        40.0054 
 359   0.0000       1.473963        40.1086 
 360   0.0000       1.479879        40.2696 
 361   0.0000       1.486739        40.4562 
 362   0.0000       1.497817        40.7577 
 363   0.0000       1.503174        40.9035 
 364   0.0000       1.522620        41.4326 
 365   0.0000       1.526554        41.5397 
 366   0.0000       1.532234        41.6942 
 367   0.0000       1.550544        42.1925 
 368   0.0000       1.558278        42.4029 
 369   0.0000       1.562950        42.5300 
 370   0.0000       1.568249        42.6742 
 371   0.0000       1.577602        42.9287 
 372   0.0000       1.586643        43.1747 
 373   0.0000       1.594267        43.3822 
 374   0.0000       1.603584        43.6357 
 375   0.0000       1.613548        43.9069 
 376   0.0000       1.623442        44.1761 
 377   0.0000       1.627578        44.2886 
 378   0.0000       1.629828        44.3499 
 379   0.0000       1.637582        44.5609 
 380   0.0000       1.640269        44.6340 
 381   0.0000       1.648731        44.8642 
 382   0.0000       1.656805        45.0840 
 383   0.0000       1.663389        45.2631 
 384   0.0000       1.668279        45.3962 
 385   0.0000       1.669147        45.4198 
 386   0.0000       1.681968        45.7687 
 387   0.0000       1.691431        46.0262 
 388   0.0000       1.691821        46.0368 
 389   0.0000       1.702735        46.3338 
 390   0.0000       1.710462        46.5440 
 391   0.0000       1.710731        46.5514 
 392   0.0000       1.716745        46.7150 
 393   0.0000       1.727926        47.0193 
 394   0.0000       1.730176        47.0805 
 395   0.0000       1.734366        47.1945 
 396   0.0000       1.744526        47.4710 
 397   0.0000       1.752943        47.7000 
 398   0.0000       1.755079        47.7581 
 399   0.0000       1.762938        47.9720 
 400   0.0000       1.766205        48.0609 
 401   0.0000       1.770251        48.1710 
 402   0.0000       1.777152        48.3588 
 403   0.0000       1.777331        48.3636 
 404   0.0000       1.784041        48.5462 
 405   0.0000       1.797415        48.9101 
 406   0.0000       1.800533        48.9950 
 407   0.0000       1.806096        49.1464 
 408   0.0000       1.812343        49.3164 
 409   0.0000       1.814869        49.3851 
 410   0.0000       1.820076        49.5268 
 411   0.0000       1.822591        49.5952 
 412   0.0000       1.832131        49.8548 
 413   0.0000       1.836845        49.9831 
 414   0.0000       1.840066        50.0707 
 415   0.0000       1.842201        50.1288 
 416   0.0000       1.846688        50.2509 
 417   0.0000       1.862716        50.6871 
 418   0.0000       1.863765        50.7156 
 419   0.0000       1.874596        51.0104 
 420   0.0000       1.878136        51.1067 
 421   0.0000       1.880329        51.1664 
 422   0.0000       1.884425        51.2778 
 423   0.0000       1.887452        51.3602 
 424   0.0000       1.901785        51.7502 
 425   0.0000       1.906430        51.8766 
 426   0.0000       1.912016        52.0286 
 427   0.0000       1.912373        52.0383 
 428   0.0000       1.923813        52.3496 
 429   0.0000       1.927172        52.4410 
 430   0.0000       1.935619        52.6709 
 431   0.0000       1.936190        52.6864 
 432   0.0000       1.938777        52.7568 
 433   0.0000       1.939329        52.7718 
 434   0.0000       1.961470        53.3743 
 435   0.0000       1.961889        53.3857 
 436   0.0000       1.973322        53.6968 
 437   0.0000       1.979654        53.8691 
 438   0.0000       1.982106        53.9358 
 439   0.0000       1.989248        54.1302 
 440   0.0000       2.000871        54.4465 
 441   0.0000       2.002764        54.4980 
 442   0.0000       2.012617        54.7661 
 443   0.0000       2.018860        54.9360 
 444   0.0000       2.037022        55.4302 
 445   0.0000       2.045106        55.6502 
 446   0.0000       2.046444        55.6866 
 447   0.0000       2.056667        55.9647 
 448   0.0000       2.063387        56.1476 
 449   0.0000       2.070503        56.3412 
 450   0.0000       2.073606        56.4257 
 451   0.0000       2.076798        56.5125 
 452   0.0000       2.094410        56.9918 
 453   0.0000       2.105855        57.3032 
 454   0.0000       2.110571        57.4316 
 455   0.0000       2.135229        58.1025 
 456   0.0000       2.135997        58.1234 
 457   0.0000       2.147928        58.4481 
 458   0.0000       2.161642        58.8213 
 459   0.0000       2.168199        58.9997 
 460   0.0000       2.168529        59.0087 
 461   0.0000       2.182863        59.3987 
 462   0.0000       2.192237        59.6538 
 463   0.0000       2.198088        59.8130 
 464   0.0000       2.204129        59.9774 
 465   0.0000       2.205730        60.0210 
 466   0.0000       2.210066        60.1390 
 467   0.0000       2.218504        60.3686 
 468   0.0000       2.231718        60.7281 
 469   0.0000       2.246767        61.1377 
 470   0.0000       2.251623        61.2698 
 471   0.0000       2.268347        61.7248 
 472   0.0000       2.278189        61.9927 
 473   0.0000       2.292268        62.3758 
 474   0.0000       2.293246        62.4024 
 475   0.0000       2.302947        62.6664 
 476   0.0000       2.307926        62.8019 
 477   0.0000       2.313420        62.9513 
 478   0.0000       2.323599        63.2283 
 479   0.0000       2.341074        63.7039 
 480   0.0000       2.348786        63.9137 
 481   0.0000       2.349444        63.9316 
 482   0.0000       2.365560        64.3701 
 483   0.0000       2.369762        64.4845 
 484   0.0000       2.378147        64.7127 
 485   0.0000       2.382246        64.8242 
 486   0.0000       2.397296        65.2337 
 487   0.0000       2.399632        65.2973 
 488   0.0000       2.404527        65.4305 
 489   0.0000       2.409548        65.5671 
 490   0.0000       2.413194        65.6664 
 491   0.0000       2.418062        65.7988 
 492   0.0000       2.426804        66.0367 
 493   0.0000       2.431016        66.1513 
 494   0.0000       2.438635        66.3586 
 495   0.0000       2.446851        66.5822 
 496   0.0000       2.454026        66.7775 
 497   0.0000       2.460297        66.9481 
 498   0.0000       2.479156        67.4613 
 499   0.0000       2.479221        67.4630 
 500   0.0000       2.485151        67.6244 
 501   0.0000       2.493082        67.8402 
 502   0.0000       2.501206        68.0613 
 503   0.0000       2.507180        68.2238 
 504   0.0000       2.509437        68.2852 
 505   0.0000       2.528714        68.8098 
 506   0.0000       2.537035        69.0362 
 507   0.0000       2.538092        69.0650 
 508   0.0000       2.553554        69.4857 
 509   0.0000       2.557673        69.5978 
 510   0.0000       2.560174        69.6659 
 511   0.0000       2.568495        69.8923 
 512   0.0000       2.588282        70.4307 
 513   0.0000       2.589767        70.4711 
 514   0.0000       2.595208        70.6192 
 515   0.0000       2.609075        70.9965 
 516   0.0000       2.624902        71.4272 
 517   0.0000       2.627453        71.4966 
 518   0.0000       2.629402        71.5497 
 519   0.0000       2.644413        71.9581 
 520   0.0000       2.652083        72.1668 
 521   0.0000       2.663298        72.4720 
 522   0.0000       2.679244        72.9059 
 523   0.0000       2.682034        72.9819 
 524   0.0000       2.690229        73.2048 
 525   0.0000       2.697101        73.3918 
 526   0.0000       2.705172        73.6115 
 527   0.0000       2.709563        73.7310 
 528   0.0000       2.714539        73.8664 
 529   0.0000       2.717246        73.9400 
 530   0.0000       2.735266        74.4304 
 531   0.0000       2.749916        74.8290 
 532   0.0000       2.759892        75.1005 
 533   0.0000       2.764406        75.2233 
 534   0.0000       2.774685        75.5030 
 535   0.0000       2.776012        75.5391 
 536   0.0000       2.783271        75.7367 
 537   0.0000       2.783995        75.7563 
 538   0.0000       2.796737        76.1031 
 539   0.0000       2.798013        76.1378 
 540   0.0000       2.805654        76.3457 
 541   0.0000       2.814206        76.5784 
 542   0.0000       2.819535        76.7234 
 543   0.0000       2.824643        76.8624 
 544   0.0000       2.831026        77.0361 
 545   0.0000       2.832087        77.0650 
 546   0.0000       2.836107        77.1744 
 547   0.0000       2.847509        77.4847 
 548   0.0000       2.855576        77.7042 
 549   0.0000       2.855744        77.7087 
 550   0.0000       2.859155        77.8016 
 551   0.0000       2.864949        77.9592 
 552   0.0000       2.868546        78.0571 
 553   0.0000       2.877661        78.3051 
 554   0.0000       2.881920        78.4210 
 555   0.0000       2.895214        78.7828 
 556   0.0000       2.895327        78.7859 
 557   0.0000       2.899298        78.8939 
 558   0.0000       2.901959        78.9663 
 559   0.0000       2.913847        79.2898 
 560   0.0000       2.916617        79.3652 
 561   0.0000       2.922942        79.5373 
 562   0.0000       2.927357        79.6574 
 563   0.0000       2.929314        79.7107 
 564   0.0000       2.931668        79.7748 
 565   0.0000       2.933336        79.8201 
 566   0.0000       2.941111        80.0317 
 567   0.0000       2.948489        80.2325 
 568   0.0000       2.950374        80.2837 
 569   0.0000       2.952682        80.3466 
 570   0.0000       2.959637        80.5358 
 571   0.0000       2.966843        80.7319 
 572   0.0000       2.969085        80.7929 
 573   0.0000       2.978162        81.0399 
 574   0.0000       2.982482        81.1575 
[...]
    87a ->  90a  :     0.142628 
    87a ->  92a  :     0.020688 
    88a ->  96a  :     0.157628 

STATE  9:  E=   0.179966 au      4.897 eV    39497.9 cm**-1 <S**2> =   0.000000
    79a ->  90a  :     0.018650 
    84a ->  91a  :     0.050222 
    85a ->  92a  :     0.057149 
    88a ->  90a  :     0.554006 
    88a ->  92a  :     0.089200 
    88a ->  93a  :     0.171229 

STATE 10:  E=   0.225796 au      6.144 eV    49556.5 cm**-1 <S**2> =   0.000000
    82a ->  89a  :     0.046248 
    83a ->  90a  :     0.022091 
    83a ->  92a  :     0.014773 
    83a ->  93a  :     0.018405 
    84a ->  93a  :     0.017316 
    85a ->  91a  :     0.041789 
    86a ->  90a  :     0.585606 
    86a ->  92a  :     0.024786 
    86a ->  93a  :     0.015777 
    87a ->  89a  :     0.058214 
    87a ->  94a  :     0.079454 
    88a ->  96a  :     0.022631 

STATE 11:  E=   0.227623 au      6.194 eV    49957.5 cm**-1 <S**2> =   0.000000
    83a ->  91a  :     0.084228 
    84a ->  91a  :     0.320619 
    85a ->  90a  :     0.103101 
    85a ->  93a  :     0.271062 
    86a ->  91a  :     0.082511 
    87a ->  91a  :     0.017295 
    88a ->  92a  :     0.066716 

STATE 12:  E=   0.233245 au      6.347 eV    51191.3 cm**-1 <S**2> =   0.000000
    82a ->  89a  :     0.284955 
    83a ->  89a  :     0.012937 
    83a ->  90a  :     0.012702 
    84a ->  90a  :     0.010612 
    86a ->  90a  :     0.111517 
    86a ->  93a  :     0.012456 
    87a ->  89a  :     0.017552 
    87a ->  93a  :     0.028597 
    87a ->  94a  :     0.438752 

STATE 13:  E=   0.221497 au      6.027 eV    48613.1 cm**-1 <S**2> =   0.000000
    83a ->  96a  :     0.037304 
    84a ->  96a  :     0.081348 
    85a ->  90a  :     0.085697 
    85a ->  92a  :     0.498251 
    86a ->  96a  :     0.024921 
    88a ->  93a  :     0.213587 

STATE 14:  E=   0.225414 au      6.134 eV    49472.6 cm**-1 <S**2> =   0.000000
    83a ->  92a  :     0.010739 
    84a ->  92a  :     0.042072 
    85a ->  96a  :     0.023533 
    86a ->  92a  :     0.016482 
    88a ->  91a  :     0.018567 
    88a ->  95a  :     0.593594 
    88a ->  96a  :     0.048154 
    88a ->  97a  :     0.034610 
    88a ->  98a  :     0.034816 
    88a -> 101a  :     0.043179 
    88a -> 105a  :     0.014443 

STATE 15:  E=   0.224866 au      6.119 eV    49352.3 cm**-1 <S**2> =   0.000000
    83a ->  90a  :     0.053565 
    83a ->  92a  :     0.055023 
    84a ->  90a  :     0.039818 
    84a ->  92a  :     0.228795 
    85a ->  91a  :     0.014136 
    85a ->  96a  :     0.143789 
    86a ->  92a  :     0.081921 
    87a ->  92a  :     0.025863 
    88a ->  91a  :     0.091510 
    88a ->  95a  :     0.138876 
    88a ->  96a  :     0.010864 
    88a -> 101a  :     0.010795 

STATE 16:  E=   0.234851 au      6.391 eV    51543.8 cm**-1 <S**2> =   0.000000
    83a ->  90a  :     0.022421 
    84a ->  92a  :     0.121189 
    84a ->  93a  :     0.069605 
    85a ->  91a  :     0.232424 
    85a ->  96a  :     0.021871 
    86a ->  90a  :     0.012563 
    86a ->  93a  :     0.015875 
    86a ->  94a  :     0.011322 
    87a ->  89a  :     0.010357 
    87a ->  94a  :     0.017149 
    88a ->  91a  :     0.011140 
    88a ->  95a  :     0.012497 
    88a ->  96a  :     0.362102 

STATE 17:  E=   0.229952 au      6.257 eV    50468.7 cm**-1 <S**2> =   0.000000
    78a ->  89a  :     0.058929 
    82a ->  90a  :     0.300027 
    82a ->  92a  :     0.023767 
    82a ->  93a  :     0.022741 
    83a ->  94a  :     0.042241 
    84a ->  94a  :     0.016593 
    86a ->  93a  :     0.026379 
    86a ->  94a  :     0.419393 
    87a -> 111a  :     0.012675 

STATE 18:  E=   0.214564 au      5.839 eV    47091.3 cm**-1 <S**2> =   0.000000
    79a ->  94a  :     0.016902 
    83a ->  91a  :     0.012388 
    87a ->  91a  :     0.016682 
    88a ->  89a  :     0.042466 
    88a ->  93a  :     0.016932 
    88a ->  94a  :     0.791514 

STATE 19:  E=   0.227799 au      6.199 eV    49996.1 cm**-1 <S**2> =   0.000000
    82a ->  89a  :     0.489520 
    83a ->  89a  :     0.111030 
    87a ->  92a  :     0.040834 
    87a ->  93a  :     0.039169 
    87a ->  94a  :     0.282202 

STATE 20:  E=   0.232183 au      6.318 eV    50958.3 cm**-1 <S**2> =   0.000000
    82a ->  91a  :     0.010147 
    84a ->  91a  :     0.038485 
    85a ->  89a  :     0.022877 
    87a ->  91a  :     0.798408 
    87a ->  97a  :     0.016061 
    88a ->  93a  :     0.019839 
    88a ->  94a  :     0.031593 

STATE 21:  E=   0.222438 au      6.053 eV    48819.6 cm**-1 <S**2> =   0.000000
    85a ->  89a  :     0.927802 
    87a ->  91a  :     0.020266 

STATE 22:  E=   0.233809 au      6.362 eV    51315.2 cm**-1 <S**2> =   0.000000
    82a ->  92a  :     0.012765 
    83a ->  89a  :     0.043589 
    84a ->  89a  :     0.073969 
    84a ->  92a  :     0.037437 
    87a ->  90a  :     0.038901 
    87a ->  92a  :     0.661641 
    87a ->  93a  :     0.018159 
    87a ->  94a  :     0.022801 
    88a ->  96a  :     0.039460 

STATE 23:  E=   0.228392 au      6.215 eV    50126.3 cm**-1 <S**2> =   0.000000
    83a ->  89a  :     0.022393 
    84a ->  89a  :     0.815011 
    86a ->  89a  :     0.048628 
    87a ->  92a  :     0.042615 

STATE 24:  E=   0.235887 au      6.419 eV    51771.2 cm**-1 <S**2> =   0.000000
    73a ->  89a  :     0.010677 
    82a ->  89a  :     0.119495 
    83a ->  89a  :     0.640386 
    83a ->  90a  :     0.010755 
    83a ->  94a  :     0.011002 
    84a ->  89a  :     0.026421 
    86a ->  89a  :     0.041981 
    87a ->  92a  :     0.030855 
    87a ->  94a  :     0.021158 
    88a ->  95a  :     0.011057 

STATE 25:  E=   0.243381 au      6.623 eV    53416.0 cm**-1 <S**2> =   0.000000
    79a ->  93a  :     0.033605 
    83a ->  91a  :     0.314338 
    84a ->  91a  :     0.246323 
    85a ->  92a  :     0.037963 
    85a ->  93a  :     0.016363 
    86a ->  91a  :     0.064597 
    87a ->  91a  :     0.042165 
    87a ->  97a  :     0.041395 
    87a ->  98a  :     0.011432 
    88a ->  93a  :     0.100034 
    88a ->  94a  :     0.027000 

STATE 26:  E=   0.241650 au      6.576 eV    53036.0 cm**-1 <S**2> =   0.000000
    79a ->  91a  :     0.021480 
    79a ->  96a  :     0.018124 
    83a ->  90a  :     0.155050 
    83a ->  92a  :     0.098381 
    83a ->  93a  :     0.043609 
    84a ->  90a  :     0.140120 
    84a ->  92a  :     0.111991 
    84a ->  93a  :     0.044330 
    85a ->  91a  :     0.022062 
    86a ->  92a  :     0.012767 
    87a ->  92a  :     0.058950 
    87a ->  93a  :     0.046926 
    88a ->  91a  :     0.016318 
    88a ->  96a  :     0.116071 
    88a ->  97a  :     0.011517 

STATE 27:  E=   0.253723 au      6.904 eV    55685.7 cm**-1 <S**2> =   0.000000
    83a -> 100a  :     0.048157 
    84a ->  89a  :     0.011138 
    84a -> 100a  :     0.010034 
    88a ->  95a  :     0.058113 
    88a ->  97a  :     0.718869 
    88a ->  98a  :     0.024053 

STATE 28:  E=   0.273259 au      7.436 eV    59973.5 cm**-1 <S**2> =   0.000000
    83a ->  91a  :     0.025689 
    87a ->  91a  :     0.041048 
    87a ->  95a  :     0.134012 
    87a ->  97a  :     0.436528 
    87a ->  98a  :     0.181025 
    87a ->  99a  :     0.018161 
    87a -> 104a  :     0.040212 
    87a -> 109a  :     0.016341 

STATE 29:  E=   0.254425 au      6.923 eV    55839.7 cm**-1 <S**2> =   0.000000
    79a ->  91a  :     0.017448 
    82a ->  90a  :     0.055401 
    83a ->  92a  :     0.116949 
    83a ->  93a  :     0.034315 
    84a ->  90a  :     0.031618 
    84a ->  92a  :     0.022130 
    84a ->  93a  :     0.065036 
    85a ->  96a  :     0.011182 
    86a ->  92a  :     0.026890 
    86a ->  93a  :     0.015928 
    86a ->  94a  :     0.035591 
    87a ->  90a  :     0.030325 
    87a ->  92a  :     0.013386 
    87a ->  93a  :     0.330744 
    87a ->  94a  :     0.045454 
    88a ->  96a  :     0.039277 

STATE 30:  E=   0.257811 au      7.015 eV    56582.9 cm**-1 <S**2> =   0.000000
    65a ->  94a  :     0.011981 
    70a ->  94a  :     0.022732 
    75a ->  89a  :     0.176267 
    76a ->  89a  :     0.275985 
    77a ->  89a  :     0.296683 
    79a ->  89a  :     0.086109 
    81a ->  89a  :     0.046678 
    88a ->  94a  :     0.010274 


-------------------------
TD-DFT-EXCITATION SPECTRA
-------------------------

Center of mass = (  0.0660, -0.0000, -0.0170)
Calculating the Dipole integrals                  ... done
Transforming integrals                            ... done
Calculating the Linear Momentum integrals         ... done
Transforming integrals                            ... done
Calculating angular momentum integrals            ... done
Transforming integrals                            ... done

-----------------------------------------------------------------------------
         ABSORPTION SPECTRUM VIA TRANSITION ELECTRIC DIPOLE MOMENTS
-----------------------------------------------------------------------------
State   Energy    Wavelength  fosc         T2        TX        TY        TZ  
        (cm-1)      (nm)                 (au**2)    (au)      (au)      (au) 
-----------------------------------------------------------------------------
   1   37499.5    266.7   0.201687142   1.77063   1.30794  -0.00001  -0.24479
   2   35130.9    284.6   0.001937358   0.01816   0.11846  -0.00000  -0.06421
   3   35557.8    281.2   0.160559262   1.48654   0.00001   1.21924   0.00001
   4   30949.5    323.1   0.021850889   0.23243  -0.00015  -0.48211   0.00003
   5   34355.7    291.1   0.076361815   0.73173  -0.83806   0.00003   0.17143
   6   36718.8    272.3   0.180781296   1.62084  -0.00000  -1.27312   0.00001
   7   46098.9    216.9   1.054010078   7.52713   1.33082   0.00001   2.39918
   8   47719.8    209.6   0.482729670   3.33028  -0.39658   0.00001  -1.78129
   9   39497.9    253.2   0.010803825   0.09005   0.00004   0.30008   0.00001
  10   49556.5    201.8   0.751117298   4.98980   2.09101  -0.00001  -0.78581
  11   49957.5    200.2   0.780296019   5.14203   0.00001   2.26760   0.00006
  12   51191.3    195.3   0.052939052   0.34045  -0.58312  -0.00014   0.02051
  13   48613.1    205.7   0.560123532   3.79320   0.00005   1.94762  -0.00006
  14   49472.6    202.1   0.051789855   0.34463  -0.33627   0.00009   0.48120
  15   49352.3    202.6   0.192353584   1.28312   1.13212  -0.00002   0.03768
  16   51543.8    194.0   0.700909010   4.47673   1.99511  -0.00006  -0.70446
  17   50468.7    198.1   0.005958675   0.03887  -0.16537   0.00001   0.10735
  18   47091.3    212.4   0.017024933   0.11902  -0.00006  -0.34499   0.00004
  19   49996.1    200.0   0.016388580   0.10791  -0.10458  -0.00001   0.31141
  20   50958.3    196.2   0.002925169   0.01890  -0.00009   0.13747   0.00003
  21   48819.6    204.8   0.001048211   0.00707   0.00003   0.08407  -0.00000
  22   51315.2    194.9   0.003186770   0.02044  -0.13433  -0.00006   0.04898
  23   50126.3    199.5   0.006558064   0.04307  -0.13835  -0.00004  -0.15469
  24   51771.2    193.2   0.036427326   0.23164   0.16673   0.00003  -0.45149
  25   53416.0    187.2   0.146935476   0.90559   0.00015  -0.95162  -0.00003
  26   53036.0    188.6   0.111400562   0.69150   0.80495   0.00015  -0.20869
  27   55685.7    179.6   0.000155121   0.00092   0.02580  -0.00004  -0.01586
  28   59973.5    166.7   0.003334303   0.01830   0.00003   0.13529   0.00003
  29   55839.7    179.1   0.059002011   0.34786   0.41728   0.00003  -0.41682
  30   56582.9    176.7   0.000958126   0.00557  -0.00004  -0.07466   0.00004

-----------------------------------------------------------------------------
         ABSORPTION SPECTRUM VIA TRANSITION VELOCITY DIPOLE MOMENTS
-----------------------------------------------------------------------------
State   Energy    Wavelength   fosc        P2         PX        PY        PZ  
        (cm-1)      (nm)                 (au**2)     (au)      (au)      (au) 
-----------------------------------------------------------------------------
   1   37499.5    266.7   0.207488442   0.05318  -0.22662   0.00000   0.04269
   2   35130.9    284.6   0.002420392   0.00058  -0.02195   0.00000   0.00997
   3   35557.8    281.2   0.193517704   0.04703  -0.00000  -0.21686  -0.00000
   4   30949.5    323.1   0.036340325   0.00769   0.00003   0.08767  -0.00001
   5   34355.7    291.1   0.104207015   0.02447   0.15320  -0.00001  -0.03157
   6   36718.8    272.3   0.239241586   0.06004   0.00000   0.24503  -0.00000
   7   46098.9    216.9   1.139591384   0.35904  -0.29183  -0.00000  -0.52333
   8   47719.8    209.6   0.491123252   0.16018   0.08606  -0.00000   0.39086
   9   39497.9    253.2   0.015334858   0.00414  -0.00001  -0.06434  -0.00000
  10   49556.5    201.8   0.816141867   0.27642  -0.49237   0.00000   0.18438
  11   49957.5    200.2   0.837042799   0.28580  -0.00000  -0.53460  -0.00001
  12   51191.3    195.3   0.054736548   0.01915   0.13829   0.00003  -0.00520
  13   48613.1    205.7   0.686896113   0.22822  -0.00001  -0.47772   0.00001
  14   49472.6    202.1   0.061419536   0.02077   0.08276  -0.00003  -0.11797
  15   49352.3    202.6   0.236716259   0.07984  -0.28243   0.00000  -0.00888
  16   51543.8    194.0   0.829732608   0.29229  -0.50986   0.00001   0.17984
  17   50468.7    198.1   0.007422414   0.00256   0.04197  -0.00000  -0.02827
  18   47091.3    212.4   0.025282217   0.00814   0.00001   0.09021  -0.00001
  19   49996.1    200.0   0.021601626   0.00738   0.02596   0.00000  -0.08190
  20   50958.3    196.2   0.004191218   0.00146   0.00002  -0.03821  -0.00001
  21   48819.6    204.8   0.001521549   0.00051   0.00000  -0.02253  -0.00000
  22   51315.2    194.9   0.004151249   0.00146   0.03531   0.00002  -0.01447
  23   50126.3    199.5   0.008895003   0.00305   0.03751   0.00000   0.04050
  24   51771.2    193.2   0.048529424   0.01717  -0.04694  -0.00000   0.12234
  25   53416.0    187.2   0.192659276   0.07033  -0.00004   0.26521   0.00001
  26   53036.0    188.6   0.149545316   0.05421  -0.22537  -0.00004   0.05842
  27   55685.7    179.6   0.000151362   0.00006  -0.00757  -0.00000   0.00052
  28   59973.5    166.7   0.004676035   0.00192  -0.00001  -0.04378  -0.00001
  29   55839.7    179.1   0.076837235   0.02932  -0.12100  -0.00001   0.12117
  30   56582.9    176.7   0.001223913   0.00047   0.00002   0.02176  -0.00001

-------------------------------------------------------------------
                             CD SPECTRUM
-------------------------------------------------------------------
State  Energy     Wavelength     R         MX        MY        MZ   
       (cm-1)       (nm)     (1e40*cgs)   (au)      (au)      (au)  
-------------------------------------------------------------------
   1   37499.5    266.7      0.00192   0.00000   0.12585   0.00000
   2   35130.9    284.6     -0.00091  -0.00002   0.02073  -0.00001
   3   35557.8    281.2      0.00870   0.33962   0.00001   0.73322
   4   30949.5    323.1     -0.01025   0.13764  -0.00000  -0.05523
   5   34355.7    291.1      0.01211  -0.00003   0.06720   0.00000
   6   36718.8    272.3      0.00249   0.05255  -0.00000   0.80723
   7   46098.9    216.9      0.02965  -0.00002  -1.81839   0.00004
   8   47719.8    209.6      0.01083   0.00001   1.10753  -0.00001
   9   39497.9    253.2      0.00204   0.11031  -0.00001   0.23266
  10   49556.5    201.8      0.00242   0.00000   0.01985  -0.00001
  11   49957.5    200.2     -0.10626   0.35524  -0.00011   0.40709
  12   51191.3    195.3      0.07221  -0.00002  -1.01743  -0.00002
  13   48613.1    205.7      0.02957  -0.25621  -0.00002  -2.01683
  14   49472.6    202.1     -0.03811  -0.00003   0.06891  -0.00020
  15   49352.3    202.6     -0.00742  -0.00002  -0.26323  -0.00004
  16   51543.8    194.0     -0.02127  -0.00001   0.04171   0.00004
  17   50468.7    198.1     -0.00008   0.00000  -0.05026   0.00001
  18   47091.3    212.4      0.01133  -0.00287  -0.00002   0.45631
  19   49996.1    200.0      0.00029  -0.00001  -0.35072  -0.00001
  20   50958.3    196.2     -0.00415   0.00310   0.00001  -0.28388
  21   48819.6    204.8     -0.00167  -0.14760   0.00001  -0.04850
  22   51315.2    194.9     -0.00188   0.00001   0.02765  -0.00001
  23   50126.3    199.5     -0.00443   0.00001   0.14321   0.00002
  24   51771.2    193.2      0.00813  -0.00002   0.11363  -0.00004
  25   53416.0    187.2      0.00113   0.12449  -0.00001   0.98943
  26   53036.0    188.6     -0.00071  -0.00002  -0.09129  -0.00015
  27   55685.7    179.6      0.00359   0.00001  -0.20707   0.00001
  28   59973.5    166.7     -0.00683  -0.08283  -0.00002  -0.37607
  29   55839.7    179.1     -0.00004  -0.00002   0.03764  -0.00002
  30   56582.9    176.7     -0.00286   0.21005  -0.00002   0.05482

Total run time:    17728.457 sec

           *** ORCA-CIS/TD-DFT FINISHED WITHOUT ERROR ***

Maximum memory used throughout the entire CIS-calculation: 4871.3 MB

-----------------------
CIS/TD-DFT TOTAL ENERGY
-----------------------

    E(SCF)  =  -1017.507103734 Eh
    DE(CIS) =      0.170860325 Eh (Root  1)
    ----------------------------- ---------
    E(tot)  =  -1017.336243409 Eh


-------------------------   --------------------
FINAL SINGLE POINT ENERGY     -1017.336243409159
-------------------------   --------------------


                            ***************************************
                            *     ORCA property calculations      *
                            ***************************************


  WARNING: The energy has been calculated at the MP2 level but the densities
           used in the property calculations are still SCF densities
           MP2 response densities have not been calculated 
           use %mp2 Density relaxed end
           or  %mp2 Density unrelaxed end

                                    ---------------------
                                    Active property flags
                                    ---------------------
   (+) Dipole Moment


------------------------------------------------------------------------------
                       ORCA ELECTRIC PROPERTIES CALCULATION
------------------------------------------------------------------------------

Dipole Moment Calculation                       ... on
Quadrupole Moment Calculation                   ... off
Polarizability Calculation                      ... off
GBWName                                         ... Me2-Acr_1_M06L_def2TZVP_coords.gbw
Electron density                                ... Me2-Acr_1_M06L_def2TZVP_coords.scfp
The origin for moment calculation is the CENTER OF MASS  = ( 0.066034, -0.000001 -0.016989)

-------------
DIPOLE MOMENT
-------------
                                X             Y             Z
Electronic contribution:     12.16561      -0.00017      -3.06712
Nuclear contribution   :    -11.75410       0.00018       3.02396
                        -----------------------------------------
Total Dipole Moment    :      0.41151       0.00001      -0.04316
                        -----------------------------------------
Magnitude (a.u.)       :      0.41376
Magnitude (Debye)      :      1.05170



--------------------
Rotational spectrum 
--------------------
 
Rotational constants in cm-1:     0.010615     0.006095     0.004924 
Rotational constants in MHz :   318.221091   182.736497   147.607039 

 Dipole components along the rotational axes: 
x,y,z [a.u.] :    -0.411280     0.000008    -0.045264 
x,y,z [Debye]:    -1.045390     0.000019    -0.115052 

 

Timings for individual modules:

Sum of individual times         ...    22259.041 sec (= 370.984 min)
GTO integral calculation        ...       10.264 sec (=   0.171 min)   0.0 %
SCF iterations                  ...     1877.873 sec (=  31.298 min)   8.4 %
MP2 module                      ...     2568.025 sec (=  42.800 min)  11.5 %
CIS module                      ...    17802.877 sec (= 296.715 min)  80.0 %
                             ****ORCA TERMINATED NORMALLY****
TOTAL RUN TIME: 0 days 6 hours 12 minutes 38 seconds 635 msec
