 Entering Gaussian System, Link 0=g09
 Input=/home/png4rjv/fotokatalizis/benchmark/OPCs/Me2-Acr_1_B97D3_def2TZVP.gjf
 Output=/home/png4rjv/fotokatalizis/benchmark/OPCs/Me2-Acr_1_B97D3_def2TZVP.log
 Initial command:
 /opt/nce/packages/global/g09/l1.exe "/home/png4rjv/fotokatalizis/benchmark/OPCs/Me2-Acr_1_B97D3_def2TZVP/Gau-56040.inp" -scrdir="/home/png4rjv/fotokatalizis/benchmark/OPCs/Me2-Acr_1_B97D3_def2TZVP/"
 Default is to use a total of  12 processors:
                               12 via shared-memory
                                1 via Linda
 Entering Link 1 = /opt/nce/packages/global/g09/l1.exe PID=     56041.
  
 Copyright (c) 1988,1990,1992,1993,1995,1998,2003,2009,2015,
            Gaussian, Inc.  All Rights Reserved.
  
 This is part of the Gaussian(R) 09 program.  It is based on
 the Gaussian(R) 03 system (copyright 2003, Gaussian, Inc.),
 the Gaussian(R) 98 system (copyright 1998, Gaussian, Inc.),
 the Gaussian(R) 94 system (copyright 1995, Gaussian, Inc.),
 the Gaussian 92(TM) system (copyright 1992, Gaussian, Inc.),
 the Gaussian 90(TM) system (copyright 1990, Gaussian, Inc.),
 the Gaussian 88(TM) system (copyright 1988, Gaussian, Inc.),
 the Gaussian 86(TM) system (copyright 1986, Carnegie Mellon
 University), and the Gaussian 82(TM) system (copyright 1983,
 Carnegie Mellon University). Gaussian is a federally registered
 trademark of Gaussian, Inc.
  
 This software contains proprietary and confidential information,
 including trade secrets, belonging to Gaussian, Inc.
  
 This software is provided under written license and may be
 used, copied, transmitted, or stored only in accord with that
 written license.
  
 The following legend is applicable only to US Government
 contracts under FAR:
  
                    RESTRICTED RIGHTS LEGEND
  
 Use, reproduction and disclosure by the US Government is
 subject to restrictions as set forth in subparagraphs (a)
 and (c) of the Commercial Computer Software - Restricted
 Rights clause in FAR 52.227-19.
  
 Gaussian, Inc.
 340 Quinnipiac St., Bldg. 40, Wallingford CT 06492
  
  
 ---------------------------------------------------------------
 Warning -- This program may not be used in any manner that
 competes with the business of Gaussian, Inc. or will provide
 assistance to any competitor of Gaussian, Inc.  The licensee
 of this program is prohibited from giving any competitor of
 Gaussian, Inc. access to this program.  By using this program,
 the user acknowledges that Gaussian, Inc. is engaged in the
 business of creating and licensing software in the field of
 computational chemistry and represents and warrants to the
 licensee that it is not a competitor of Gaussian, Inc. and that
 it will not use this program in any manner prohibited above.
 ---------------------------------------------------------------
  

 Cite this work as:
 Gaussian 09, Revision E.01,
 M. J. Frisch, G. W. Trucks, H. B. Schlegel, G. E. Scuseria, 
 M. A. Robb, J. R. Cheeseman, G. Scalmani, V. Barone, B. Mennucci, 
 G. A. Petersson, H. Nakatsuji, M. Caricato, X. Li, H. P. Hratchian, 
 A. F. Izmaylov, J. Bloino, G. Zheng, J. L. Sonnenberg, M. Hada, 
 M. Ehara, K. Toyota, R. Fukuda, J. Hasegawa, M. Ishida, T. Nakajima, 
 Y. Honda, O. Kitao, H. Nakai, T. Vreven, J. A. Montgomery, Jr., 
 J. E. Peralta, F. Ogliaro, M. Bearpark, J. J. Heyd, E. Brothers, 
 K. N. Kudin, V. N. Staroverov, T. Keith, R. Kobayashi, J. Normand, 
 K. Raghavachari, A. Rendell, J. C. Burant, S. S. Iyengar, J. Tomasi, 
 M. Cossi, N. Rega, J. M. Millam, M. Klene, J. E. Knox, J. B. Cross, 
 V. Bakken, C. Adamo, J. Jaramillo, R. Gomperts, R. E. Stratmann, 
 O. Yazyev, A. J. Austin, R. Cammi, C. Pomelli, J. W. Ochterski, 
 R. L. Martin, K. Morokuma, V. G. Zakrzewski, G. A. Voth, 
 P. Salvador, J. J. Dannenberg, S. Dapprich, A. D. Daniels, 
 O. Farkas, J. B. Foresman, J. V. Ortiz, J. Cioslowski, 
 and D. J. Fox, Gaussian, Inc., Wallingford CT, 2013.
 
 ******************************************
 Gaussian 09:  ES64L-G09RevE.01 30-Nov-2015
                29-Mar-2021 
 ******************************************
 %chk=cp.chk
 Default route:  MaxDisk=500GB
 ----------------------------------------------------------------------
 #p B97D3/def2TZVP opt freq=noraman nosymm int=ultrafine scrf=(SMD,solv
 ent=n,n-DiMethylFormamide)
 ----------------------------------------------------------------------
 1/14=-1,18=20,19=15,26=4,38=1/1,3;
 2/9=110,12=2,15=1,17=6,18=5,40=1/2;
 3/5=44,7=101,11=2,16=1,25=1,30=1,70=32201,71=1,72=148,74=-59,75=-5/1,2,3;
 4//1;
 5/5=2,38=5,53=148/2;
 6/7=2,8=2,9=2,10=2,28=1/1;
 7/30=1/1,2,3,16;
 1/14=-1,18=20,19=15,26=4/3(2);
 2/9=110,15=1/2;
 99//99;
 2/9=110,15=1/2;
 3/5=44,7=101,11=2,16=1,25=1,30=1,70=32205,71=1,72=148,74=-59,75=-5/1,2,3;
 4/5=5,16=3,69=1/1;
 5/5=2,38=5,53=148/2;
 7/30=1/1,2,3,16;
 1/14=-1,18=20,19=15,26=4/3(-5);
 2/9=110,15=1/2;
 6/7=2,8=2,9=2,10=2,19=2,28=1/1;
 99/9=1/99;
 Leave Link    1 at Mon Mar 29 16:29:50 2021, MaxMem=           0 cpu:         1.0
 (Enter /opt/nce/packages/global/g09/l101.exe)
 -----
 Title
 -----
 Symbolic Z-matrix:
 Charge =  0 Multiplicity = 1
 C                    -0.66421  -3.6601   -0.23066 
 C                    -0.04305  -2.43104  -0.42502 
 C                    -0.76236  -1.22513  -0.28797 
 C                    -2.12966  -1.26544   0.0589 
 C                    -2.72507  -2.52137   0.24291 
 C                    -2.01834  -3.71485   0.10451 
 C                    -2.97856   0.0002    0.21033 
 C                    -2.12942   1.26566   0.05873 
 C                    -0.76214   1.22505  -0.28815 
 C                    -0.04258   2.43078  -0.42534 
 H                     1.01365   2.3974   -0.68692 
 C                    -0.66349   3.65999  -0.23112 
 C                    -2.01762   3.71505   0.10403 
 C                    -2.72459   2.52173   0.24258 
 H                     1.01318  -2.39792  -0.68662 
 H                    -3.78465  -2.56717   0.50164 
 H                    -2.51966  -4.67286   0.25645 
 H                    -0.08132   4.57775  -0.34359 
 H                    -2.51874   4.67318   0.25585 
 N                    -0.11102  -0.00011  -0.49314 
 C                     1.27776  -0.00023  -0.83326 
 C                     2.25341  -0.00007   0.20985 
 C                     1.66295  -0.00041  -2.15758 
 C                     1.89372   0.00015   1.58449 
 C                     3.64185  -0.00017  -0.14953 
 C                     3.03453  -0.0005   -2.50791 
 H                     0.89169  -0.0005   -2.92984 
 C                     2.86539   0.00028   2.56221 
 H                     0.8364    0.00022   1.8515 
 C                     4.61691  -0.00003   0.88615 
 C                     4.00119  -0.00039  -1.5255 
 H                     3.32029  -0.00066  -3.56207 
 C                     4.23897   0.00018   2.21145 
 H                     2.57734   0.00045   3.61598 
 H                     5.6746   -0.00011   0.61056 
 H                     5.06127  -0.00046  -1.79132 
 H                     4.9977    0.00028   2.99752 
 H                    -3.78416   2.56776   0.50131 
 H                    -0.08223  -4.578    -0.34303 
 C                    -4.07238   0.00024  -0.88618 
 H                    -3.61419   0.0001   -1.88636 
 H                    -4.71387  -0.89024  -0.80368 
 H                    -4.71366   0.89088  -0.80384 
 C                    -3.6453    0.00036   1.60703 
 H                    -4.28137  -0.88593   1.745 
 H                    -2.88149   0.00031   2.39887 
 H                    -4.28114   0.88683   1.74491 
 
 NAtoms=     47 NQM=       47 NQMF=       0 NMMI=      0 NMMIF=      0
                NMic=       0 NMicF=      0.
                    Isotopes and Nuclear Properties:
 (Nuclear quadrupole moments (NQMom) in fm**2, nuclear magnetic moments (NMagM)
  in nuclear magnetons)

  Atom         1           2           3           4           5           6           7           8           9          10
 IAtWgt=          12          12          12          12          12          12          12          12          12          12
 AtmWgt=  12.0000000  12.0000000  12.0000000  12.0000000  12.0000000  12.0000000  12.0000000  12.0000000  12.0000000  12.0000000
 NucSpn=           0           0           0           0           0           0           0           0           0           0
 AtZEff=   0.0000000   0.0000000   0.0000000   0.0000000   0.0000000   0.0000000   0.0000000   0.0000000   0.0000000   0.0000000
 NQMom=    0.0000000   0.0000000   0.0000000   0.0000000   0.0000000   0.0000000   0.0000000   0.0000000   0.0000000   0.0000000
 NMagM=    0.0000000   0.0000000   0.0000000   0.0000000   0.0000000   0.0000000   0.0000000   0.0000000   0.0000000   0.0000000
 AtZNuc=   6.0000000   6.0000000   6.0000000   6.0000000   6.0000000   6.0000000   6.0000000   6.0000000   6.0000000   6.0000000

  Atom        11          12          13          14          15          16          17          18          19          20
 IAtWgt=           1          12          12          12           1           1           1           1           1          14
 AtmWgt=   1.0078250  12.0000000  12.0000000  12.0000000   1.0078250   1.0078250   1.0078250   1.0078250   1.0078250  14.0030740
 NucSpn=           1           0           0           0           1           1           1           1           1           2
 AtZEff=   0.0000000   0.0000000   0.0000000   0.0000000   0.0000000   0.0000000   0.0000000   0.0000000   0.0000000   0.0000000
 NQMom=    0.0000000   0.0000000   0.0000000   0.0000000   0.0000000   0.0000000   0.0000000   0.0000000   0.0000000   2.0440000
 NMagM=    2.7928460   0.0000000   0.0000000   0.0000000   2.7928460   2.7928460   2.7928460   2.7928460   2.7928460   0.4037610
 AtZNuc=   1.0000000   6.0000000   6.0000000   6.0000000   1.0000000   1.0000000   1.0000000   1.0000000   1.0000000   7.0000000

  Atom        21          22          23          24          25          26          27          28          29          30
 IAtWgt=          12          12          12          12          12          12           1          12           1          12
 AtmWgt=  12.0000000  12.0000000  12.0000000  12.0000000  12.0000000  12.0000000   1.0078250  12.0000000   1.0078250  12.0000000
 NucSpn=           0           0           0           0           0           0           1           0           1           0
 AtZEff=   0.0000000   0.0000000   0.0000000   0.0000000   0.0000000   0.0000000   0.0000000   0.0000000   0.0000000   0.0000000
 NQMom=    0.0000000   0.0000000   0.0000000   0.0000000   0.0000000   0.0000000   0.0000000   0.0000000   0.0000000   0.0000000
 NMagM=    0.0000000   0.0000000   0.0000000   0.0000000   0.0000000   0.0000000   2.7928460   0.0000000   2.7928460   0.0000000
 AtZNuc=   6.0000000   6.0000000   6.0000000   6.0000000   6.0000000   6.0000000   1.0000000   6.0000000   1.0000000   6.0000000

  Atom        31          32          33          34          35          36          37          38          39          40
 IAtWgt=          12           1          12           1           1           1           1           1           1          12
 AtmWgt=  12.0000000   1.0078250  12.0000000   1.0078250   1.0078250   1.0078250   1.0078250   1.0078250   1.0078250  12.0000000
 NucSpn=           0           1           0           1           1           1           1           1           1           0
 AtZEff=   0.0000000   0.0000000   0.0000000   0.0000000   0.0000000   0.0000000   0.0000000   0.0000000   0.0000000   0.0000000
 NQMom=    0.0000000   0.0000000   0.0000000   0.0000000   0.0000000   0.0000000   0.0000000   0.0000000   0.0000000   0.0000000
 NMagM=    0.0000000   2.7928460   0.0000000   2.7928460   2.7928460   2.7928460   2.7928460   2.7928460   2.7928460   0.0000000
 AtZNuc=   6.0000000   1.0000000   6.0000000   1.0000000   1.0000000   1.0000000   1.0000000   1.0000000   1.0000000   6.0000000

  Atom        41          42          43          44          45          46          47
 IAtWgt=           1           1           1          12           1           1           1
 AtmWgt=   1.0078250   1.0078250   1.0078250  12.0000000   1.0078250   1.0078250   1.0078250
 NucSpn=           1           1           1           0           1           1           1
 AtZEff=   0.0000000   0.0000000   0.0000000   0.0000000   0.0000000   0.0000000   0.0000000
 NQMom=    0.0000000   0.0000000   0.0000000   0.0000000   0.0000000   0.0000000   0.0000000
 NMagM=    2.7928460   2.7928460   2.7928460   0.0000000   2.7928460   2.7928460   2.7928460
 AtZNuc=   1.0000000   1.0000000   1.0000000   6.0000000   1.0000000   1.0000000   1.0000000
 Leave Link  101 at Mon Mar 29 16:29:50 2021, MaxMem=  5242880000 cpu:         4.3
 (Enter /opt/nce/packages/global/g09/l103.exe)

 GradGradGradGradGradGradGradGradGradGradGradGradGradGradGradGradGradGrad
 Berny optimization.
 Initialization pass.
                           ----------------------------
                           !    Initial Parameters    !
                           ! (Angstroms and Degrees)  !
 --------------------------                            --------------------------
 ! Name  Definition              Value          Derivative Info.                !
 --------------------------------------------------------------------------------
 ! R1    R(1,2)                  1.3908         estimate D2E/DX2                !
 ! R2    R(1,6)                  1.3961         estimate D2E/DX2                !
 ! R3    R(1,39)                 1.0926         estimate D2E/DX2                !
 ! R4    R(2,3)                  1.4108         estimate D2E/DX2                !
 ! R5    R(2,15)                 1.0886         estimate D2E/DX2                !
 ! R6    R(3,4)                  1.4112         estimate D2E/DX2                !
 ! R7    R(3,20)                 1.4025         estimate D2E/DX2                !
 ! R8    R(4,5)                  1.402          estimate D2E/DX2                !
 ! R9    R(4,7)                  1.5315         estimate D2E/DX2                !
 ! R10   R(5,6)                  1.3939         estimate D2E/DX2                !
 ! R11   R(5,16)                 1.0917         estimate D2E/DX2                !
 ! R12   R(6,17)                 1.0919         estimate D2E/DX2                !
 ! R13   R(7,8)                  1.5315         estimate D2E/DX2                !
 ! R14   R(7,40)                 1.5488         estimate D2E/DX2                !
 ! R15   R(7,44)                 1.5477         estimate D2E/DX2                !
 ! R16   R(8,9)                  1.4112         estimate D2E/DX2                !
 ! R17   R(8,14)                 1.402          estimate D2E/DX2                !
 ! R18   R(9,10)                 1.4108         estimate D2E/DX2                !
 ! R19   R(9,20)                 1.4025         estimate D2E/DX2                !
 ! R20   R(10,11)                1.0887         estimate D2E/DX2                !
 ! R21   R(10,12)                1.3908         estimate D2E/DX2                !
 ! R22   R(12,13)                1.3961         estimate D2E/DX2                !
 ! R23   R(12,18)                1.0926         estimate D2E/DX2                !
 ! R24   R(13,14)                1.3939         estimate D2E/DX2                !
 ! R25   R(13,19)                1.0919         estimate D2E/DX2                !
 ! R26   R(14,38)                1.0917         estimate D2E/DX2                !
 ! R27   R(20,21)                1.4298         estimate D2E/DX2                !
 ! R28   R(21,22)                1.4283         estimate D2E/DX2                !
 ! R29   R(21,23)                1.3792         estimate D2E/DX2                !
 ! R30   R(22,24)                1.4209         estimate D2E/DX2                !
 ! R31   R(22,25)                1.4342         estimate D2E/DX2                !
 ! R32   R(23,26)                1.4156         estimate D2E/DX2                !
 ! R33   R(23,27)                1.0914         estimate D2E/DX2                !
 ! R34   R(24,28)                1.3784         estimate D2E/DX2                !
 ! R35   R(24,29)                1.0905         estimate D2E/DX2                !
 ! R36   R(25,30)                1.4224         estimate D2E/DX2                !
 ! R37   R(25,31)                1.4221         estimate D2E/DX2                !
 ! R38   R(26,31)                1.3782         estimate D2E/DX2                !
 ! R39   R(26,32)                1.0922         estimate D2E/DX2                !
 ! R40   R(28,33)                1.4177         estimate D2E/DX2                !
 ! R41   R(28,34)                1.0924         estimate D2E/DX2                !
 ! R42   R(30,33)                1.3781         estimate D2E/DX2                !
 ! R43   R(30,35)                1.093          estimate D2E/DX2                !
 ! R44   R(31,36)                1.0929         estimate D2E/DX2                !
 ! R45   R(33,37)                1.0925         estimate D2E/DX2                !
 ! R46   R(40,41)                1.1001         estimate D2E/DX2                !
 ! R47   R(40,42)                1.1006         estimate D2E/DX2                !
 ! R48   R(40,43)                1.1006         estimate D2E/DX2                !
 ! R49   R(44,45)                1.0996         estimate D2E/DX2                !
 ! R50   R(44,46)                1.1002         estimate D2E/DX2                !
 ! R51   R(44,47)                1.0996         estimate D2E/DX2                !
 ! A1    A(2,1,6)              120.0942         estimate D2E/DX2                !
 ! A2    A(2,1,39)             119.3498         estimate D2E/DX2                !
 ! A3    A(6,1,39)             120.5561         estimate D2E/DX2                !
 ! A4    A(1,2,3)              120.9367         estimate D2E/DX2                !
 ! A5    A(1,2,15)             119.5908         estimate D2E/DX2                !
 ! A6    A(3,2,15)             119.4725         estimate D2E/DX2                !
 ! A7    A(2,3,4)              119.5684         estimate D2E/DX2                !
 ! A8    A(2,3,20)             119.7093         estimate D2E/DX2                !
 ! A9    A(4,3,20)             120.722          estimate D2E/DX2                !
 ! A10   A(3,4,5)              117.9893         estimate D2E/DX2                !
 ! A11   A(3,4,7)              122.5319         estimate D2E/DX2                !
 ! A12   A(5,4,7)              119.4667         estimate D2E/DX2                !
 ! A13   A(4,5,6)              122.5903         estimate D2E/DX2                !
 ! A14   A(4,5,16)             118.7426         estimate D2E/DX2                !
 ! A15   A(6,5,16)             118.6668         estimate D2E/DX2                !
 ! A16   A(1,6,5)              118.8187         estimate D2E/DX2                !
 ! A17   A(1,6,17)             120.8748         estimate D2E/DX2                !
 ! A18   A(5,6,17)             120.3065         estimate D2E/DX2                !
 ! A19   A(4,7,8)              111.4531         estimate D2E/DX2                !
 ! A20   A(4,7,40)             108.753          estimate D2E/DX2                !
 ! A21   A(4,7,44)             109.1541         estimate D2E/DX2                !
 ! A22   A(8,7,40)             108.7526         estimate D2E/DX2                !
 ! A23   A(8,7,44)             109.1539         estimate D2E/DX2                !
 ! A24   A(40,7,44)            109.5522         estimate D2E/DX2                !
 ! A25   A(7,8,9)              122.5318         estimate D2E/DX2                !
 ! A26   A(7,8,14)             119.4667         estimate D2E/DX2                !
 ! A27   A(9,8,14)             117.9894         estimate D2E/DX2                !
 ! A28   A(8,9,10)             119.5691         estimate D2E/DX2                !
 ! A29   A(8,9,20)             120.7226         estimate D2E/DX2                !
 ! A30   A(10,9,20)            119.708          estimate D2E/DX2                !
 ! A31   A(9,10,11)            119.4725         estimate D2E/DX2                !
 ! A32   A(9,10,12)            120.9362         estimate D2E/DX2                !
 ! A33   A(11,10,12)           119.5913         estimate D2E/DX2                !
 ! A34   A(10,12,13)           120.0943         estimate D2E/DX2                !
 ! A35   A(10,12,18)           119.3495         estimate D2E/DX2                !
 ! A36   A(13,12,18)           120.5562         estimate D2E/DX2                !
 ! A37   A(12,13,14)           118.8187         estimate D2E/DX2                !
 ! A38   A(12,13,19)           120.8747         estimate D2E/DX2                !
 ! A39   A(14,13,19)           120.3066         estimate D2E/DX2                !
 ! A40   A(8,14,13)            122.5899         estimate D2E/DX2                !
 ! A41   A(8,14,38)            118.7426         estimate D2E/DX2                !
 ! A42   A(13,14,38)           118.6672         estimate D2E/DX2                !
 ! A43   A(3,20,9)             121.737          estimate D2E/DX2                !
 ! A44   A(3,20,21)            119.0658         estimate D2E/DX2                !
 ! A45   A(9,20,21)            119.0627         estimate D2E/DX2                !
 ! A46   A(20,21,22)           119.3252         estimate D2E/DX2                !
 ! A47   A(20,21,23)           119.9785         estimate D2E/DX2                !
 ! A48   A(22,21,23)           120.6963         estimate D2E/DX2                !
 ! A49   A(21,22,24)           122.2505         estimate D2E/DX2                !
 ! A50   A(21,22,25)           118.5746         estimate D2E/DX2                !
 ! A51   A(24,22,25)           119.1749         estimate D2E/DX2                !
 ! A52   A(21,23,26)           120.5457         estimate D2E/DX2                !
 ! A53   A(21,23,27)           118.8199         estimate D2E/DX2                !
 ! A54   A(26,23,27)           120.6343         estimate D2E/DX2                !
 ! A55   A(22,24,28)           120.5147         estimate D2E/DX2                !
 ! A56   A(22,24,29)           118.8361         estimate D2E/DX2                !
 ! A57   A(28,24,29)           120.6492         estimate D2E/DX2                !
 ! A58   A(22,25,30)           118.7615         estimate D2E/DX2                !
 ! A59   A(22,25,31)           119.1478         estimate D2E/DX2                !
 ! A60   A(30,25,31)           122.0907         estimate D2E/DX2                !
 ! A61   A(23,26,31)           120.2086         estimate D2E/DX2                !
 ! A62   A(23,26,32)           119.4952         estimate D2E/DX2                !
 ! A63   A(31,26,32)           120.2962         estimate D2E/DX2                !
 ! A64   A(24,28,33)           120.4971         estimate D2E/DX2                !
 ! A65   A(24,28,34)           119.8894         estimate D2E/DX2                !
 ! A66   A(33,28,34)           119.6135         estimate D2E/DX2                !
 ! A67   A(25,30,33)           120.8103         estimate D2E/DX2                !
 ! A68   A(25,30,35)           118.6693         estimate D2E/DX2                !
 ! A69   A(33,30,35)           120.5204         estimate D2E/DX2                !
 ! A70   A(25,31,26)           120.827          estimate D2E/DX2                !
 ! A71   A(25,31,36)           118.7132         estimate D2E/DX2                !
 ! A72   A(26,31,36)           120.4599         estimate D2E/DX2                !
 ! A73   A(28,33,30)           120.2415         estimate D2E/DX2                !
 ! A74   A(28,33,37)           119.6611         estimate D2E/DX2                !
 ! A75   A(30,33,37)           120.0974         estimate D2E/DX2                !
 ! A76   A(7,40,41)            110.4569         estimate D2E/DX2                !
 ! A77   A(7,40,42)            111.0112         estimate D2E/DX2                !
 ! A78   A(7,40,43)            111.0115         estimate D2E/DX2                !
 ! A79   A(41,40,42)           108.1078         estimate D2E/DX2                !
 ! A80   A(41,40,43)           108.1078         estimate D2E/DX2                !
 ! A81   A(42,40,43)           108.0316         estimate D2E/DX2                !
 ! A82   A(7,44,45)            111.2443         estimate D2E/DX2                !
 ! A83   A(7,44,46)            110.514          estimate D2E/DX2                !
 ! A84   A(7,44,47)            111.2444         estimate D2E/DX2                !
 ! A85   A(45,44,46)           108.1342         estimate D2E/DX2                !
 ! A86   A(45,44,47)           107.4311         estimate D2E/DX2                !
 ! A87   A(46,44,47)           108.1342         estimate D2E/DX2                !
 ! D1    D(6,1,2,3)              0.0312         estimate D2E/DX2                !
 ! D2    D(6,1,2,15)          -179.9715         estimate D2E/DX2                !
 ! D3    D(39,1,2,3)          -179.9734         estimate D2E/DX2                !
 ! D4    D(39,1,2,15)            0.024          estimate D2E/DX2                !
 ! D5    D(2,1,6,5)             -0.2143         estimate D2E/DX2                !
 ! D6    D(2,1,6,17)           179.7758         estimate D2E/DX2                !
 ! D7    D(39,1,6,5)           179.7904         estimate D2E/DX2                !
 ! D8    D(39,1,6,17)           -0.2196         estimate D2E/DX2                !
 ! D9    D(1,2,3,4)              0.3742         estimate D2E/DX2                !
 ! D10   D(1,2,3,20)          -179.8404         estimate D2E/DX2                !
 ! D11   D(15,2,3,4)          -179.6232         estimate D2E/DX2                !
 ! D12   D(15,2,3,20)            0.1623         estimate D2E/DX2                !
 ! D13   D(2,3,4,5)             -0.5777         estimate D2E/DX2                !
 ! D14   D(2,3,4,7)           -179.3057         estimate D2E/DX2                !
 ! D15   D(20,3,4,5)           179.6391         estimate D2E/DX2                !
 ! D16   D(20,3,4,7)             0.9111         estimate D2E/DX2                !
 ! D17   D(2,3,20,9)          -176.0088         estimate D2E/DX2                !
 ! D18   D(2,3,20,21)           -0.2647         estimate D2E/DX2                !
 ! D19   D(4,3,20,9)             3.7741         estimate D2E/DX2                !
 ! D20   D(4,3,20,21)          179.5182         estimate D2E/DX2                !
 ! D21   D(3,4,5,6)              0.405          estimate D2E/DX2                !
 ! D22   D(3,4,5,16)          -179.3933         estimate D2E/DX2                !
 ! D23   D(7,4,5,6)            179.1732         estimate D2E/DX2                !
 ! D24   D(7,4,5,16)            -0.6251         estimate D2E/DX2                !
 ! D25   D(3,4,7,8)             -4.8825         estimate D2E/DX2                !
 ! D26   D(3,4,7,40)           114.9981         estimate D2E/DX2                !
 ! D27   D(3,4,7,44)          -125.5254         estimate D2E/DX2                !
 ! D28   D(5,4,7,8)            176.4076         estimate D2E/DX2                !
 ! D29   D(5,4,7,40)           -63.7117         estimate D2E/DX2                !
 ! D30   D(5,4,7,44)            55.7648         estimate D2E/DX2                !
 ! D31   D(4,5,6,1)             -0.0083         estimate D2E/DX2                !
 ! D32   D(4,5,6,17)          -179.9984         estimate D2E/DX2                !
 ! D33   D(16,5,6,1)           179.7901         estimate D2E/DX2                !
 ! D34   D(16,5,6,17)           -0.2            estimate D2E/DX2                !
 ! D35   D(4,7,8,9)              4.8832         estimate D2E/DX2                !
 ! D36   D(4,7,8,14)          -176.4073         estimate D2E/DX2                !
 ! D37   D(40,7,8,9)          -114.9977         estimate D2E/DX2                !
 ! D38   D(40,7,8,14)           63.7118         estimate D2E/DX2                !
 ! D39   D(44,7,8,9)           125.5261         estimate D2E/DX2                !
 ! D40   D(44,7,8,14)          -55.7643         estimate D2E/DX2                !
 ! D41   D(4,7,40,41)          -60.7705         estimate D2E/DX2                !
 ! D42   D(4,7,40,42)           59.1389         estimate D2E/DX2                !
 ! D43   D(4,7,40,43)          179.3199         estimate D2E/DX2                !
 ! D44   D(8,7,40,41)           60.7742         estimate D2E/DX2                !
 ! D45   D(8,7,40,42)         -179.3164         estimate D2E/DX2                !
 ! D46   D(8,7,40,43)          -59.1354         estimate D2E/DX2                !
 ! D47   D(44,7,40,41)        -179.9984         estimate D2E/DX2                !
 ! D48   D(44,7,40,42)         -60.089          estimate D2E/DX2                !
 ! D49   D(44,7,40,43)          60.092          estimate D2E/DX2                !
 ! D50   D(4,7,44,45)          -59.1152         estimate D2E/DX2                !
 ! D51   D(4,7,44,46)           61.0178         estimate D2E/DX2                !
 ! D52   D(4,7,44,47)         -178.8492         estimate D2E/DX2                !
 ! D53   D(8,7,44,45)          178.845          estimate D2E/DX2                !
 ! D54   D(8,7,44,46)          -61.022          estimate D2E/DX2                !
 ! D55   D(8,7,44,47)           59.111          estimate D2E/DX2                !
 ! D56   D(40,7,44,45)          59.8652         estimate D2E/DX2                !
 ! D57   D(40,7,44,46)         179.9982         estimate D2E/DX2                !
 ! D58   D(40,7,44,47)         -59.8687         estimate D2E/DX2                !
 ! D59   D(7,8,9,10)           179.307          estimate D2E/DX2                !
 ! D60   D(7,8,9,20)            -0.9124         estimate D2E/DX2                !
 ! D61   D(14,8,9,10)            0.5793         estimate D2E/DX2                !
 ! D62   D(14,8,9,20)         -179.6401         estimate D2E/DX2                !
 ! D63   D(7,8,14,13)         -179.1739         estimate D2E/DX2                !
 ! D64   D(7,8,14,38)            0.6249         estimate D2E/DX2                !
 ! D65   D(9,8,14,13)           -0.4059         estimate D2E/DX2                !
 ! D66   D(9,8,14,38)          179.3928         estimate D2E/DX2                !
 ! D67   D(8,9,10,11)          179.6217         estimate D2E/DX2                !
 ! D68   D(8,9,10,12)           -0.3752         estimate D2E/DX2                !
 ! D69   D(20,9,10,11)          -0.1612         estimate D2E/DX2                !
 ! D70   D(20,9,10,12)         179.8419         estimate D2E/DX2                !
 ! D71   D(8,9,20,3)            -3.7734         estimate D2E/DX2                !
 ! D72   D(8,9,20,21)         -179.5177         estimate D2E/DX2                !
 ! D73   D(10,9,20,3)          176.0069         estimate D2E/DX2                !
 ! D74   D(10,9,20,21)           0.2626         estimate D2E/DX2                !
 ! D75   D(9,10,12,13)          -0.0314         estimate D2E/DX2                !
 ! D76   D(9,10,12,18)         179.9735         estimate D2E/DX2                !
 ! D77   D(11,10,12,13)        179.9717         estimate D2E/DX2                !
 ! D78   D(11,10,12,18)         -0.0235         estimate D2E/DX2                !
 ! D79   D(10,12,13,14)          0.2151         estimate D2E/DX2                !
 ! D80   D(10,12,13,19)       -179.7756         estimate D2E/DX2                !
 ! D81   D(18,12,13,14)       -179.7898         estimate D2E/DX2                !
 ! D82   D(18,12,13,19)          0.2194         estimate D2E/DX2                !
 ! D83   D(12,13,14,8)           0.0081         estimate D2E/DX2                !
 ! D84   D(12,13,14,38)       -179.7908         estimate D2E/DX2                !
 ! D85   D(19,13,14,8)         179.9989         estimate D2E/DX2                !
 ! D86   D(19,13,14,38)          0.2            estimate D2E/DX2                !
 ! D87   D(3,20,21,22)         -87.9364         estimate D2E/DX2                !
 ! D88   D(3,20,21,23)          92.0667         estimate D2E/DX2                !
 ! D89   D(9,20,21,22)          87.923          estimate D2E/DX2                !
 ! D90   D(9,20,21,23)         -92.074          estimate D2E/DX2                !
 ! D91   D(20,21,22,24)          0.0016         estimate D2E/DX2                !
 ! D92   D(20,21,22,25)       -179.9991         estimate D2E/DX2                !
 ! D93   D(23,21,22,24)        179.9985         estimate D2E/DX2                !
 ! D94   D(23,21,22,25)         -0.0022         estimate D2E/DX2                !
 ! D95   D(20,21,23,26)        179.999          estimate D2E/DX2                !
 ! D96   D(20,21,23,27)         -0.0018         estimate D2E/DX2                !
 ! D97   D(22,21,23,26)          0.0021         estimate D2E/DX2                !
 ! D98   D(22,21,23,27)       -179.9987         estimate D2E/DX2                !
 ! D99   D(21,22,24,28)        179.9992         estimate D2E/DX2                !
 ! D100  D(21,22,24,29)         -0.0004         estimate D2E/DX2                !
 ! D101  D(25,22,24,28)         -0.0002         estimate D2E/DX2                !
 ! D102  D(25,22,24,29)       -179.9997         estimate D2E/DX2                !
 ! D103  D(21,22,25,30)       -179.9993         estimate D2E/DX2                !
 ! D104  D(21,22,25,31)          0.0008         estimate D2E/DX2                !
 ! D105  D(24,22,25,30)          0.0            estimate D2E/DX2                !
 ! D106  D(24,22,25,31)       -179.9999         estimate D2E/DX2                !
 ! D107  D(21,23,26,31)         -0.0006         estimate D2E/DX2                !
 ! D108  D(21,23,26,32)        179.9993         estimate D2E/DX2                !
 ! D109  D(27,23,26,31)       -179.9998         estimate D2E/DX2                !
 ! D110  D(27,23,26,32)          0.0001         estimate D2E/DX2                !
 ! D111  D(22,24,28,33)          0.0002         estimate D2E/DX2                !
 ! D112  D(22,24,28,34)       -179.9998         estimate D2E/DX2                !
 ! D113  D(29,24,28,33)        179.9997         estimate D2E/DX2                !
 ! D114  D(29,24,28,34)         -0.0002         estimate D2E/DX2                !
 ! D115  D(22,25,30,33)          0.0001         estimate D2E/DX2                !
 ! D116  D(22,25,30,35)       -179.9999         estimate D2E/DX2                !
 ! D117  D(31,25,30,33)        180.0            estimate D2E/DX2                !
 ! D118  D(31,25,30,35)          0.0            estimate D2E/DX2                !
 ! D119  D(22,25,31,26)          0.0007         estimate D2E/DX2                !
 ! D120  D(22,25,31,36)        179.9996         estimate D2E/DX2                !
 ! D121  D(30,25,31,26)       -179.9992         estimate D2E/DX2                !
 ! D122  D(30,25,31,36)         -0.0003         estimate D2E/DX2                !
 ! D123  D(23,26,31,25)         -0.0008         estimate D2E/DX2                !
 ! D124  D(23,26,31,36)       -179.9997         estimate D2E/DX2                !
 ! D125  D(32,26,31,25)        179.9993         estimate D2E/DX2                !
 ! D126  D(32,26,31,36)          0.0004         estimate D2E/DX2                !
 ! D127  D(24,28,33,30)         -0.0001         estimate D2E/DX2                !
 ! D128  D(24,28,33,37)        179.9999         estimate D2E/DX2                !
 ! D129  D(34,28,33,30)        179.9999         estimate D2E/DX2                !
 ! D130  D(34,28,33,37)         -0.0001         estimate D2E/DX2                !
 ! D131  D(25,30,33,28)         -0.0001         estimate D2E/DX2                !
 ! D132  D(25,30,33,37)        179.9999         estimate D2E/DX2                !
 ! D133  D(35,30,33,28)        179.9999         estimate D2E/DX2                !
 ! D134  D(35,30,33,37)         -0.0001         estimate D2E/DX2                !
 --------------------------------------------------------------------------------
 Trust Radius=3.00D-01 FncErr=1.00D-07 GrdErr=1.00D-06
 Number of steps in this run=    282 maximum allowed number of steps=    282.
 GradGradGradGradGradGradGradGradGradGradGradGradGradGradGradGradGradGrad

 Leave Link  103 at Mon Mar 29 16:29:50 2021, MaxMem=  5242880000 cpu:         0.2
 (Enter /opt/nce/packages/global/g09/l202.exe)
                          Input orientation:                          
 ---------------------------------------------------------------------
 Center     Atomic      Atomic             Coordinates (Angstroms)
 Number     Number       Type             X           Y           Z
 ---------------------------------------------------------------------
      1          6           0       -0.664207   -3.660103   -0.230662
      2          6           0       -0.043052   -2.431042   -0.425024
      3          6           0       -0.762359   -1.225133   -0.287972
      4          6           0       -2.129661   -1.265435    0.058898
      5          6           0       -2.725072   -2.521368    0.242909
      6          6           0       -2.018340   -3.714850    0.104505
      7          6           0       -2.978564    0.000202    0.210327
      8          6           0       -2.129420    1.265656    0.058729
      9          6           0       -0.762135    1.225045   -0.288147
     10          6           0       -0.042580    2.430778   -0.425336
     11          1           0        1.013653    2.397401   -0.686915
     12          6           0       -0.663487    3.659986   -0.231121
     13          6           0       -2.017615    3.715049    0.104027
     14          6           0       -2.724588    2.521726    0.242579
     15          1           0        1.013180   -2.397918   -0.686619
     16          1           0       -3.784654   -2.567169    0.501644
     17          1           0       -2.519662   -4.672857    0.256447
     18          1           0       -0.081318    4.577752   -0.343592
     19          1           0       -2.518741    4.673176    0.255851
     20          7           0       -0.111018   -0.000114   -0.493142
     21          6           0        1.277763   -0.000225   -0.833257
     22          6           0        2.253412   -0.000074    0.209847
     23          6           0        1.662951   -0.000412   -2.157576
     24          6           0        1.893723    0.000152    1.584492
     25          6           0        3.641850   -0.000169   -0.149528
     26          6           0        3.034533   -0.000503   -2.507909
     27          1           0        0.891691   -0.000502   -2.929843
     28          6           0        2.865387    0.000275    2.562211
     29          1           0        0.836397    0.000219    1.851503
     30          6           0        4.616905   -0.000034    0.886147
     31          6           0        4.001190   -0.000392   -1.525498
     32          1           0        3.320289   -0.000663   -3.562074
     33          6           0        4.238969    0.000182    2.211452
     34          1           0        2.577335    0.000445    3.615977
     35          1           0        5.674597   -0.000105    0.610563
     36          1           0        5.061266   -0.000457   -1.791319
     37          1           0        4.997701    0.000283    2.997524
     38          1           0       -3.784162    2.567764    0.501310
     39          1           0       -0.082227   -4.578003   -0.343028
     40          6           0       -4.072385    0.000240   -0.886182
     41          1           0       -3.614185    0.000099   -1.886360
     42          1           0       -4.713870   -0.890237   -0.803681
     43          1           0       -4.713660    0.890884   -0.803836
     44          6           0       -3.645300    0.000362    1.607032
     45          1           0       -4.281370   -0.885930    1.745004
     46          1           0       -2.881485    0.000305    2.398873
     47          1           0       -4.281142    0.886832    1.744912
 ---------------------------------------------------------------------
                    Distance matrix (angstroms):
                    1          2          3          4          5
     1  C    0.000000
     2  C    1.390756   0.000000
     3  C    2.437621   1.410816   0.000000
     4  C    2.822381   2.438597   1.411190   0.000000
     5  C    2.401698   2.765416   2.411286   1.402049   0.000000
     6  C    1.396070   2.414607   2.816064   2.452367   1.393924
     7  C    4.352993   3.864175   2.580952   1.531471   2.534489
     8  C    5.147203   4.272297   2.862357   2.531091   3.838004
     9  C    4.886468   3.728644   2.450178   2.862352   4.262717
    10  C    6.125614   4.861820   3.728624   4.272280   5.671513
    11  H    6.302122   4.949654   4.054149   4.883956   6.247954
    12  C    7.320089   6.125615   4.886450   5.147188   6.533297
    13  C    7.505771   6.477131   5.112214   4.981949   6.277952
    14  C    6.533310   5.671529   4.262720   3.838003   5.043094
    15  H    2.148170   1.088648   2.164921   3.422830   3.854062
    16  H    3.386439   3.857049   3.399827   2.151636   1.091676
    17  H    2.169253   3.409360   3.907852   3.435353   2.161315
    18  H    8.259223   7.009371   5.842977   6.204880   7.598087
    19  H    8.550996   7.553975   6.178242   5.954601   7.197514
    20  N    3.710853   2.432832   1.402502   2.445548   3.705640
    21  C    4.186774   2.796440   2.441277   3.742624   4.851493
    22  C    4.701315   3.403882   3.292942   4.564565   5.580620
    23  C    4.745735   3.438044   3.298104   4.571318   5.601098
    24  C    4.820296   3.701345   3.473070   4.485172   5.430578
    25  C    5.651887   4.423070   4.573484   5.912248   6.859165
    26  C    5.679719   4.440435   4.565548   5.904020   6.862566
    27  H    4.806150   3.613224   3.348893   4.434095   5.431583
    28  C    5.801426   4.826375   4.773438   5.728796   6.556758
    29  H    4.470479   3.444856   2.938513   3.689555   4.650810
    30  C    6.521772   5.417026   5.640559   6.913880   7.789448
    31  C    6.069268   4.845100   5.071771   6.457397   7.397647
    32  H    6.353425   5.201912   5.374671   6.664311   7.574843
    33  C    6.588076   5.585478   5.723792   6.840667   7.663631
    34  H    6.221241   5.395206   5.281706   6.034159   6.771458
    35  H    7.367746   6.298683   6.613808   7.925392   8.777607
    36  H    6.972066   5.816233   6.137955   7.532125   8.433275
    37  H    7.475079   6.560058   6.743472   7.812609   8.578336
    38  H    7.004015   6.312057   4.913281   4.198395   5.204585
    39  H    1.092642   2.148883   3.421600   3.914925   3.399662
    40  C    5.044155   4.728565   3.579898   2.503854   3.073858
    41  H    4.984053   4.560586   3.491268   2.754890   3.417909
    42  H    4.939664   4.932951   3.999069   2.750082   2.776915
    43  H    6.118667   5.743977   4.511809   3.474345   4.085783
    44  C    5.065870   4.797621   3.661178   2.509208   3.011108
    45  H    4.968215   5.005970   4.078172   2.759860   2.711643
    46  H    5.022884   4.684287   3.634767   2.764565   3.321367
    47  H    6.136752   5.803302   4.579830   3.479047   4.036483
                    6          7          8          9         10
     6  C    0.000000
     7  C    3.838599   0.000000
     8  C    4.981955   1.531470   0.000000
     9  C    5.112220   2.580944   1.411184   0.000000
    10  C    6.477121   3.864165   2.438592   1.410806   0.000000
    11  H    6.868693   4.742299   3.422826   2.164915   1.088653
    12  C    7.505763   4.352985   2.822373   2.437606   1.390754
    13  C    7.429899   3.838595   2.452362   2.816052   2.414610
    14  C    6.277956   2.534488   1.402048   2.411280   2.765420
    15  H    3.398573   4.742311   4.883979   4.054181   4.949667
    16  H    2.143538   2.706666   4.198395   4.913276   6.312043
    17  H    1.091873   4.695764   5.954605   6.178247   7.553965
    18  H    8.527608   5.445624   3.914916   3.421583   2.148879
    19  H    8.404302   4.695764   3.435349   3.907839   3.409360
    20  N    4.218332   2.952573   2.445543   1.402495   2.432800
    21  C    5.053922   4.382395   3.742591   2.441232   2.796333
    22  C    5.662025   5.231976   4.564441   3.292786   3.403539
    23  C    5.697891   5.210626   4.571325   3.298113   3.438048
    24  C    5.594268   5.062362   4.484990   3.472855   3.700895
    25  C    6.775038   6.630187   5.912127   4.573341   4.422736
    26  C    6.793571   6.598950   5.903999   4.565523   4.440367
    27  H    5.609985   4.983928   4.434166   3.348979   3.613383
    28  C    6.610088   6.299454   5.728587   4.773208   4.825873
    29  H    5.000326   4.152997   3.689368   2.938300   3.444447
    30  C    7.644429   7.625476   6.913718   5.640377   5.416607
    31  C    7.258709   7.192361   6.457324   5.071686   4.844896
    32  H    7.465919   7.342109   6.664316   5.374676   5.201915
    33  C    7.575923   7.489812   6.840469   5.723576   5.584990
    34  H    6.874160   6.516630   6.033930   5.281467   5.394690
    35  H    8.557845   8.662412   7.925235   6.613637   6.298285
    36  H    8.216549   8.285255   7.532044   6.137864   5.816017
    37  H    8.449651   8.449217   7.812396   6.743247   6.559551
    38  H    6.538105   2.706665   2.151635   3.399821   3.857055
    39  H    2.166530   5.445634   6.204898   5.843000   7.009376
    40  C    4.359181   1.548798   2.503847   3.579881   4.728554
    41  H    4.506785   2.190915   2.754911   3.491270   4.560609
    42  H    4.008631   2.198268   3.474336   4.511807   5.743974
    43  H    5.413189   2.198272   2.750049   3.999018   4.932902
    44  C    4.325204   1.547683   2.509204   3.661174   4.797607
    45  H    3.976849   2.199492   3.479042   4.579840   5.803298
    46  H    4.451013   2.190698   2.764596   3.634791   4.684308
    47  H    5.383928   2.199494   2.759824   4.078128   5.005912
                   11         12         13         14         15
    11  H    0.000000
    12  C    2.148178   0.000000
    13  C    3.398584   1.396073   0.000000
    14  C    3.854071   2.401700   1.393925   0.000000
    15  H    4.795319   6.302134   6.868712   6.247977   0.000000
    16  H    7.005953   7.004005   6.538103   5.204585   4.945688
    17  H    7.960075   8.550987   8.404300   7.197514   4.306471
    18  H    2.463892   1.092641   2.166533   3.399664   7.069340
    19  H    4.306480   2.169254   1.091872   2.161316   7.960093
    20  N    2.655280   3.710823   4.218312   3.705632   2.655319
    21  C    2.416564   4.186665   5.053838   4.851440   2.416700
    22  C    2.844129   4.700935   5.661714   5.580415   2.844553
    23  C    2.886856   4.745741   5.697900   5.601109   2.886858
    24  C    3.417692   4.819767   5.593818   5.430273   3.418193
    25  C    3.597853   5.651488   6.774709   6.858953   3.598274
    26  C    3.626282   5.679639   6.793507   6.862529   3.626371
    27  H    3.285657   4.806335   5.610147   5.431700   3.285486
    28  C    4.442066   5.800788   6.609533   6.556388   4.442623
    29  H    3.495922   4.469997   4.999902   4.650511   3.496338
    30  C    4.604959   6.521240   7.643979   7.789157   4.605461
    31  C    3.921481   6.069019   7.258503   7.397518   3.921741
    32  H    4.397479   6.353430   7.465925   7.574851   4.397479
    33  C    4.954781   6.587443   7.575376   7.663274   4.955342
    34  H    5.167725   6.220557   6.873546   6.771046   5.168274
    35  H    5.399619   7.367225   8.557399   8.777320   5.400092
    36  H    4.832453   6.971790   8.216318   8.433129   4.832720
    37  H    5.932445   7.474398   8.449051   8.577945   5.933017
    38  H    4.945698   3.386446   2.143545   1.091677   7.005973
    39  H    7.069333   8.259228   8.527620   7.598102   2.463888
    40  C    5.626177   5.044148   4.359174   3.073849   5.626185
    41  H    5.348141   4.984095   4.506831   3.417948   5.348118
    42  H    6.605052   6.118656   5.413168   4.085755   5.923336
    43  H    5.923291   4.939618   4.008589   2.776875   6.605048
    44  C    5.719601   5.065853   4.325192   3.011099   5.719617
    45  H    6.688181   6.136734   5.383902   4.036455   6.019232
    46  H    5.517269   5.022912   4.451057   3.321413   5.517259
    47  H    6.019174   4.968150   3.976791   2.711594   6.688181
                   16         17         18         19         20
    16  H    0.000000
    17  H    2.468653   0.000000
    18  H    8.091911   9.585371   0.000000
    19  H    7.354288   9.346033   2.511866   0.000000
    20  N    4.590749   5.310177   4.580404   5.310156   0.000000
    21  C    5.830886   6.118936   4.800494   6.118846   1.429822
    22  C    6.567600   6.679769   5.168535   6.679433   2.466723
    23  C    6.583015   6.719635   5.224232   6.719643   2.432551
    24  C    6.325161   6.563435   5.345345   6.562947   2.887135
    25  C    7.884572   7.743582   5.903982   7.743214   3.768566
    26  C    7.883305   7.766701   5.945857   7.766627   3.735476
    27  H    6.342798   6.604595   5.347509   6.604768   2.634945
    28  C    7.420293   7.493561   6.170904   7.492939   4.265462
    29  H    5.455980   5.970341   5.158920   5.969890   2.528825
    30  C    8.793419   8.553501   6.673956   8.552988   4.925007
    31  C    8.444940   8.217589   6.246853   8.217356   4.239813
    32  H    8.577935   8.397352   6.549156   8.397356   4.603500
    33  C    8.596119   8.446208   6.793179   8.445584   5.122228
    34  H    7.534362   7.688015   6.610474   7.687318   4.910407
    35  H    9.801995   9.439592   7.416046   9.439076   5.889950
    36  H    9.491891   9.137567   7.035772   9.137300   5.332709
    37  H    9.484249   9.266201   7.610040   9.265506   6.187387
    38  H    5.134933   7.354285   4.297088   2.468664   4.590743
    39  H    4.297079   2.511863   9.155755   9.585383   4.580440
    40  C    2.932651   5.055135   6.097265   5.055134   3.980818
    41  H    3.510340   5.256056   5.984663   5.256112   3.770044
    42  H    2.319357   4.499626   7.181304   6.073941   4.698404
    43  H    3.811228   6.073964   5.938300   4.499593   4.698374
    44  C    2.798842   4.993007   6.120409   4.992997   4.111190
    45  H    2.149241   4.433986   7.201006   6.018978   4.815164
    46  H    3.317697   5.153576   6.026199   5.153625   4.004902
    47  H    3.704367   6.019010   5.968523   4.433933   4.815132
                   21         22         23         24         25
    21  C    0.000000
    22  C    1.428271   0.000000
    23  C    1.379199   2.439946   0.000000
    24  C    2.494978   1.420924   3.749177   0.000000
    25  C    2.460974   1.434193   2.819273   2.462270   0.000000
    26  C    2.427076   2.827781   1.415617   4.248434   2.435322
    27  H    2.131836   3.422271   1.091439   4.624207   3.910694
    28  C    3.748300   2.430664   4.870548   1.378429   2.820713
    29  H    2.720798   2.168632   4.093398   1.090520   3.445967
    30  C    3.755825   2.458349   4.241473   2.811300   1.422447
    31  C    2.810027   2.462956   2.422165   3.756788   1.422118
    32  H    3.408571   3.919900   2.172414   5.340621   3.427663
    33  C    4.247234   2.819372   5.071910   2.427603   2.435319
    34  H    4.635145   3.421498   5.845512   2.143422   3.913083
    35  H    4.627825   3.444573   4.874002   3.904298   2.170207
    36  H    3.902919   3.448001   3.417995   4.629193   2.170304
    37  H    5.339740   3.911811   6.139675   3.410475   3.426699
    38  H    5.830842   6.567423   6.583027   6.324895   7.884385
    39  H    4.800620   5.168976   5.224229   5.345953   5.904469
    40  C    5.350410   6.420046   5.874566   6.457451   7.749328
    41  H    5.004017   6.230793   5.284101   6.510289   7.461007
    42  H    6.057447   7.096665   6.579412   7.082122   8.428416
    43  H    6.057400   7.096580   6.579376   7.082021   8.428324
    44  C    5.494685   6.061925   6.507673   5.539069   7.495869
    45  H    6.191596   6.770881   7.165837   6.240407   8.194586
    46  H    5.267448   5.582025   6.435303   4.844154   7.003445
    47  H    6.191547   6.770777   7.165812   6.240264   8.194478
                   26         27         28         29         30
    26  C    0.000000
    27  H    2.183987   0.000000
    28  C    5.072941   5.835935   0.000000
    29  H    4.882241   4.781666   2.149862   0.000000
    30  C    3.744799   5.332823   2.424254   3.901814   0.000000
    31  C    1.378244   3.411916   4.242572   4.628180   2.489003
    32  H    1.092209   2.509543   6.141157   5.956218   4.633345
    33  C    4.870630   6.134915   1.417660   3.421558   1.378140
    34  H    6.140929   6.759375   1.092427   2.478756   3.407612
    35  H    4.085928   5.950686   3.420613   4.994808   1.093005
    36  H    2.149686   4.322221   4.875973   5.578501   2.714089
    37  H    5.844983   7.210617   2.176295   4.316227   2.145441
    38  H    7.883273   6.342902   7.419961   5.455719   8.793157
    39  H    5.945957   5.347302   6.171667   5.159453   6.674617
    40  C    7.289601   5.368296   7.747522   5.620592   8.868197
    41  H    6.677707   4.625124   7.859684   5.811996   8.685484
    42  H    7.983343   6.060900   8.340706   6.216782   9.524250
    43  H    7.983291   6.060894   8.340588   6.216691   9.524139
    44  C    7.845566   6.416192   6.580381   4.488360   8.293594
    45  H    8.508448   7.028424   7.247712   5.195011   8.983415
    46  H    7.686077   6.529324   5.749193   3.757960   7.649457
    47  H    8.508405   7.028435   7.247540   5.194868   8.983276
                   31         32         33         34         35
    31  C    0.000000
    32  H    2.147386   0.000000
    33  C    3.744507   5.846159   0.000000
    34  H    5.334991   7.216398   2.175711   0.000000
    35  H    2.713494   4.790998   2.150319   4.315732   0.000000
    36  H    1.092896   2.483259   4.086361   5.950526   2.478954
    37  H    4.631497   6.770675   1.092512   2.498130   2.481083
    38  H    8.444826   8.577944   8.595795   7.533984   9.801735
    39  H    6.247164   6.549154   6.793959   6.611292   7.416705
    40  C    8.098848   7.862063   8.869833   8.030455   9.861232
    41  H    7.623920   7.134070   8.857996   8.283154   9.618529
    42  H    8.790058   8.540948   9.488793   8.572535  10.522009
    43  H    8.789982   8.540906   9.488671   8.572411  10.521895
    44  C    8.263265   8.674047   7.907403   6.538887   9.373016
    45  H    8.948808   9.313109   8.578983   7.164359  10.059469
    46  H    7.922872   8.602028   7.122920   5.592858   8.740972
    47  H    8.948730   9.313082   8.578817   7.164166  10.059331
                   36         37         38         39         40
    36  H    0.000000
    37  H    4.789265   0.000000
    38  H    9.491760   9.483890   0.000000
    39  H    7.036121   7.610891   8.091923   0.000000
    40  C    9.178391   9.866592   2.932641   6.097269   0.000000
    41  H    8.675972   9.900349   3.510379   5.984615   1.100138
    42  H    9.865111  10.466938   3.811185   5.938345   1.100572
    43  H    9.865029  10.466807   2.319332   7.181312   1.100573
    44  C    9.346287   8.754138   2.798831   6.120429   2.529529
    45  H   10.028683   9.405070   3.704321   5.968591   2.784261
    46  H    8.980256   7.901896   3.317743   6.026174   3.494257
    47  H   10.028599   9.404889   2.149202   7.201028   2.784292
                   41         42         43         44         45
    41  H    0.000000
    42  H    1.781628   0.000000
    43  H    1.781629   1.781121   0.000000
    44  C    3.493531   2.783262   2.783291   0.000000
    45  H    3.796971   2.585125   3.136962   1.099607   0.000000
    46  H    4.347421   3.795662   3.795700   1.100193   1.781189
    47  H    3.797007   3.136966   2.585189   1.099607   1.772762
                   46         47
    46  H    0.000000
    47  H    1.781189   0.000000
 Symmetry turned off by external request.
 Stoichiometry    C25H21N
 Framework group  C1[X(C25H21N)]
 Deg. of freedom   135
 Full point group                 C1      NOp   1
 Rotational constants (GHZ):      0.3150006      0.1817429      0.1465634
 Leave Link  202 at Mon Mar 29 16:29:50 2021, MaxMem=  5242880000 cpu:         0.1
 (Enter /opt/nce/packages/global/g09/l301.exe)
 Standard basis: def2TZVP (5D, 7F)
 Ernie: Thresh=  0.10000D-02 Tol=  0.10000D-05 Strict=F.
   932 basis functions,  1494 primitive gaussians,  1062 cartesian basis functions
    89 alpha electrons       89 beta electrons
       nuclear repulsion energy      2226.8289668978 Hartrees.
 IExCor= 3630 DFT=T Ex+Corr=B97D3 ExCW=0 ScaHFX=  0.000000
 ScaDFX=  1.000000  1.000000  1.000000  1.000000 ScalE2=  1.000000  1.000000
 IRadAn=      5 IRanWt=     -1 IRanGd=            0 ICorTp=0 IEmpDi=141
 NAtoms=   47 NActive=   47 NUniq=   47 SFac= 1.00D+00 NAtFMM=   60 NAOKFM=F Big=F
 Integral buffers will be    131072 words long.
 Raffenetti 2 integral format.
 Two-electron integral symmetry is turned off.
 R6Disp:  Grimme-D3(BJ) Dispersion energy=       -0.1893833352 Hartrees.
 Nuclear repulsion after empirical dispersion term =     2226.6395835626 Hartrees.
 ------------------------------------------------------------------------------
 Polarizable Continuum Model (PCM)
 =================================
 Model                : PCM (using non-symmetric T matrix).
 Atomic radii         : SMD-Coulomb.
 Polarization charges : Total charges.
 Charge compensation  : None.
 Solution method      : On-the-fly selection.
 Cavity type          : VdW (van der Waals Surface) (Alpha=1.000).
 Cavity algorithm     : GePol (No added spheres)
                        Default sphere list used, NSphG=   47.
                        Lebedev-Laikov grids with approx.  5.0 points / Ang**2.
                        Smoothing algorithm: York/Karplus (Gamma=1.0000).
                        Polarization charges: spherical gaussians, with
                                              point-specific exponents (IZeta= 3).
                        Self-potential: point-specific (ISelfS= 7).
                        Self-field    : sphere-specific E.n sum rule (ISelfD= 2).
 1st derivatives      : Analytical E(r).r(x)/FMM algorithm (CHGder, D1EAlg=3).
                        Cavity 1st derivative terms included.
 Solvent              : n,n-DiMethylFormamide, Eps=  37.219000 Eps(inf)=   2.046330
 ------------------------------------------------------------------------------
 GePol: Number of generator spheres                  =      47
 GePol: Total number of spheres                      =      47
 GePol: Number of exposed spheres                    =      47 (100.00%)
 GePol: Number of points                             =    3448
 GePol: Average weight of points                     =       0.10
 GePol: Minimum weight of points                     =   0.11D-10
 GePol: Maximum weight of points                     =    0.17992
 GePol: Number of points with low weight             =     254
 GePol: Fraction of low-weight points (<1% of avg)   =       7.37%
 GePol: Cavity surface area                          =    360.262 Ang**2
 GePol: Cavity volume                                =    354.637 Ang**3
 ------------------------------------------------------------------------------
 Atomic radii for non-electrostatic terms: SMD-CDS.
 ------------------------------------------------------------------------------
 PCM non-electrostatic energy =        -0.0052118738 Hartrees.
 Nuclear repulsion after PCM non-electrostatic terms =     2226.6343716888 Hartrees.
 Leave Link  301 at Mon Mar 29 16:29:51 2021, MaxMem=  5242880000 cpu:         1.8
 (Enter /opt/nce/packages/global/g09/l302.exe)
 NPDir=0 NMtPBC=     1 NCelOv=     1 NCel=       1 NClECP=     1 NCelD=      1
         NCelK=      1 NCelE2=     1 NClLst=     1 CellRange=     0.0.
 One-electron integrals computed using PRISM.
   1 Symmetry operations used in ECPInt.
 ECPInt:  NShTT=   68635 NPrTT=  209616 LenC2=   60285 LenP2D=  129458.
 LDataN:  DoStor=T MaxTD1= 6 Len=  172
 NBasis=   932 RedAO= T EigKep=  4.04D-06  NBF=   932
 NBsUse=   932 1.00D-06 EigRej= -1.00D+00 NBFU=   932
 Precomputing XC quadrature grid using
 IXCGrd= 4 IRadAn=           5 IRanWt=          -1 IRanGd=           0 AccXCQ= 0.00D+00.
 Generated NRdTot=       0 NPtTot=           0 NUsed=           0 NTot=          32
 NSgBfM=  1044  1044  1044  1045  1045 MxSgAt=    47 MxSgA2=    47.
 Leave Link  302 at Mon Mar 29 16:29:53 2021, MaxMem=  5242880000 cpu:        23.6
 (Enter /opt/nce/packages/global/g09/l303.exe)
 DipDrv:  MaxL=1.
 Leave Link  303 at Mon Mar 29 16:29:53 2021, MaxMem=  5242880000 cpu:         2.4
 (Enter /opt/nce/packages/global/g09/l401.exe)
 ExpMin= 9.52D-02 ExpMax= 1.97D+04 ExpMxC= 6.73D+02 IAcc=3 IRadAn=         5 AccDes= 0.00D+00
 Harris functional with IExCor= 3630 and IRadAn=       5 diagonalized for initial guess.
 HarFok:  IExCor= 3630 AccDes= 0.00D+00 IRadAn=         5 IDoV= 1 UseB2=F ITyADJ=14
 ICtDFT=  3500011 ScaDFX=  1.000000  1.000000  1.000000  1.000000
 FoFCou: FMM=F IPFlag=           0 FMFlag=      100000 FMFlg1=           0
         NFxFlg=           0 DoJE=T BraDBF=F KetDBF=T FulRan=T
         wScrn=  0.000000 ICntrl=     500 IOpCl=  0 I1Cent=   200000004 NGrid=           0
         NMat0=    1 NMatS0=      1 NMatT0=    0 NMatD0=    1 NMtDS0=    0 NMtDT0=    0
 Symmetry not used in FoFCou.
 Harris En= -1020.17892362003    
 JPrj=0 DoOrth=F DoCkMO=F.
 Leave Link  401 at Mon Mar 29 16:30:03 2021, MaxMem=  5242880000 cpu:       120.3
 (Enter /opt/nce/packages/global/g09/l502.exe)
 Closed shell SCF:
 Using DIIS extrapolation, IDIIS=  1040.
 Two-electron integral symmetry not used.
 IVT=     3421292 IEndB=     3421292 NGot=  5242880000 MDV=  5240604255
 LenX=  5240604255 LenY=  5239475349
 Requested convergence on RMS density matrix=1.00D-08 within 128 cycles.
 Requested convergence on MAX density matrix=1.00D-06.
 Requested convergence on             energy=1.00D-06.
 No special actions if energy rises.
 Fock matrices will be formed incrementally for  20 cycles.

 Cycle   1  Pass 1  IDiag  1:
 FoFJK:  IHMeth= 1 ICntrl=     500 DoSepK=F KAlg= 0 I1Cent=   0 FoldK=F
 IRaf= 780000000 NMat=   1 IRICut=       1 DoRegI=T DoRafI=F ISym2E= 0.
 FoFCou: FMM=F IPFlag=           0 FMFlag=      100000 FMFlg1=           0
         NFxFlg=           0 DoJE=T BraDBF=F KetDBF=F FulRan=T
         wScrn=  0.000000 ICntrl=     500 IOpCl=  0 I1Cent=           0 NGrid=           0
         NMat0=    1 NMatS0=      1 NMatT0=    0 NMatD0=    1 NMtDS0=    0 NMtDT0=    0
 Symmetry not used in FoFCou.
 Inv3:  Mode=1 IEnd=    35666112.
 Iteration    1 A*A^-1 deviation from unit magnitude is 6.44D-15 for   3438.
 Iteration    1 A*A^-1 deviation from orthogonality  is 4.08D-15 for   1420   1192.
 Iteration    1 A^-1*A deviation from unit magnitude is 6.22D-15 for   3438.
 Iteration    1 A^-1*A deviation from orthogonality  is 1.20D-12 for   1550   1515.
 E= -1019.23392743434    
 DIIS: error= 2.02D-02 at cycle   1 NSaved=   1.
 NSaved= 1 IEnMin= 1 EnMin= -1019.23392743434     IErMin= 1 ErrMin= 2.02D-02
 ErrMax= 2.02D-02  0.00D+00 EMaxC= 1.00D-01 BMatC= 5.35D-01 BMatP= 5.35D-01
 IDIUse=3 WtCom= 7.98D-01 WtEn= 2.02D-01
 Coeff-Com:  0.100D+01
 Coeff-En:   0.100D+01
 Coeff:      0.100D+01
 Gap=     0.113 Goal=   None    Shift=    0.000
 GapD=    0.113 DampG=1.000 DampE=0.500 DampFc=0.5000 IDamp=-1.
 Damping current iteration by 5.00D-01
 RMSDP=2.94D-03 MaxDP=1.75D-01              OVMax= 2.97D-01

 Cycle   2  Pass 1  IDiag  1:
 RMSU=  1.47D-03    CP:  9.83D-01
 E= -1019.41269380100     Delta-E=       -0.178766366664 Rises=F Damp=T
 DIIS: error= 8.34D-03 at cycle   2 NSaved=   2.
 NSaved= 2 IEnMin= 2 EnMin= -1019.41269380100     IErMin= 2 ErrMin= 8.34D-03
 ErrMax= 8.34D-03  0.00D+00 EMaxC= 1.00D-01 BMatC= 6.71D-02 BMatP= 5.35D-01
 IDIUse=3 WtCom= 9.17D-01 WtEn= 8.34D-02
 Coeff-Com:  0.169D+00 0.831D+00
 Coeff-En:   0.300D+00 0.700D+00
 Coeff:      0.180D+00 0.820D+00
 Gap=     0.085 Goal=   None    Shift=    0.000
 RMSDP=1.04D-03 MaxDP=8.15D-02 DE=-1.79D-01 OVMax= 3.59D-01

 Cycle   3  Pass 1  IDiag  1:
 RMSU=  9.13D-04    CP:  9.66D-01  6.73D-01
 E= -1019.65859746194     Delta-E=       -0.245903660938 Rises=F Damp=F
 DIIS: error= 1.41D-02 at cycle   3 NSaved=   3.
 NSaved= 3 IEnMin= 3 EnMin= -1019.65859746194     IErMin= 2 ErrMin= 8.34D-03
 ErrMax= 1.41D-02  0.00D+00 EMaxC= 1.00D-01 BMatC= 1.20D-01 BMatP= 6.71D-02
 IDIUse=2 WtCom= 0.00D+00 WtEn= 1.00D+00
 Coeff-En:   0.000D+00 0.000D+00 0.100D+01
 Coeff:      0.000D+00 0.000D+00 0.100D+01
 Gap=     0.150 Goal=   None    Shift=    0.000
 RMSDP=1.36D-03 MaxDP=1.20D-01 DE=-2.46D-01 OVMax= 3.79D-01

 Cycle   4  Pass 1  IDiag  1:
 RMSU=  1.02D-03    CP:  9.61D-01  7.12D-01  1.15D-02
 E= -1018.82390260459     Delta-E=        0.834694857350 Rises=F Damp=F
 DIIS: error= 3.91D-02 at cycle   4 NSaved=   4.
 NSaved= 4 IEnMin= 3 EnMin= -1019.65859746194     IErMin= 2 ErrMin= 8.34D-03
 ErrMax= 3.91D-02  0.00D+00 EMaxC= 1.00D-01 BMatC= 8.95D-01 BMatP= 6.71D-02
 IDIUse=2 WtCom= 0.00D+00 WtEn= 1.00D+00
 Coeff-En:   0.000D+00 0.000D+00 0.812D+00 0.188D+00
 Coeff:      0.000D+00 0.000D+00 0.812D+00 0.188D+00
 Gap=     0.128 Goal=   None    Shift=    0.000
 RMSDP=6.48D-04 MaxDP=6.20D-02 DE= 8.35D-01 OVMax= 2.36D-01

 Cycle   5  Pass 1  IDiag  1:
 RMSU=  2.26D-04    CP:  9.64D-01  6.40D-01  3.84D-01  5.17D-01
 E= -1019.70201230969     Delta-E=       -0.878109705093 Rises=F Damp=F
 DIIS: error= 1.18D-02 at cycle   5 NSaved=   5.
 NSaved= 5 IEnMin= 5 EnMin= -1019.70201230969     IErMin= 2 ErrMin= 8.34D-03
 ErrMax= 1.18D-02  0.00D+00 EMaxC= 1.00D-01 BMatC= 8.47D-02 BMatP= 6.71D-02
 IDIUse=2 WtCom= 0.00D+00 WtEn= 1.00D+00
 Coeff-En:   0.000D+00 0.000D+00 0.434D+00 0.000D+00 0.566D+00
 Coeff:      0.000D+00 0.000D+00 0.434D+00 0.000D+00 0.566D+00
 Gap=     0.088 Goal=   None    Shift=    0.000
 RMSDP=3.67D-04 MaxDP=3.53D-02 DE=-8.78D-01 OVMax= 1.42D-01

 Cycle   6  Pass 1  IDiag  1:
 RMSU=  5.40D-05    CP:  9.66D-01  6.32D-01  6.52D-01  2.58D-01  8.35D-01
 E= -1019.79237341942     Delta-E=       -0.090361109733 Rises=F Damp=F
 DIIS: error= 1.27D-03 at cycle   6 NSaved=   6.
 NSaved= 6 IEnMin= 6 EnMin= -1019.79237341942     IErMin= 6 ErrMin= 1.27D-03
 ErrMax= 1.27D-03  0.00D+00 EMaxC= 1.00D-01 BMatC= 1.81D-03 BMatP= 6.71D-02
 IDIUse=3 WtCom= 9.87D-01 WtEn= 1.27D-02
 Coeff-Com: -0.633D-02 0.688D-02 0.116D+00-0.453D-01 0.348D+00 0.580D+00
 Coeff-En:   0.000D+00 0.000D+00 0.000D+00 0.000D+00 0.000D+00 0.100D+01
 Coeff:     -0.625D-02 0.679D-02 0.114D+00-0.447D-01 0.344D+00 0.586D+00
 Gap=     0.088 Goal=   None    Shift=    0.000
 RMSDP=5.42D-05 MaxDP=5.85D-03 DE=-9.04D-02 OVMax= 1.87D-02

 Cycle   7  Pass 1  IDiag  1:
 RMSU=  2.86D-05    CP:  9.64D-01  6.42D-01  6.25D-01  2.88D-01  8.87D-01
                    CP:  7.46D-01
 E= -1019.79403837525     Delta-E=       -0.001664955835 Rises=F Damp=F
 DIIS: error= 2.45D-04 at cycle   7 NSaved=   7.
 NSaved= 7 IEnMin= 7 EnMin= -1019.79403837525     IErMin= 7 ErrMin= 2.45D-04
 ErrMax= 2.45D-04  0.00D+00 EMaxC= 1.00D-01 BMatC= 9.58D-05 BMatP= 1.81D-03
 IDIUse=3 WtCom= 9.98D-01 WtEn= 2.45D-03
 Coeff-Com: -0.374D-02 0.623D-02 0.427D-01-0.212D-01 0.147D+00 0.336D+00
 Coeff-Com:  0.493D+00
 Coeff-En:   0.000D+00 0.000D+00 0.000D+00 0.000D+00 0.000D+00 0.135D-01
 Coeff-En:   0.987D+00
 Coeff:     -0.373D-02 0.621D-02 0.426D-01-0.212D-01 0.147D+00 0.335D+00
 Coeff:      0.494D+00
 Gap=     0.088 Goal=   None    Shift=    0.000
 RMSDP=1.23D-05 MaxDP=1.05D-03 DE=-1.66D-03 OVMax= 5.35D-03

 Cycle   8  Pass 1  IDiag  1:
 RMSU=  9.74D-06    CP:  9.64D-01  6.40D-01  6.25D-01  2.86D-01  8.96D-01
                    CP:  7.73D-01  7.76D-01
 E= -1019.79411697182     Delta-E=       -0.000078596564 Rises=F Damp=F
 DIIS: error= 1.19D-04 at cycle   8 NSaved=   8.
 NSaved= 8 IEnMin= 8 EnMin= -1019.79411697182     IErMin= 8 ErrMin= 1.19D-04
 ErrMax= 1.19D-04  0.00D+00 EMaxC= 1.00D-01 BMatC= 1.47D-05 BMatP= 9.58D-05
 IDIUse=3 WtCom= 9.99D-01 WtEn= 1.19D-03
 Coeff-Com: -0.139D-02 0.233D-02 0.566D-02-0.399D-02 0.267D-01 0.133D+00
 Coeff-Com:  0.319D+00 0.519D+00
 Coeff-En:   0.000D+00 0.000D+00 0.000D+00 0.000D+00 0.000D+00 0.000D+00
 Coeff-En:   0.948D-01 0.905D+00
 Coeff:     -0.138D-02 0.233D-02 0.565D-02-0.399D-02 0.267D-01 0.133D+00
 Coeff:      0.318D+00 0.520D+00
 Gap=     0.088 Goal=   None    Shift=    0.000
 RMSDP=5.04D-06 MaxDP=4.94D-04 DE=-7.86D-05 OVMax= 2.08D-03

 Cycle   9  Pass 1  IDiag  1:
 RMSU=  3.43D-06    CP:  9.64D-01  6.41D-01  6.26D-01  2.85D-01  8.90D-01
                    CP:  7.84D-01  7.93D-01  6.90D-01
 E= -1019.79413069854     Delta-E=       -0.000013726726 Rises=F Damp=F
 DIIS: error= 4.26D-05 at cycle   9 NSaved=   9.
 NSaved= 9 IEnMin= 9 EnMin= -1019.79413069854     IErMin= 9 ErrMin= 4.26D-05
 ErrMax= 4.26D-05  0.00D+00 EMaxC= 1.00D-01 BMatC= 1.81D-06 BMatP= 1.47D-05
 IDIUse=1 WtCom= 1.00D+00 WtEn= 0.00D+00
 Coeff-Com: -0.646D-03 0.105D-02 0.278D-03-0.833D-03 0.539D-02 0.633D-01
 Coeff-Com:  0.172D+00 0.350D+00 0.410D+00
 Coeff:     -0.646D-03 0.105D-02 0.278D-03-0.833D-03 0.539D-02 0.633D-01
 Coeff:      0.172D+00 0.350D+00 0.410D+00
 Gap=     0.088 Goal=   None    Shift=    0.000
 RMSDP=1.61D-06 MaxDP=1.11D-04 DE=-1.37D-05 OVMax= 5.18D-04

 Cycle  10  Pass 1  IDiag  1:
 RMSU=  1.05D-06    CP:  9.64D-01  6.41D-01  6.26D-01  2.85D-01  8.90D-01
                    CP:  7.85D-01  8.01D-01  7.15D-01  6.70D-01
 E= -1019.79413263815     Delta-E=       -0.000001939611 Rises=F Damp=F
 DIIS: error= 9.46D-06 at cycle  10 NSaved=  10.
 NSaved=10 IEnMin=10 EnMin= -1019.79413263815     IErMin=10 ErrMin= 9.46D-06
 ErrMax= 9.46D-06  0.00D+00 EMaxC= 1.00D-01 BMatC= 5.50D-08 BMatP= 1.81D-06
 IDIUse=1 WtCom= 1.00D+00 WtEn= 0.00D+00
 Coeff-Com: -0.231D-03 0.375D-03-0.275D-03-0.793D-04 0.478D-03 0.223D-01
 Coeff-Com:  0.627D-01 0.139D+00 0.206D+00 0.569D+00
 Coeff:     -0.231D-03 0.375D-03-0.275D-03-0.793D-04 0.478D-03 0.223D-01
 Coeff:      0.627D-01 0.139D+00 0.206D+00 0.569D+00
 Gap=     0.088 Goal=   None    Shift=    0.000
 RMSDP=3.85D-07 MaxDP=3.09D-05 DE=-1.94D-06 OVMax= 1.10D-04

 Cycle  11  Pass 1  IDiag  1:
 RMSU=  3.13D-07    CP:  9.64D-01  6.41D-01  6.26D-01  2.85D-01  8.90D-01
                    CP:  7.86D-01  8.02D-01  7.21D-01  6.89D-01  8.36D-01
 E= -1019.79413268149     Delta-E=       -0.000000043339 Rises=F Damp=F
 DIIS: error= 4.28D-06 at cycle  11 NSaved=  11.
 NSaved=11 IEnMin=11 EnMin= -1019.79413268149     IErMin=11 ErrMin= 4.28D-06
 ErrMax= 4.28D-06  0.00D+00 EMaxC= 1.00D-01 BMatC= 1.56D-08 BMatP= 5.50D-08
 IDIUse=1 WtCom= 1.00D+00 WtEn= 0.00D+00
 Coeff-Com: -0.947D-04 0.156D-03-0.212D-03 0.302D-04-0.229D-03 0.861D-02
 Coeff-Com:  0.242D-01 0.570D-01 0.940D-01 0.385D+00 0.431D+00
 Coeff:     -0.947D-04 0.156D-03-0.212D-03 0.302D-04-0.229D-03 0.861D-02
 Coeff:      0.242D-01 0.570D-01 0.940D-01 0.385D+00 0.431D+00
 Gap=     0.088 Goal=   None    Shift=    0.000
 RMSDP=1.52D-07 MaxDP=1.10D-05 DE=-4.33D-08 OVMax= 4.78D-05

 Cycle  12  Pass 1  IDiag  1:
 RMSU=  1.11D-07    CP:  9.64D-01  6.41D-01  6.26D-01  2.85D-01  8.90D-01
                    CP:  7.86D-01  8.03D-01  7.21D-01  6.90D-01  8.71D-01
                    CP:  7.07D-01
 E= -1019.79413269784     Delta-E=       -0.000000016350 Rises=F Damp=F
 DIIS: error= 7.55D-07 at cycle  12 NSaved=  12.
 NSaved=12 IEnMin=12 EnMin= -1019.79413269784     IErMin=12 ErrMin= 7.55D-07
 ErrMax= 7.55D-07  0.00D+00 EMaxC= 1.00D-01 BMatC= 6.25D-10 BMatP= 1.56D-08
 IDIUse=1 WtCom= 1.00D+00 WtEn= 0.00D+00
 Coeff-Com: -0.318D-04 0.544D-04-0.758D-04 0.164D-04-0.136D-03 0.258D-02
 Coeff-Com:  0.728D-02 0.180D-01 0.314D-01 0.157D+00 0.232D+00 0.552D+00
 Coeff:     -0.318D-04 0.544D-04-0.758D-04 0.164D-04-0.136D-03 0.258D-02
 Coeff:      0.728D-02 0.180D-01 0.314D-01 0.157D+00 0.232D+00 0.552D+00
 Gap=     0.088 Goal=   None    Shift=    0.000
 RMSDP=4.08D-08 MaxDP=2.54D-06 DE=-1.63D-08 OVMax= 1.08D-05

 Cycle  13  Pass 1  IDiag  1:
 RMSU=  3.48D-08    CP:  9.64D-01  6.41D-01  6.26D-01  2.85D-01  8.90D-01
                    CP:  7.86D-01  8.03D-01  7.22D-01  6.93D-01  8.73D-01
                    CP:  7.42D-01  8.96D-01
 E= -1019.79413269843     Delta-E=       -0.000000000588 Rises=F Damp=F
 DIIS: error= 3.19D-07 at cycle  13 NSaved=  13.
 NSaved=13 IEnMin=13 EnMin= -1019.79413269843     IErMin=13 ErrMin= 3.19D-07
 ErrMax= 3.19D-07  0.00D+00 EMaxC= 1.00D-01 BMatC= 1.10D-10 BMatP= 6.25D-10
 IDIUse=1 WtCom= 1.00D+00 WtEn= 0.00D+00
 Coeff-Com: -0.565D-05 0.953D-05-0.106D-04 0.365D-05-0.341D-04 0.274D-03
 Coeff-Com:  0.711D-03 0.211D-02 0.443D-02 0.357D-01 0.748D-01 0.337D+00
 Coeff-Com:  0.545D+00
 Coeff:     -0.565D-05 0.953D-05-0.106D-04 0.365D-05-0.341D-04 0.274D-03
 Coeff:      0.711D-03 0.211D-02 0.443D-02 0.357D-01 0.748D-01 0.337D+00
 Coeff:      0.545D+00
 Gap=     0.088 Goal=   None    Shift=    0.000
 RMSDP=1.43D-08 MaxDP=8.84D-07 DE=-5.88D-10 OVMax= 3.81D-06

 Cycle  14  Pass 1  IDiag  1:
 RMSU=  1.16D-08    CP:  9.64D-01  6.41D-01  6.26D-01  2.85D-01  8.90D-01
                    CP:  7.86D-01  8.03D-01  7.22D-01  6.93D-01  8.77D-01
                    CP:  7.43D-01  9.30D-01  8.51D-01
 E= -1019.79413269855     Delta-E=       -0.000000000116 Rises=F Damp=F
 DIIS: error= 1.13D-07 at cycle  14 NSaved=  14.
 NSaved=14 IEnMin=14 EnMin= -1019.79413269855     IErMin=14 ErrMin= 1.13D-07
 ErrMax= 1.13D-07  0.00D+00 EMaxC= 1.00D-01 BMatC= 9.08D-12 BMatP= 1.10D-10
 IDIUse=1 WtCom= 1.00D+00 WtEn= 0.00D+00
 Coeff-Com: -0.131D-05 0.178D-05-0.183D-05 0.967D-06-0.883D-05-0.648D-06
 Coeff-Com: -0.569D-04 0.256D-04 0.404D-03 0.909D-02 0.255D-01 0.151D+00
 Coeff-Com:  0.311D+00 0.504D+00
 Coeff:     -0.131D-05 0.178D-05-0.183D-05 0.967D-06-0.883D-05-0.648D-06
 Coeff:     -0.569D-04 0.256D-04 0.404D-03 0.909D-02 0.255D-01 0.151D+00
 Coeff:      0.311D+00 0.504D+00
 Gap=     0.088 Goal=   None    Shift=    0.000
 RMSDP=4.46D-09 MaxDP=2.50D-07 DE=-1.16D-10 OVMax= 1.01D-06

 Error on total polarization charges =  0.07219
 SCF Done:  E(RB97D3) =  -1019.79413270     A.U. after   14 cycles
            NFock= 14  Conv=0.45D-08     -V/T= 2.0051
 KE= 1.014628762689D+03 PE=-6.821330917024D+03 EE= 2.560273649948D+03
 SMD-CDS (non-electrostatic) energy       (kcal/mol) =      -3.27
 (included in total energy above)
 Leave Link  502 at Mon Mar 29 16:42:02 2021, MaxMem=  5242880000 cpu:      8576.6
 (Enter /opt/nce/packages/global/g09/l601.exe)
 Copying SCF densities to generalized density rwf, IOpCl= 0 IROHF=0.

 **********************************************************************

            Population analysis using the SCF density.

 **********************************************************************

 Alpha  occ. eigenvalues --  -14.03207  -9.94496  -9.94495  -9.94394  -9.92410
 Alpha  occ. eigenvalues --   -9.91827  -9.91801  -9.90836  -9.90789  -9.90737
 Alpha  occ. eigenvalues --   -9.90664  -9.90663  -9.90615  -9.90588  -9.90528
 Alpha  occ. eigenvalues --   -9.90513  -9.89802  -9.89802  -9.89690  -9.89690
 Alpha  occ. eigenvalues --   -9.89606  -9.89606  -9.89184  -9.89184  -9.88386
 Alpha  occ. eigenvalues --   -9.88314  -0.89792  -0.80164  -0.77826  -0.77791
 Alpha  occ. eigenvalues --   -0.74942  -0.73447  -0.70539  -0.68654  -0.67634
 Alpha  occ. eigenvalues --   -0.67203  -0.66410  -0.65466  -0.63414  -0.61319
 Alpha  occ. eigenvalues --   -0.57947  -0.56570  -0.56447  -0.55817  -0.54730
 Alpha  occ. eigenvalues --   -0.53131  -0.51164  -0.48624  -0.48538  -0.47619
 Alpha  occ. eigenvalues --   -0.46235  -0.44669  -0.43425  -0.41803  -0.41244
 Alpha  occ. eigenvalues --   -0.40566  -0.40356  -0.40237  -0.38546  -0.38367
 Alpha  occ. eigenvalues --   -0.38018  -0.37392  -0.37208  -0.36827  -0.36710
 Alpha  occ. eigenvalues --   -0.35545  -0.35056  -0.34464  -0.33946  -0.33265
 Alpha  occ. eigenvalues --   -0.33158  -0.32257  -0.31998  -0.31786  -0.30367
 Alpha  occ. eigenvalues --   -0.30287  -0.29714  -0.29601  -0.29488  -0.28101
 Alpha  occ. eigenvalues --   -0.27840  -0.27129  -0.25739  -0.23119  -0.22345
 Alpha  occ. eigenvalues --   -0.21927  -0.21546  -0.19923  -0.16388
 Alpha virt. eigenvalues --   -0.07630  -0.04998  -0.04066  -0.03739  -0.02784
 Alpha virt. eigenvalues --   -0.01442  -0.00185   0.03042   0.04156   0.04500
 Alpha virt. eigenvalues --    0.04829   0.05361   0.05395   0.05981   0.07203
 Alpha virt. eigenvalues --    0.07455   0.07618   0.08179   0.09327   0.09537
 Alpha virt. eigenvalues --    0.09685   0.10023   0.10412   0.10504   0.10517
 Alpha virt. eigenvalues --    0.10737   0.11709   0.11764   0.12415   0.12888
 Alpha virt. eigenvalues --    0.13327   0.13436   0.14375   0.14958   0.15494
 Alpha virt. eigenvalues --    0.15632   0.15966   0.16426   0.16709   0.17055
 Alpha virt. eigenvalues --    0.17561   0.17799   0.18134   0.18363   0.19216
 Alpha virt. eigenvalues --    0.19552   0.19578   0.19836   0.20197   0.20361
 Alpha virt. eigenvalues --    0.20519   0.21119   0.21603   0.21779   0.22285
 Alpha virt. eigenvalues --    0.22326   0.22546   0.23125   0.23367   0.24369
 Alpha virt. eigenvalues --    0.24420   0.25040   0.25235   0.25682   0.25706
 Alpha virt. eigenvalues --    0.26230   0.26352   0.26746   0.27253   0.27629
 Alpha virt. eigenvalues --    0.27686   0.28592   0.29213   0.29871   0.30114
 Alpha virt. eigenvalues --    0.30240   0.30463   0.30573   0.30839   0.31525
 Alpha virt. eigenvalues --    0.31657   0.32325   0.32934   0.33355   0.33376
 Alpha virt. eigenvalues --    0.33802   0.34030   0.34403   0.34449   0.34865
 Alpha virt. eigenvalues --    0.35348   0.36137   0.36302   0.36497   0.36547
 Alpha virt. eigenvalues --    0.37005   0.37124   0.37580   0.37965   0.38223
 Alpha virt. eigenvalues --    0.38499   0.38955   0.39185   0.39195   0.39315
 Alpha virt. eigenvalues --    0.39738   0.40689   0.41344   0.41481   0.41874
 Alpha virt. eigenvalues --    0.42488   0.42536   0.43218   0.43302   0.43520
 Alpha virt. eigenvalues --    0.44246   0.44391   0.45066   0.45290   0.45584
 Alpha virt. eigenvalues --    0.45893   0.46272   0.46529   0.46916   0.46973
 Alpha virt. eigenvalues --    0.47439   0.47660   0.48087   0.48089   0.48162
 Alpha virt. eigenvalues --    0.48865   0.49770   0.50287   0.50467   0.50949
 Alpha virt. eigenvalues --    0.51112   0.52312   0.53250   0.53657   0.54374
 Alpha virt. eigenvalues --    0.54479   0.55218   0.55271   0.55977   0.56210
 Alpha virt. eigenvalues --    0.56868   0.58305   0.58558   0.59284   0.60333
 Alpha virt. eigenvalues --    0.60596   0.61325   0.61902   0.61918   0.62549
 Alpha virt. eigenvalues --    0.62559   0.63455   0.63662   0.63909   0.64692
 Alpha virt. eigenvalues --    0.64792   0.65097   0.65206   0.65586   0.66360
 Alpha virt. eigenvalues --    0.66496   0.66510   0.67678   0.67846   0.68617
 Alpha virt. eigenvalues --    0.68867   0.69086   0.69643   0.70327   0.71072
 Alpha virt. eigenvalues --    0.71095   0.72197   0.72500   0.72864   0.72904
 Alpha virt. eigenvalues --    0.73853   0.73881   0.74452   0.74527   0.75713
 Alpha virt. eigenvalues --    0.75838   0.77168   0.77735   0.77742   0.79108
 Alpha virt. eigenvalues --    0.80155   0.80269   0.80533   0.81270   0.81519
 Alpha virt. eigenvalues --    0.81926   0.82166   0.82470   0.82897   0.83646
 Alpha virt. eigenvalues --    0.84236   0.84471   0.85111   0.85933   0.86435
 Alpha virt. eigenvalues --    0.86806   0.86909   0.87958   0.88683   0.88966
 Alpha virt. eigenvalues --    0.89200   0.89604   0.91388   0.91567   0.92493
 Alpha virt. eigenvalues --    0.92635   0.93547   0.94010   0.94904   0.95014
 Alpha virt. eigenvalues --    0.95861   0.96788   0.97413   0.97650   0.99113
 Alpha virt. eigenvalues --    0.99579   1.00088   1.00918   1.01541   1.02141
 Alpha virt. eigenvalues --    1.02386   1.02980   1.04816   1.04899   1.05398
 Alpha virt. eigenvalues --    1.06440   1.07198   1.07789   1.08278   1.08816
 Alpha virt. eigenvalues --    1.09251   1.09752   1.10159   1.10267   1.10707
 Alpha virt. eigenvalues --    1.12091   1.12422   1.13473   1.14251   1.14502
 Alpha virt. eigenvalues --    1.15180   1.15540   1.17022   1.17037   1.17955
 Alpha virt. eigenvalues --    1.18326   1.19058   1.19502   1.19643   1.19676
 Alpha virt. eigenvalues --    1.20174   1.21066   1.21543   1.21958   1.22384
 Alpha virt. eigenvalues --    1.22412   1.23017   1.23916   1.24071   1.25459
[...]
     7  C    0.000053   0.000061  -0.000030  -0.000022  -0.001490   0.000006
     8  C   -0.000413  -0.000558   0.000335  -0.000302   0.001791   0.000005
     9  C   -0.002221  -0.001626   0.003020  -0.000706   0.001837  -0.000067
    10  C    0.003622  -0.000434   0.000063   0.000143  -0.001050  -0.000014
    11  H    0.002456  -0.000784  -0.000113   0.000030   0.000256  -0.000088
    12  C    0.000147   0.000188   0.000066  -0.000085   0.000027  -0.000034
    13  C    0.000003  -0.000012  -0.000003   0.000023   0.000008   0.000002
    14  C    0.000011   0.000005   0.000016  -0.000024   0.000007  -0.000003
    15  H    0.002456  -0.000784  -0.000113   0.000030   0.000256  -0.000088
    16  H    0.000000   0.000000  -0.000001  -0.000000   0.000000  -0.000000
    17  H   -0.000000  -0.000000  -0.000000   0.000000  -0.000001   0.000000
    18  H    0.000001   0.000010   0.000003  -0.000003  -0.000000  -0.000001
    19  H   -0.000000  -0.000000  -0.000000   0.000000  -0.000001   0.000000
    20  N    0.014923   0.009429  -0.001234   0.003536   0.009470  -0.000727
    21  C   -0.011102   0.115697  -0.092021   0.012776  -0.033904   0.022219
    22  C    0.246991  -0.144026   0.020155   0.016600  -0.039594   0.001235
    23  C   -0.126107   0.237864   0.472058  -0.003411   0.001704  -0.000102
    24  C    0.033857  -0.005104  -0.000378   0.367837   0.448172  -0.121523
    25  C    5.109868   0.091013  -0.005786  -0.085655   0.012337   0.342627
    26  C    0.091013   5.169595  -0.073534   0.001620  -0.000575   0.011737
    27  H   -0.005786  -0.073534   0.541666  -0.000028  -0.000005   0.000015
    28  C   -0.085655   0.001620  -0.000028   5.075307  -0.063446   0.063827
    29  H    0.012337  -0.000575  -0.000005  -0.063446   0.519077  -0.003933
    30  C    0.342627   0.011737   0.000015   0.063827  -0.003933   5.196265
    31  C    0.301927   0.308626   0.018229  -0.003107   0.000598  -0.109620
    32  H    0.019393   0.468963  -0.010347   0.000012  -0.000003  -0.000805
    33  C    0.077360  -0.002374   0.000018   0.311198   0.012539   0.384424
    34  H   -0.003428   0.000007  -0.000001   0.454526  -0.008349   0.015188
    35  H   -0.083957   0.000477  -0.000002   0.016803   0.000055   0.467157
    36  H   -0.091538  -0.077924  -0.000133  -0.000005   0.000027  -0.007555
    37  H    0.014823   0.000026   0.000000  -0.069107  -0.000190  -0.070796
    38  H    0.000000   0.000000  -0.000001  -0.000000   0.000000  -0.000000
    39  H    0.000001   0.000010   0.000003  -0.000003  -0.000000  -0.000001
    40  C    0.000000   0.000003   0.000020  -0.000002   0.000012   0.000000
    41  H   -0.000001  -0.000003   0.000060  -0.000000  -0.000001  -0.000000
    42  H   -0.000000  -0.000000  -0.000001   0.000000  -0.000000   0.000000
    43  H   -0.000000  -0.000000  -0.000001   0.000000  -0.000000   0.000000
    44  C   -0.000002  -0.000003   0.000003   0.000030   0.000466  -0.000001
    45  H    0.000000   0.000000  -0.000000  -0.000001  -0.000017   0.000000
    46  H    0.000003   0.000000  -0.000000  -0.000034   0.000841  -0.000000
    47  H    0.000000   0.000000  -0.000000  -0.000001  -0.000017   0.000000
              31         32         33         34         35         36
     1  C   -0.000104   0.000000   0.000008  -0.000002  -0.000000  -0.000002
     2  C    0.000459   0.000012  -0.000199   0.000056  -0.000003  -0.000027
     3  C    0.000832  -0.000074   0.000067  -0.000019  -0.000003   0.000017
     4  C    0.000142  -0.000003  -0.000001   0.000018  -0.000000   0.000001
     5  C   -0.000002   0.000000   0.000002  -0.000002  -0.000000  -0.000000
     6  C    0.000008  -0.000000   0.000000  -0.000000   0.000000   0.000000
     7  C   -0.000022   0.000000  -0.000004   0.000004  -0.000000  -0.000000
     8  C    0.000142  -0.000003  -0.000001   0.000018  -0.000000   0.000001
     9  C    0.000832  -0.000074   0.000067  -0.000019  -0.000003   0.000017
    10  C    0.000459   0.000012  -0.000199   0.000056  -0.000003  -0.000027
    11  H    0.001814  -0.000049   0.000006   0.000000   0.000004   0.000028
    12  C   -0.000104   0.000000   0.000008  -0.000002  -0.000000  -0.000002
    13  C    0.000008  -0.000000   0.000000  -0.000000   0.000000   0.000000
    14  C   -0.000002   0.000000   0.000002  -0.000002  -0.000000  -0.000000
    15  H    0.001814  -0.000049   0.000006   0.000000   0.000004   0.000028
    16  H   -0.000000  -0.000000   0.000000  -0.000000   0.000000   0.000000
    17  H   -0.000000   0.000000  -0.000000   0.000000   0.000000   0.000000
    18  H   -0.000007   0.000000   0.000001  -0.000000  -0.000000  -0.000000
    19  H   -0.000000   0.000000  -0.000000   0.000000   0.000000   0.000000
    20  N    0.000392  -0.000429   0.000171  -0.000015   0.000013   0.000017
    21  C   -0.213137   0.023836  -0.008978  -0.000682  -0.000134  -0.007133
    22  C    0.075264  -0.006383  -0.116573   0.014652   0.016323   0.014724
    23  C    0.117427  -0.078509   0.001420   0.000003  -0.000014   0.018751
    24  C    0.023889   0.000180   0.082826  -0.073015  -0.005771  -0.000296
    25  C    0.301927   0.019393   0.077360  -0.003428  -0.083957  -0.091538
    26  C    0.308626   0.468963  -0.002374   0.000007   0.000477  -0.077924
    27  H    0.018229  -0.010347   0.000018  -0.000001  -0.000002  -0.000133
    28  C   -0.003107   0.000012   0.311198   0.454526   0.016803  -0.000005
    29  H    0.000598  -0.000003   0.012539  -0.008349   0.000055   0.000027
    30  C   -0.109620  -0.000805   0.384424   0.015188   0.467157  -0.007555
    31  C    5.308307  -0.084345   0.015391   0.000055  -0.007856   0.482661
    32  H   -0.084345   0.548658   0.000003   0.000000  -0.000046  -0.011094
    33  C    0.015391   0.000003   5.058991  -0.064709  -0.073415   0.000621
    34  H    0.000055   0.000000  -0.064709   0.541928  -0.000206  -0.000002
    35  H   -0.007856  -0.000046  -0.073415  -0.000206   0.546607   0.004934
    36  H    0.482661  -0.011094   0.000621  -0.000002   0.004934   0.547313
    37  H   -0.000860  -0.000000   0.453706  -0.009323  -0.010400  -0.000063
    38  H   -0.000000  -0.000000   0.000000  -0.000000   0.000000   0.000000
    39  H   -0.000007   0.000000   0.000001  -0.000000  -0.000000  -0.000000
    40  C    0.000000  -0.000000  -0.000000   0.000000  -0.000000  -0.000000
    41  H    0.000000  -0.000000   0.000000  -0.000000   0.000000   0.000000
    42  H   -0.000000   0.000000  -0.000000   0.000000   0.000000   0.000000
    43  H   -0.000000   0.000000  -0.000000   0.000000   0.000000   0.000000
    44  C    0.000001   0.000000   0.000002  -0.000003   0.000000   0.000000
    45  H   -0.000000  -0.000000  -0.000000   0.000000  -0.000000  -0.000000
    46  H   -0.000000  -0.000000   0.000000   0.000003  -0.000000   0.000000
    47  H   -0.000000  -0.000000  -0.000000   0.000000  -0.000000  -0.000000
              37         38         39         40         41         42
     1  C    0.000000  -0.000000   0.454197  -0.000637  -0.000061   0.000363
     2  C   -0.000001   0.000014  -0.072359   0.000038  -0.000024  -0.000446
     3  C   -0.000000   0.000088   0.013733  -0.010561   0.000923   0.002973
     4  C   -0.000000   0.000196  -0.002926  -0.020517   0.008999  -0.011887
     5  C    0.000000  -0.000152   0.016284  -0.008542   0.000287   0.004266
     6  C   -0.000000   0.000003  -0.067899   0.003238  -0.000176  -0.001915
     7  C    0.000000  -0.011331   0.000113   0.280124  -0.062366  -0.038940
     8  C   -0.000000  -0.099229  -0.000013  -0.020532   0.009000   0.011921
     9  C   -0.000000   0.028251   0.000030  -0.010560   0.000922   0.000084
    10  C   -0.000001  -0.007202  -0.000002   0.000037  -0.000023   0.000041
    11  H   -0.000001   0.000015  -0.000000   0.000054   0.000006  -0.000001
    12  C    0.000000   0.017458   0.000000  -0.000636  -0.000062   0.000004
    13  C   -0.000000  -0.065263   0.000000   0.003237  -0.000176  -0.000050
    14  C    0.000000   0.463866  -0.000000  -0.008544   0.000286  -0.000318
    15  H   -0.000001   0.000000  -0.008563   0.000054   0.000006  -0.000002
    16  H    0.000000  -0.000023  -0.000299  -0.000935   0.000008   0.005878
    17  H   -0.000000  -0.000000  -0.009730   0.000024   0.000005  -0.000029
    18  H    0.000000  -0.000300  -0.000000   0.000001  -0.000001   0.000000
    19  H   -0.000000  -0.009085   0.000000   0.000024   0.000005  -0.000003
    20  N   -0.000002  -0.000074  -0.000233   0.001008  -0.000321  -0.000033
    21  C    0.000208   0.000039   0.000118  -0.000153   0.000114   0.000003
    22  C   -0.003936  -0.000000  -0.000094   0.000107   0.000005   0.000000
    23  C    0.000002  -0.000001  -0.000013   0.000084  -0.000001  -0.000004
    24  C    0.016520   0.000003   0.000062  -0.000092   0.000005   0.000001
    25  C    0.014823   0.000000   0.000001   0.000000  -0.000001  -0.000000
    26  C    0.000026   0.000000   0.000010   0.000003  -0.000003  -0.000000
    27  H    0.000000  -0.000001   0.000003   0.000020   0.000060  -0.000001
    28  C   -0.069107  -0.000000  -0.000003  -0.000002  -0.000000   0.000000
    29  H   -0.000190   0.000000  -0.000000   0.000012  -0.000001  -0.000000
    30  C   -0.070796  -0.000000  -0.000001   0.000000  -0.000000   0.000000
    31  C   -0.000860  -0.000000  -0.000007   0.000000   0.000000  -0.000000
    32  H   -0.000000  -0.000000   0.000000  -0.000000  -0.000000   0.000000
    33  C    0.453706   0.000000   0.000001  -0.000000   0.000000  -0.000000
    34  H   -0.009323  -0.000000  -0.000000   0.000000  -0.000000   0.000000
    35  H   -0.010400   0.000000  -0.000000  -0.000000   0.000000   0.000000
    36  H   -0.000063   0.000000  -0.000000  -0.000000   0.000000   0.000000
    37  H    0.545334   0.000000   0.000000  -0.000000   0.000000  -0.000000
    38  H    0.000000   0.546427   0.000000  -0.000934   0.000008  -0.000229
    39  H    0.000000   0.000000   0.550336   0.000001  -0.000001   0.000000
    40  C   -0.000000  -0.000934   0.000001   5.086142   0.395841   0.391369
    41  H    0.000000   0.000008  -0.000001   0.395841   0.557972  -0.020823
    42  H   -0.000000  -0.000229   0.000000   0.391369  -0.020823   0.555926
    43  H   -0.000000   0.005878   0.000000   0.391370  -0.020824  -0.021237
    44  C    0.000000  -0.000827   0.000002  -0.073361   0.011798  -0.001667
    45  H   -0.000000  -0.000222  -0.000000  -0.001619  -0.000136   0.000645
    46  H   -0.000000  -0.000028  -0.000001   0.011685  -0.000576  -0.000141
    47  H   -0.000000   0.005917   0.000000  -0.001619  -0.000136  -0.000088
              43         44         45         46         47
     1  C    0.000004  -0.000115   0.000302  -0.000126  -0.000002
     2  C    0.000041  -0.001185  -0.000362   0.000118   0.000068
     3  C    0.000084  -0.009241   0.002696  -0.001683   0.000435
     4  C    0.011921  -0.000570  -0.014422   0.010339   0.010257
     5  C   -0.000318  -0.004526   0.003639   0.000701  -0.000632
     6  C   -0.000050   0.002339  -0.001679  -0.000054  -0.000038
     7  C   -0.038938   0.224314  -0.034126  -0.059715  -0.034136
     8  C   -0.011889  -0.000554   0.010254   0.010338  -0.014405
     9  C    0.002973  -0.009244   0.000436  -0.001680   0.002695
    10  C   -0.000446  -0.001184   0.000068   0.000118  -0.000361
    11  H   -0.000002   0.000047  -0.000001   0.000007  -0.000002
    12  C    0.000363  -0.000115  -0.000002  -0.000126   0.000302
    13  C   -0.001915   0.002339  -0.000038  -0.000054  -0.001679
    14  C    0.004266  -0.004512  -0.000632   0.000703   0.003636
    15  H   -0.000001   0.000047  -0.000002   0.000007  -0.000001
    16  H   -0.000229  -0.000831   0.005919  -0.000028  -0.000222
    17  H   -0.000003   0.000011  -0.000025   0.000005  -0.000003
    18  H    0.000000   0.000002   0.000000  -0.000001  -0.000000
    19  H   -0.000029   0.000011  -0.000003   0.000005  -0.000025
    20  N   -0.000033   0.003791  -0.000133  -0.000203  -0.000133
    21  C    0.000003   0.000809  -0.000023  -0.000022  -0.000023
    22  C    0.000000  -0.000336   0.000003   0.000065   0.000003
    23  C   -0.000004  -0.000016   0.000001   0.000003   0.000001
    24  C    0.000001   0.000097  -0.000000  -0.000152  -0.000000
    25  C   -0.000000  -0.000002   0.000000   0.000003   0.000000
    26  C   -0.000000  -0.000003   0.000000   0.000000   0.000000
    27  H   -0.000001   0.000003  -0.000000  -0.000000  -0.000000
    28  C    0.000000   0.000030  -0.000001  -0.000034  -0.000001
    29  H   -0.000000   0.000466  -0.000017   0.000841  -0.000017
    30  C    0.000000  -0.000001   0.000000  -0.000000   0.000000
    31  C   -0.000000   0.000001  -0.000000  -0.000000  -0.000000
    32  H    0.000000   0.000000  -0.000000  -0.000000  -0.000000
    33  C   -0.000000   0.000002  -0.000000   0.000000  -0.000000
    34  H    0.000000  -0.000003   0.000000   0.000003   0.000000
    35  H    0.000000   0.000000  -0.000000  -0.000000  -0.000000
    36  H    0.000000   0.000000  -0.000000   0.000000  -0.000000
    37  H   -0.000000   0.000000  -0.000000  -0.000000  -0.000000
    38  H    0.005878  -0.000827  -0.000222  -0.000028   0.005917
    39  H    0.000000   0.000002  -0.000000  -0.000001   0.000000
    40  C    0.391370  -0.073361  -0.001619   0.011685  -0.001619
    41  H   -0.020824   0.011798  -0.000136  -0.000576  -0.000136
    42  H   -0.021237  -0.001667   0.000645  -0.000141  -0.000088
    43  H    0.555927  -0.001669  -0.000087  -0.000141   0.000646
    44  C   -0.001669   5.094274   0.390729   0.395991   0.390722
    45  H   -0.000087   0.390729   0.555953  -0.020534  -0.021094
    46  H   -0.000141   0.395991  -0.020534   0.554324  -0.020535
    47  H    0.000646   0.390722  -0.021094  -0.020535   0.555962
 Mulliken charges:
               1
     1  C   -0.155216
     2  C   -0.223785
     3  C    0.116943
     4  C   -0.075547
     5  C   -0.219410
     6  C   -0.190860
     7  C    0.275750
     8  C   -0.075583
     9  C    0.116964
    10  C   -0.223789
    11  H    0.135575
    12  C   -0.155215
    13  C   -0.190848
    14  C   -0.219413
    15  H    0.135574
    16  H    0.126735
    17  H    0.123417
    18  H    0.127253
    19  H    0.123418
    20  N    0.175334
    21  C    0.238214
    22  C   -0.010125
    23  C   -0.164549
    24  C   -0.259902
    25  C    0.135189
    26  C   -0.105152
    27  H    0.124502
    28  C   -0.097411
    29  H    0.140478
    30  C   -0.189240
    31  C   -0.240105
    32  H    0.131142
    33  C   -0.132386
    34  H    0.133261
    35  H    0.129434
    36  H    0.126659
    37  H    0.134061
    38  H    0.126735
    39  H    0.127253
    40  C   -0.405231
    41  H    0.119461
    42  H    0.124339
    43  H    0.124339
    44  C   -0.407862
    45  H    0.124512
    46  H    0.120578
    47  H    0.124507
 Sum of Mulliken charges =  -0.00000
 Mulliken charges with hydrogens summed into heavy atoms:
               1
     1  C   -0.027963
     2  C   -0.088211
     3  C    0.116943
     4  C   -0.075547
     5  C   -0.092675
     6  C   -0.067443
     7  C    0.275750
     8  C   -0.075583
     9  C    0.116964
    10  C   -0.088214
    12  C   -0.027962
    13  C   -0.067430
    14  C   -0.092678
    20  N    0.175334
    21  C    0.238214
    22  C   -0.010125
    23  C   -0.040047
    24  C   -0.119424
    25  C    0.135189
    26  C    0.025990
    28  C    0.035851
    30  C   -0.059806
    31  C   -0.113446
    33  C    0.001675
    40  C   -0.037092
    44  C   -0.038264
 Electronic spatial extent (au):  <R**2>=           8062.7746
 Charge=             -0.0000 electrons
 Dipole moment (field-independent basis, Debye):
    X=              1.3848    Y=              0.0000    Z=             -0.1178  Tot=              1.3898
 Quadrupole moment (field-independent basis, Debye-Ang):
   XX=           -128.4341   YY=           -153.6842   ZZ=           -146.2432
   XY=              0.0001   XZ=             -4.9925   YZ=             -0.0008
 Traceless Quadrupole moment (field-independent basis, Debye-Ang):
   XX=             14.3531   YY=            -10.8971   ZZ=             -3.4560
   XY=              0.0001   XZ=             -4.9925   YZ=             -0.0008
 Octapole moment (field-independent basis, Debye-Ang**2):
  XXX=             42.3063  YYY=              0.0009  ZZZ=             -0.0290  XYY=            -19.5352
  XXY=             -0.0001  XXZ=             11.8745  XZZ=             39.7749  YZZ=             -0.0003
  YYZ=             -0.6544  XYZ=              0.0002
 Hexadecapole moment (field-independent basis, Debye-Ang**3):
 XXXX=          -5832.1239 YYYY=          -3053.4158 ZZZZ=          -1356.2786 XXXY=             -0.0021
 XXXZ=            -50.1577 YYYX=              0.0012 YYYZ=             -0.0016 ZZZX=             16.0644
 ZZZY=             -0.0090 XXYY=          -1639.6569 XXZZ=          -1253.5444 YYZZ=           -893.7250
 XXYZ=             -0.0072 YYXZ=            -44.7542 ZZXY=             -0.0008
 N-N= 2.228300386919D+03 E-N=-6.824824031940D+03  KE= 1.014836155697D+03
 Leave Link  601 at Tue Mar 30 00:35:29 2021, MaxMem=  5242880000 cpu:         5.4
 (Enter /opt/nce/packages/global/g09/l9999.exe)
 1\1\GINC-CN001\SP\RB97D3 TD-FC\Gen\C25H21N1\PNG4RJV\30-Mar-2021\0\\#p 
 B97D3 chkbasis geom=allcheck Guess=Read int=ultrafine scrf=(SMD,solven
 t=n,n-DiMethylFormamide) td=(NStates=30)\\Title\\0,1\C,0,-0.6747677037
 ,-3.6575757693,-0.3135626443\C,0,-0.0498130186,-2.4278678502,-0.485791
 8024\C,0,-0.7648761415,-1.2232703415,-0.3227343844\C,0,-2.1310053672,-
 1.2645666289,0.0258263104\C,0,-2.7304091044,-2.5195648779,0.1878354478
 \C,0,-2.0277699635,-3.712633866,0.0242702391\C,0,-2.9667537678,0.00023
 04475,0.2300458256\C,0,-2.1308226932,1.2648901254,0.0256422614\C,0,-0.
 7647024252,1.2233425745,-0.3229277223\C,0,-0.0494716989,2.4278090034,-
 0.4862224978\H,0,1.0013648662,2.3943551564,-0.7505986024\C,0,-0.674257
 4119,3.6576375226,-0.3142484786\C,0,-2.0272599031,3.7129481288,0.02353
 86059\C,0,-2.730063086,2.5200088911,0.1873454745\H,0,1.0010301457,-2.3
 946128389,-0.7501657277\H,0,-3.7832817719,-2.5661346985,0.4512070351\H
 ,0,-2.530081273,-4.6669061462,0.1598269029\H,0,-0.0985554096,4.5708299
 592,-0.4460269102\H,0,-2.5294484109,4.6673170003,0.1588703918\N,0,-0.1
 088813279,-0.0000248829,-0.5036712604\C,0,1.2896074602,-0.0001482451,-
 0.8230639747\C,0,2.2443679817,-0.0001267188,0.2330798978\C,0,1.6878661
 022,-0.0002849659,-2.1415477229\C,0,1.8710984061,0.0000113286,1.601558
 0998\C,0,3.6391787517,-0.0002474243,-0.1110643347\C,0,3.0612338587,-0.
 0004069458,-2.4737539447\H,0,0.9320994915,-0.0002991368,-2.9223080818\
 C,0,2.8328176843,0.0000309135,2.5893951578\H,0,0.8169183519,0.00010311
 27,1.861404961\C,0,4.6011244026,-0.0002230259,0.9336293585\C,0,4.01576
 70277,-0.0003874386,-1.4796775723\H,0,3.3576087487,-0.0005151567,-3.51
 94087506\C,0,4.2080073703,-0.0000868045,2.2545170108\H,0,2.53528663,0.
 000137832,3.6351298553\H,0,5.6564472767,-0.0003139733,0.6697208235\H,0
 ,5.0744009249,-0.0004799493,-1.7294880125\H,0,4.9537166941,-0.00006896
 32,3.0457516037\H,0,-3.7829408079,2.5667881602,0.4506547916\H,0,-0.099
 1888031,-4.5708735771,-0.4451480296\C,0,-4.1385080559,0.0002356794,-0.
 7823396201\H,0,-3.7572294995,0.0001577222,-1.809495129\H,0,-4.76806506
 02,-0.8848507144,-0.6470325199\H,0,-4.7679655015,0.8854077627,-0.64713
 05874\C,0,-3.5352827514,0.0003230368,1.6709100928\H,0,-4.1558009372,-0
 .884467233,1.8441474519\H,0,-2.7202949754,0.000433108,2.4032399024\H,0
 ,-4.1559123045,0.8850587074,1.8440028093\\Version=ES64L-G09RevE.01\Sta
 te=1-A\HF=-1019.7946064\RMSD=7.001e-09\PG=C01 [X(C25H21N1)]\\@


 WE THE UNWILLING
 LED BY THE UNQUALIFIED
 HAVE BEEN DOING THE UNBELIEVABLE SO LONG WITH SO LITTLE
 THAT WE NOW ATTEMPT THE IMPOSSIBLE WITH NOTHING.

                                    -- ANONYMOUS
 Job cpu time:       1 days  4 hours  7 minutes  2.5 seconds.
 File lengths (MBytes):  RWF=   3232 Int=      0 D2E=      0 Chk=    774 Scr=      1
 Normal termination of Gaussian 09 at Tue Mar 30 00:35:31 2021.
