
                                 *****************
                                 * O   R   C   A *
                                 *****************

                                            #,                                       
                                            ###                                      
                                            ####                                     
                                            #####                                    
                                            ######                                   
                                           ########,                                 
                                     ,,################,,,,,                         
                               ,,#################################,,                 
                          ,,##########################################,,             
                       ,#########################################, ''#####,          
                    ,#############################################,,   '####,        
                  ,##################################################,,,,####,       
                ,###########''''           ''''###############################       
              ,#####''   ,,,,##########,,,,          '''####'''          '####       
            ,##' ,,,,###########################,,,                        '##       
           ' ,,###''''                  '''############,,,                           
         ,,##''                                '''############,,,,        ,,,,,,###''
      ,#''                                            '''#######################'''  
     '                                                          ''''####''''         
             ,#######,   #######,   ,#######,      ##                                
            ,#'     '#,  ##    ##  ,#'     '#,    #''#        ######   ,####,        
            ##       ##  ##   ,#'  ##            #'  '#       #        #'  '#        
            ##       ##  #######   ##           ,######,      #####,   #    #        
            '#,     ,#'  ##    ##  '#,     ,#' ,#      #,         ##   #,  ,#        
             '#######'   ##     ##  '#######'  #'      '#     #####' # '####'        



                  #######################################################
                  #                        -***-                        #
                  #          Department of theory and spectroscopy      #
                  #    Directorship and core code : Frank Neese         #
                  #        Max Planck Institute fuer Kohlenforschung    #
                  #                Kaiser Wilhelm Platz 1               #
                  #                 D-45470 Muelheim/Ruhr               #
                  #                      Germany                        #
                  #                                                     #
                  #                  All rights reserved                #
                  #                        -***-                        #
                  #######################################################


                         Program Version 5.0.2 -  RELEASE  -


 With contributions from (in alphabetic order):
   Daniel Aravena         : Magnetic Suceptibility
   Michael Atanasov       : Ab Initio Ligand Field Theory (pilot matlab implementation)
   Alexander A. Auer      : GIAO ZORA, VPT2 properties, NMR spectrum
   Ute Becker             : Parallelization
   Giovanni Bistoni       : ED, misc. LED, open-shell LED, HFLD
   Martin Brehm           : Molecular dynamics
   Dmytro Bykov           : SCF Hessian
   Vijay G. Chilkuri      : MRCI spin determinant printing, contributions to CSF-ICE
   Dipayan Datta          : RHF DLPNO-CCSD density
   Achintya Kumar Dutta   : EOM-CC, STEOM-CC
   Dmitry Ganyushin       : Spin-Orbit,Spin-Spin,Magnetic field MRCI
   Miquel Garcia          : C-PCM and meta-GGA Hessian, CC/C-PCM, Gaussian charge scheme
   Yang Guo               : DLPNO-NEVPT2, F12-NEVPT2, CIM, IAO-localization
   Andreas Hansen         : Spin unrestricted coupled pair/coupled cluster methods
   Benjamin Helmich-Paris : MC-RPA, TRAH-SCF, COSX integrals
   Lee Huntington         : MR-EOM, pCC
   Robert Izsak           : Overlap fitted RIJCOSX, COSX-SCS-MP3, EOM
   Marcus Kettner         : VPT2
   Christian Kollmar      : KDIIS, OOCD, Brueckner-CCSD(T), CCSD density, CASPT2, CASPT2-K
   Simone Kossmann        : Meta GGA functionals, TD-DFT gradient, OOMP2, MP2 Hessian
   Martin Krupicka        : Initial AUTO-CI
   Lucas Lang             : DCDCAS
   Marvin Lechner         : AUTO-CI (C++ implementation), FIC-MRCC
   Dagmar Lenk            : GEPOL surface, SMD
   Dimitrios Liakos       : Extrapolation schemes; Compound Job, initial MDCI parallelization
   Dimitrios Manganas     : Further ROCIS development; embedding schemes
   Dimitrios Pantazis     : SARC Basis sets
   Anastasios Papadopoulos: AUTO-CI, single reference methods and gradients
   Taras Petrenko         : DFT Hessian,TD-DFT gradient, ASA, ECA, R-Raman, ABS, FL, XAS/XES, NRVS
   Peter Pinski           : DLPNO-MP2, DLPNO-MP2 Gradient
   Christoph Reimann      : Effective Core Potentials
   Marius Retegan         : Local ZFS, SOC
   Christoph Riplinger    : Optimizer, TS searches, QM/MM, DLPNO-CCSD(T), (RO)-DLPNO pert. Triples
   Tobias Risthaus        : Range-separated hybrids, TD-DFT gradient, RPA, STAB
   Michael Roemelt        : Original ROCIS implementation
   Masaaki Saitow         : Open-shell DLPNO-CCSD energy and density
   Barbara Sandhoefer     : DKH picture change effects
   Avijit Sen             : IP-ROCIS
   Kantharuban Sivalingam : CASSCF convergence, NEVPT2, FIC-MRCI
   Bernardo de Souza      : ESD, SOC TD-DFT
   Georgi Stoychev        : AutoAux, RI-MP2 NMR, DLPNO-MP2 response
   Willem Van den Heuvel  : Paramagnetic NMR
   Boris Wezisla          : Elementary symmetry handling
   Frank Wennmohs         : Technical directorship


 We gratefully acknowledge several colleagues who have allowed us to
 interface, adapt or use parts of their codes:
   Stefan Grimme, W. Hujo, H. Kruse, P. Pracht,  : VdW corrections, initial TS optimization,
                  C. Bannwarth, S. Ehlert          DFT functionals, gCP, sTDA/sTD-DF
   Ed Valeev, F. Pavosevic, A. Kumar             : LibInt (2-el integral package), F12 methods
   Garnet Chan, S. Sharma, J. Yang, R. Olivares  : DMRG
   Ulf Ekstrom                                   : XCFun DFT Library
   Mihaly Kallay                                 : mrcc  (arbitrary order and MRCC methods)
   Jiri Pittner, Ondrej Demel                    : Mk-CCSD
   Frank Weinhold                                : gennbo (NPA and NBO analysis)
   Christopher J. Cramer and Donald G. Truhlar   : smd solvation model
   Lars Goerigk                                  : TD-DFT with DH, B97 family of functionals
   V. Asgeirsson, H. Jonsson                     : NEB implementation
   FAccTs GmbH                                   : IRC, NEB, NEB-TS, DLPNO-Multilevel, CI-OPT
                                                   MM, QMMM, 2- and 3-layer-ONIOM, Crystal-QMMM,
                                                   LR-CPCM, SF, NACMEs, symmetry and pop. for TD-DFT,
                                                   nearIR, NL-DFT gradient (VV10), updates on ESD,
                                                   ML-optimized integration grids
   S Lehtola, MJT Oliveira, MAL Marques          : LibXC Library
   Liviu Ungur et al                             : ANISO software


 Your calculation uses the libint2 library for the computation of 2-el integrals
 For citations please refer to: http://libint.valeyev.net

 Your ORCA version has been built with support for libXC version: 5.1.0
 For citations please refer to: https://tddft.org/programs/libxc/

 This ORCA versions uses:
   CBLAS   interface :  Fast vector & matrix operations
   LAPACKE interface :  Fast linear algebra routines
   SCALAPACK package :  Parallel linear algebra routines
   Shared memory     :  Shared parallel matrices
   BLAS/LAPACK       :  OpenBLAS 0.3.15  USE64BITINT DYNAMIC_ARCH NO_AFFINITY Zen SINGLE_THREADED
        Core in use  :  Zen
   Copyright (c) 2011-2014, The OpenBLAS Project


Your calculation utilizes the atom-pairwise dispersion correction
with the Becke-Johnson damping scheme (D3BJ)
Cite in your paper:
S.Grimme, S.Ehrlich, L.Goerigk, J Comput Chem, (2011), 32, 1456–1465 
S.Grimme, J.Antony, S.Ehrlich and H.Krieg, J.Chem.Phys., 132, (2010), 154104 
   

Your calculation utilizes the SMD solvation module
Please cite in your paper:
A.V. Marenich, C.J. Cramer, D.G. Truhlar J. Phys. Chem. B, 113, (2009), 6378 

================================================================================

----- Orbital basis set information -----
Your calculation utilizes the basis: def2-TZVP
   F. Weigend and R. Ahlrichs, Phys. Chem. Chem. Phys. 7, 3297 (2005).

----- AuxJ basis set information -----
Your calculation utilizes the auxiliary basis: def2/J
   F. Weigend, Phys. Chem. Chem. Phys. 8, 1057 (2006).

----- AuxC basis set information -----
Your calculation utilizes the auxiliary basis: def2-TZVP/C
  H-La, Hf-Rn : A. Hellweg, C. Hattig, S. Hofener and W. Klopper, Theor. Chem. Acc. 117, 587 (2007).
        Ce-Lu : J. Chmela and M. E. Harding, Mol. Phys. (2018).

================================================================================
                                        WARNINGS
                       Please study these warnings very carefully!
================================================================================

INFO   : Checking CIS options ...
  ===> : (D) CORRECTION FOUND - SETTING MODE=3
  ===> : JK MODE FOUND - ACTIVATING RI-MP2 CODE
  ===> : MP2 AND CIS FOUND - CHECKING
WARNING: CIS(D) and MP2 runs must have the same orbital window
  ===> : adjusting orbital windows

WARNING: No MP2 level density has been requested!
         To caclulate MP2 level properties use
         %mp2 Density relaxed end
         or
         %mp2 Density unrelaxed end
         Otherwise for double-hybrid DFT only the energy is correct!

WARNING: There are different parametrizations of Gershom Martin's DSD-DFs
         for use with and without D3(BJ)!
         You are using the D3(BJ) parametrized version,
         consistent with the GMTKN55 benchmark (L. Goerigk et al., PCCP 2017, 19, 32184)

WARNING: The frozen-core approximation is turned on by default for 
         the MP2 part of double-hybrid DFT.

WARNING: CIS/ROCIS methods need fully converged wavefunctions
  ===> : Setting SCFConvForced true
         You can overwrite this default with %scf ConvForced false 


INFO   : the flag for use of the SHARK integral package has been found!

================================================================================
                                       INPUT FILE
================================================================================
NAME = POZ_3_M06L_def2TZVP_coords.inp
|  1> %maxcore 24000
|  2> %pal
|  3>  nprocs= 8
|  4> end
|  5> ! RI-DSD-BLYP D3BJ def2-TZVP def2/J def2-TZVP/C RIJCOSX CPCM TightSCF
|  6> %TDDFT  
|  7>    NROOTS   30
|  8>    dcorr 4
|  9>    doscs true 
| 10>    scspar 0.333, 1.2, 0.43, 1.24 
| 11>    TDA      FALSE
| 12> END
| 13> 
| 14> %CPCM
| 15>    SMD          TRUE
| 16>    SMDsolvent   "N,N-DIMETHYLACETAMIDE"
| 17> END
| 18>    
| 19> 
| 20> * xyz 0 1
| 21> C                  -1.77287600   -1.35290100    0.04927200
| 22> C                  -0.38655800   -1.33546100    0.05687600
| 23> C                   0.31713100   -0.13550500    0.01799500
| 24> C                  -0.42657000    1.05026400   -0.02028800
| 25> C                  -1.80223600    1.03245700   -0.02356400
| 26> C                  -2.51487900   -0.17444200    0.00877600
| 27> C                   1.55242600    2.33240000   -0.07729200
| 28> C                   2.33607700    1.17268300   -0.03649500
| 29> C                   3.72042600    1.31510000   -0.05766600
| 30> H                   4.34163800    0.42960600   -0.03043400
| 31> C                   4.30568100    2.57480400   -0.11330800
| 32> C                   3.51783900    3.71078700   -0.15074400
| 33> C                   2.13280100    3.58226600   -0.13349100
| 34> H                   0.16140500   -2.26725900    0.10139500
| 35> H                  -2.31851800    1.98254400   -0.07522300
| 36> H                   5.38485300    2.65502700   -0.12756000
| 37> N                   1.70692600   -0.07105400    0.01957700
| 38> C                   2.48271500   -1.27074200    0.04991400
| 39> C                   2.91959600   -1.77718600    1.26655200
| 40> C                   2.79262400   -1.92192700   -1.13659900
| 41> C                   3.67201600   -2.94187600    1.29384600
| 42> C                   3.54287700   -3.08775400   -1.10284700
| 43> H                   2.44196000   -1.51143200   -2.07565800
| 44> C                   3.98307700   -3.59737100    0.11078900
| 45> H                   3.78475800   -3.59804000   -2.02652800
| 46> H                   4.56955800   -4.50706000    0.13448500
| 47> H                   1.48616700    4.44991500   -0.16340800
| 48> H                  -2.27814100   -2.30859900    0.10115700
| 49> C                  -3.98532100   -0.18604700    0.00710000
| 50> C                  -4.72060700    0.88578800    0.52629200
| 51> C                  -4.69910300   -1.27190800   -0.51359100
| 52> C                  -6.10566800    0.87166200    0.52639000
| 53> H                  -4.19959600    1.73310000    0.95507400
| 54> C                  -6.08380400   -1.28632600   -0.51190300
| 55> H                  -4.16086900   -2.10705400   -0.94474000
| 56> C                  -6.79677700   -0.21450900    0.00781700
| 57> H                  -6.64843700    1.71203100    0.94169500
| 58> H                  -6.60963400   -2.13690300   -0.92821800
| 59> O                   0.18029500    2.28110200   -0.06225700
| 60> H                   3.96561100    4.69459300   -0.19412300
| 61> H                  -7.87940400   -0.22533900    0.00766700
| 62> H                   4.01447300   -3.33805600    2.24136100
| 63> H                   2.66800800   -1.25404800    2.18107200
| 64> *
| 65> 
| 66> 
| 67>                          ****END OF INPUT****
================================================================================

                       ****************************
                       * Single Point Calculation *
                       ****************************

---------------------------------
CARTESIAN COORDINATES (ANGSTROEM)
---------------------------------
  C     -1.772876   -1.352901    0.049272
  C     -0.386558   -1.335461    0.056876
  C      0.317131   -0.135505    0.017995
  C     -0.426570    1.050264   -0.020288
  C     -1.802236    1.032457   -0.023564
  C     -2.514879   -0.174442    0.008776
  C      1.552426    2.332400   -0.077292
  C      2.336077    1.172683   -0.036495
  C      3.720426    1.315100   -0.057666
  H      4.341638    0.429606   -0.030434
  C      4.305681    2.574804   -0.113308
  C      3.517839    3.710787   -0.150744
  C      2.132801    3.582266   -0.133491
  H      0.161405   -2.267259    0.101395
  H     -2.318518    1.982544   -0.075223
  H      5.384853    2.655027   -0.127560
  N      1.706926   -0.071054    0.019577
  C      2.482715   -1.270742    0.049914
  C      2.919596   -1.777186    1.266552
  C      2.792624   -1.921927   -1.136599
  C      3.672016   -2.941876    1.293846
  C      3.542877   -3.087754   -1.102847
  H      2.441960   -1.511432   -2.075658
  C      3.983077   -3.597371    0.110789
  H      3.784758   -3.598040   -2.026528
  H      4.569558   -4.507060    0.134485
  H      1.486167    4.449915   -0.163408
  H     -2.278141   -2.308599    0.101157
  C     -3.985321   -0.186047    0.007100
  C     -4.720607    0.885788    0.526292
  C     -4.699103   -1.271908   -0.513591
  C     -6.105668    0.871662    0.526390
  H     -4.199596    1.733100    0.955074
  C     -6.083804   -1.286326   -0.511903
  H     -4.160869   -2.107054   -0.944740
  C     -6.796777   -0.214509    0.007817
  H     -6.648437    1.712031    0.941695
  H     -6.609634   -2.136903   -0.928218
  O      0.180295    2.281102   -0.062257
  H      3.965611    4.694593   -0.194123
  H     -7.879404   -0.225339    0.007667
  H      4.014473   -3.338056    2.241361
  H      2.668008   -1.254048    2.181072

----------------------------
CARTESIAN COORDINATES (A.U.)
----------------------------
  NO LB      ZA    FRAG     MASS         X           Y           Z
   0 C     6.0000    0    12.011   -3.350250   -2.556612    0.093111
   1 C     6.0000    0    12.011   -0.730489   -2.523656    0.107480
   2 C     6.0000    0    12.011    0.599291   -0.256067    0.034006
   3 C     6.0000    0    12.011   -0.806100    1.984711   -0.038339
   4 C     6.0000    0    12.011   -3.405732    1.951061   -0.044530
   5 C     6.0000    0    12.011   -4.752433   -0.329648    0.016584
   6 C     6.0000    0    12.011    2.933660    4.407597   -0.146061
   7 C     6.0000    0    12.011    4.414546    2.216050   -0.068966
   8 C     6.0000    0    12.011    7.030586    2.485179   -0.108973
   9 H     1.0000    0     1.008    8.204507    0.811838   -0.057512
  10 C     6.0000    0    12.011    8.136558    4.865674   -0.214121
  11 C     6.0000    0    12.011    6.647752    7.012371   -0.284865
  12 C     6.0000    0    12.011    4.030410    6.769502   -0.252261
  13 H     1.0000    0     1.008    0.305011   -4.284499    0.191609
  14 H     1.0000    0     1.008   -4.381364    3.746465   -0.142151
  15 H     1.0000    0     1.008   10.175897    5.017274   -0.241053
  16 N     7.0000    0    14.007    3.225623   -0.134273    0.036995
  17 C     6.0000    0    12.011    4.691651   -2.401354    0.094324
  18 C     6.0000    0    12.011    5.517237   -3.358395    2.393436
  19 C     6.0000    0    12.011    5.277295   -3.631916   -2.147861
  20 C     6.0000    0    12.011    6.939105   -5.559340    2.445015
  21 C     6.0000    0    12.011    6.695067   -5.835009   -2.084079
  22 H     1.0000    0     1.008    4.614636   -2.856193   -3.922425
  23 C     6.0000    0    12.011    7.526925   -6.798046    0.209361
  24 H     1.0000    0     1.008    7.152156   -6.799310   -3.829583
  25 H     1.0000    0     1.008    8.635213   -8.517109    0.254140
  26 H     1.0000    0     1.008    2.808449    8.409121   -0.308796
  27 H     1.0000    0     1.008   -4.305063   -4.362620    0.191159
  28 C     6.0000    0    12.011   -7.531165   -0.351578    0.013417
  29 C     6.0000    0    12.011   -8.920654    1.673897    0.994548
  30 C     6.0000    0    12.011   -8.880018   -2.403558   -0.970546
  31 C     6.0000    0    12.011  -11.538040    1.647202    0.994733
  32 H     1.0000    0     1.008   -7.936086    3.275084    1.804828
  33 C     6.0000    0    12.011  -11.496723   -2.430804   -0.967356
  34 H     1.0000    0     1.008   -7.862903   -3.981755   -1.785300
  35 C     6.0000    0    12.011  -12.844047   -0.405363    0.014772
  36 H     1.0000    0     1.008  -12.563725    3.235270    1.779546
  37 H     1.0000    0     1.008  -12.490398   -4.038161   -1.754078
  38 O     8.0000    0    15.999    0.340708    4.310658   -0.117649
  39 H     1.0000    0     1.008    7.493919    8.871495   -0.366839
  40 H     1.0000    0     1.008  -14.889916   -0.425829    0.014489
  41 H     1.0000    0     1.008    7.586255   -6.308012    4.235558
  42 H     1.0000    0     1.008    5.041804   -2.369807    4.121629

--------------------------------
INTERNAL COORDINATES (ANGSTROEM)
--------------------------------
 C      0   0   0     0.000000000000     0.00000000     0.00000000
 C      1   0   0     1.386448546301     0.00000000     0.00000000
 C      2   1   0     1.391612138068   121.08507495     0.00000000
 C      3   2   1     1.400216014353   117.54247717     0.40037470
 C      4   3   2     1.375785144919   121.34508310   359.80582046
 C      1   2   3     1.393188426849   121.47070583   359.70144130
 C      4   3   2     2.358717309583    90.87989686   180.37253176
 C      7   4   3     1.400255978419    91.06870315   359.84986980
 C      8   7   4     1.391816427167   118.12881999   179.53500570
 H      9   8   7     1.082009960584   119.13863033   180.22220593
 C      9   8   7     1.390134387318   120.80247604     0.20862271
 C     11   9   8     1.382951137007   120.37073988   359.89875089
 C      7   4   3     1.379187618195   147.84957816   179.36065913
 H      2   1   3     1.081893203387   119.72446389   179.52281139
 H      5   4   3     1.082534555279   117.75115834   181.26777074
 H     11   9   8     1.082243528425   119.17704488   179.93620154
 N      3   2   1     1.391289537138   123.02701119   180.21380686
 C     17   3   2     1.428992723366   120.22798589     0.58211434
 C     18  17   3     1.388365426082   119.71460329   266.26472363
 C     18  17   3     1.388487879556   119.78609513    86.18986055
 C     19  18  17     1.386861065477   119.62412873   179.97844394
 C     20  18  17     1.386784538219   119.61815304   180.16068682
 H     20  18  17     1.083191207222   119.39586346     0.03152460
 C     21  19  18     1.387824378657   120.09790414   359.86882179
 H     22  20  18     1.082628657351   119.75857867   179.92197605
 H     24  21  19     1.082615139603   119.97597809   180.07296324
 H     13   7   4     1.082518057145   118.43190826     0.57638208
 H      1   2   3     1.082286210138   118.53206111   181.24003881
 C      6   1   2     1.470488748806   121.73114503   180.30224696
 C     29   6   1     1.399655708339   121.25517477   152.32132681
 C     29   6   1     1.399892128818   121.09194005   332.38169006
 C     30  29   6     1.385133035921   121.16622531   180.14012193
 H     30  29   6     1.083163926185   119.55058948   358.83403459
 C     31  29   6     1.384777089451   121.16325354   179.78451536
 H     31  29   6     1.083076239363   119.52425217   358.47743341
 C     32  30  29     1.387918242351   120.38946952     0.00000000
 H     32  30  29     1.083188112263   119.54938991   179.53961257
 H     34  31  29     1.083188165119   119.54633808   179.54902794
 O      4   3   2     1.372956192830   121.68546070   180.10285555
 H     12  11   9     1.081783595393   120.81754807   180.00084343
 H     36  32  30     1.082681177692   120.38457419   180.01815004
 H     21  19  18     1.082598755068   119.74707345   179.94480162
 H     19  18  17     1.083197451616   119.37937551   359.87762394

---------------------------
INTERNAL COORDINATES (A.U.)
---------------------------
 C      0   0   0     0.000000000000     0.00000000     0.00000000
 C      1   0   0     2.620008051282     0.00000000     0.00000000
 C      2   1   0     2.629765825589   121.08507495     0.00000000
 C      3   2   1     2.646024795458   117.54247717     0.40037470
 C      4   3   2     2.599857143015   121.34508310   359.80582046
 C      1   2   3     2.632744579693   121.47070583   359.70144130
 C      4   3   2     4.457329742452    90.87989686   180.37253176
 C      7   4   3     2.646100316598    91.06870315   359.84986980
 C      8   7   4     2.630151876038   118.12881999   179.53500570
 H      9   8   7     2.044702499680   119.13863033   180.22220593
 C      9   8   7     2.626973281378   120.80247604     0.20862271
 C     11   9   8     2.613398905538   120.37073988   359.89875089
 C      7   4   3     2.606286885683   147.84957816   179.36065913
 H      2   1   3     2.044481860551   119.72446389   179.52281139
 H      5   4   3     2.045693839984   117.75115834   181.26777074
 H     11   9   8     2.045143878931   119.17704488   179.93620154
 N      3   2   1     2.629156198181   123.02701119   180.21380686
 C     17   3   2     2.700404894529   120.22798589     0.58211434
 C     18  17   3     2.623630429101   119.71460329   266.26472363
 C     18  17   3     2.623861832631   119.78609513    86.18986055
 C     19  18  17     2.620787599550   119.62412873   179.97844394
 C     20  18  17     2.620642983989   119.61815304   180.16068682
 H     20  18  17     2.046934732320   119.39586346     0.03152460
 C     21  19  18     2.622607997641   120.09790414   359.86882179
 H     22  20  18     2.045871667129   119.75857867   179.92197605
 H     24  21  19     2.045846122287   119.97597809   180.07296324
 H     13   7   4     2.045662663029   118.43190826     0.57638208
 H      1   2   3     2.045224535680   118.53206111   181.24003881
 C      6   1   2     2.778821018256   121.73114503   180.30224696
 C     29   6   1     2.644965970540   121.25517477   152.32132681
 C     29   6   1     2.645412740498   121.09194005   332.38169006
 C     30  29   6     2.617522096938   121.16622531   180.14012193
 H     30  29   6     2.046883178633   119.55058948   358.83403459
 C     31  29   6     2.616849455591   121.16325354   179.78451536
 H     31  29   6     2.046717474554   119.52425217   358.47743341
 C     32  30  29     2.622785374317   120.38946952     0.00000000
 H     32  30  29     2.046928883695   119.54938991   179.53961257
 H     34  31  29     2.046928983580   119.54633808   179.54902794
 O      4   3   2     2.594511198320   121.68546070   180.10285555
 H     12  11   9     2.044274731461   120.81754807   180.00084343
 H     36  32  30     2.045970916190   120.38457419   180.01815004
 H     21  19  18     2.045815160002   119.74707345   179.94480162
 H     19  18  17     2.046946532516   119.37937551   359.87762394

---------------------
BASIS SET INFORMATION
---------------------
There are 4 groups of distinct atoms

 Group   1 Type C   : 11s6p2d1f contracted to 5s3p2d1f pattern {62111/411/11/1}
 Group   2 Type H   : 5s1p contracted to 3s1p pattern {311/1}
 Group   3 Type N   : 11s6p2d1f contracted to 5s3p2d1f pattern {62111/411/11/1}
 Group   4 Type O   : 11s6p2d1f contracted to 5s3p2d1f pattern {62111/411/11/1}

Atom   0C    basis set group =>   1
Atom   1C    basis set group =>   1
Atom   2C    basis set group =>   1
Atom   3C    basis set group =>   1
Atom   4C    basis set group =>   1
Atom   5C    basis set group =>   1
Atom   6C    basis set group =>   1
Atom   7C    basis set group =>   1
Atom   8C    basis set group =>   1
Atom   9H    basis set group =>   2
Atom  10C    basis set group =>   1
Atom  11C    basis set group =>   1
Atom  12C    basis set group =>   1
Atom  13H    basis set group =>   2
Atom  14H    basis set group =>   2
Atom  15H    basis set group =>   2
Atom  16N    basis set group =>   3
Atom  17C    basis set group =>   1
Atom  18C    basis set group =>   1
Atom  19C    basis set group =>   1
Atom  20C    basis set group =>   1
Atom  21C    basis set group =>   1
Atom  22H    basis set group =>   2
Atom  23C    basis set group =>   1
Atom  24H    basis set group =>   2
Atom  25H    basis set group =>   2
Atom  26H    basis set group =>   2
Atom  27H    basis set group =>   2
Atom  28C    basis set group =>   1
Atom  29C    basis set group =>   1
Atom  30C    basis set group =>   1
Atom  31C    basis set group =>   1
Atom  32H    basis set group =>   2
Atom  33C    basis set group =>   1
Atom  34H    basis set group =>   2
Atom  35C    basis set group =>   1
Atom  36H    basis set group =>   2
Atom  37H    basis set group =>   2
Atom  38O    basis set group =>   4
Atom  39H    basis set group =>   2
Atom  40H    basis set group =>   2
Atom  41H    basis set group =>   2
Atom  42H    basis set group =>   2
---------------------------------
AUXILIARY/J BASIS SET INFORMATION
---------------------------------
There are 4 groups of distinct atoms

 Group   1 Type C   : 12s5p4d2f1g contracted to 6s4p3d1f1g pattern {711111/2111/211/2/1}
 Group   2 Type H   : 5s2p1d contracted to 3s1p1d pattern {311/2/1}
 Group   3 Type N   : 12s5p4d2f1g contracted to 6s4p3d1f1g pattern {711111/2111/211/2/1}
 Group   4 Type O   : 12s5p4d2f1g contracted to 6s4p3d1f1g pattern {711111/2111/211/2/1}

Atom   0C    basis set group =>   1
Atom   1C    basis set group =>   1
Atom   2C    basis set group =>   1
Atom   3C    basis set group =>   1
Atom   4C    basis set group =>   1
Atom   5C    basis set group =>   1
Atom   6C    basis set group =>   1
Atom   7C    basis set group =>   1
Atom   8C    basis set group =>   1
Atom   9H    basis set group =>   2
Atom  10C    basis set group =>   1
Atom  11C    basis set group =>   1
Atom  12C    basis set group =>   1
Atom  13H    basis set group =>   2
Atom  14H    basis set group =>   2
Atom  15H    basis set group =>   2
Atom  16N    basis set group =>   3
Atom  17C    basis set group =>   1
Atom  18C    basis set group =>   1
Atom  19C    basis set group =>   1
Atom  20C    basis set group =>   1
Atom  21C    basis set group =>   1
Atom  22H    basis set group =>   2
Atom  23C    basis set group =>   1
Atom  24H    basis set group =>   2
Atom  25H    basis set group =>   2
Atom  26H    basis set group =>   2
Atom  27H    basis set group =>   2
Atom  28C    basis set group =>   1
Atom  29C    basis set group =>   1
Atom  30C    basis set group =>   1
Atom  31C    basis set group =>   1
Atom  32H    basis set group =>   2
Atom  33C    basis set group =>   1
Atom  34H    basis set group =>   2
Atom  35C    basis set group =>   1
Atom  36H    basis set group =>   2
Atom  37H    basis set group =>   2
Atom  38O    basis set group =>   4
Atom  39H    basis set group =>   2
Atom  40H    basis set group =>   2
Atom  41H    basis set group =>   2
Atom  42H    basis set group =>   2
---------------------------------
AUXILIARY/C BASIS SET INFORMATION
---------------------------------
There are 4 groups of distinct atoms

 Group   1 Type C   : 8s6p5d3f1g contracted to 8s6p4d3f1g pattern {11111111/111111/2111/111/1}
 Group   2 Type H   : 4s3p2d contracted to 4s2p1d pattern {1111/21/2}
 Group   3 Type N   : 8s6p5d3f1g contracted to 8s6p4d3f1g pattern {11111111/111111/2111/111/1}
 Group   4 Type O   : 8s6p5d3f1g contracted to 8s6p4d3f1g pattern {11111111/111111/2111/111/1}

Atom   0C    basis set group =>   1
Atom   1C    basis set group =>   1
Atom   2C    basis set group =>   1
Atom   3C    basis set group =>   1
Atom   4C    basis set group =>   1
Atom   5C    basis set group =>   1
Atom   6C    basis set group =>   1
Atom   7C    basis set group =>   1
Atom   8C    basis set group =>   1
Atom   9H    basis set group =>   2
Atom  10C    basis set group =>   1
Atom  11C    basis set group =>   1
Atom  12C    basis set group =>   1
Atom  13H    basis set group =>   2
Atom  14H    basis set group =>   2
Atom  15H    basis set group =>   2
Atom  16N    basis set group =>   3
Atom  17C    basis set group =>   1
Atom  18C    basis set group =>   1
Atom  19C    basis set group =>   1
Atom  20C    basis set group =>   1
Atom  21C    basis set group =>   1
Atom  22H    basis set group =>   2
Atom  23C    basis set group =>   1
Atom  24H    basis set group =>   2
Atom  25H    basis set group =>   2
Atom  26H    basis set group =>   2
Atom  27H    basis set group =>   2
Atom  28C    basis set group =>   1
Atom  29C    basis set group =>   1
Atom  30C    basis set group =>   1
Atom  31C    basis set group =>   1
Atom  32H    basis set group =>   2
Atom  33C    basis set group =>   1
Atom  34H    basis set group =>   2
Atom  35C    basis set group =>   1
Atom  36H    basis set group =>   2
Atom  37H    basis set group =>   2
Atom  38O    basis set group =>   4
Atom  39H    basis set group =>   2
Atom  40H    basis set group =>   2
Atom  41H    basis set group =>   2
Atom  42H    basis set group =>   2


           ************************************************************
           *        Program running with 8 parallel MPI-processes     *
           *              working on a common directory               *
           ************************************************************
------------------------------------------------------------------------------
                           ORCA GTO INTEGRAL CALCULATION
                           -- RI-GTO INTEGRALS CHOSEN --
------------------------------------------------------------------------------
------------------------------------------------------------------------------
                   ___                                                        
                  /   \      - P O W E R E D   B Y -                         
                 /     \                                                     
                 |  |  |   _    _      __       _____    __    __             
                 |  |  |  | |  | |    /  \     |  _  \  |  |  /  |          
                  \  \/   | |  | |   /    \    | | | |  |  | /  /          
                 / \  \   | |__| |  /  /\  \   | |_| |  |  |/  /          
                |  |  |   |  __  | /  /__\  \  |    /   |      \           
                |  |  |   | |  | | |   __   |  |    \   |  |\   \          
                \     /   | |  | | |  |  |  |  | |\  \  |  | \   \       
                 \___/    |_|  |_| |__|  |__|  |_| \__\ |__|  \__/        
                                                                              
                      - O R C A' S   B I G   F R I E N D -                    
                                      &                                       
                       - I N T E G R A L  F E E D E R -                       
                                                                              
 v1 FN, 2020, v2 2021                                                         
------------------------------------------------------------------------------


Reading SHARK input file POZ_3_M06L_def2TZVP_coords.SHARKINP.tmp ... ok
----------------------
SHARK INTEGRAL PACKAGE
----------------------

Number of atoms                             ...     43
Number of basis functions                   ...    908
Number of shells                            ...    354
Maximum angular momentum                    ...      3
Integral batch strategy                     ... SHARK/LIBINT Hybrid
RI-J (if used) integral strategy            ... SPLIT-RIJ (Revised 2003 algorithm where possible)
Printlevel                                  ...      1
Contraction scheme used                     ... SEGMENTED contraction
Coulomb Range Separation                    ... NOT USED
Exchange Range Separation                   ... NOT USED
Finite Nucleus Model                        ... NOT USED
Auxiliary Coulomb fitting basis             ... AVAILABLE
   # of basis functions in Aux-J            ...   1461
   # of shells in Aux-J                     ...    475
   Maximum angular momentum in Aux-J        ...      4
Auxiliary J/K fitting basis                 ... NOT available
Auxiliary Correlation fitting basis         ... AVAILABLE
   # of basis functions in Aux-C            ...   2231
   # of shells in Aux-C                     ...    691
   Maximum angular momentum in Aux-C        ...      4
Auxiliary 'external' fitting basis          ... NOT available
Integral threshold                          ...     2.500000e-11
Primitive cut-off                           ...     2.500000e-12
Primitive pair pre-selection threshold      ...     2.500000e-12

Calculating pre-screening integrals         ... done (  0.1 sec) Dimension = 354
Organizing shell pair data                  ... done (  0.3 sec)
Shell pair information
Total number of shell pairs                 ...     62835
Shell pairs after pre-screening             ...     40518
Total number of primitive shell pairs       ...    194376
Primitive shell pairs kept                  ...     82456
          la=0 lb=0:  10029 shell pairs
          la=1 lb=0:  11651 shell pairs
          la=1 lb=1:   3371 shell pairs
          la=2 lb=0:   5829 shell pairs
          la=2 lb=1:   3415 shell pairs
          la=2 lb=2:    870 shell pairs
          la=3 lb=0:   2725 shell pairs
          la=3 lb=1:   1625 shell pairs
          la=3 lb=2:    800 shell pairs
          la=3 lb=3:    203 shell pairs

Calculating one electron integrals          ... done (  0.1 sec)
Calculating RI/J V-Matrix + Cholesky decomp.... done (  0.1 sec)
Calculating RI/C V-Matrix + Cholesky decomp.... done (  0.2 sec)
Calculating Nuclear repulsion               ... done (  0.0 sec) ENN=   2066.278572560029 Eh

SHARK setup successfully completed in   1.1 seconds

Maximum memory used throughout the entire GTOINT-calculation: 67.6 MB


           ************************************************************
           *        Program running with 8 parallel MPI-processes     *
           *              working on a common directory               *
           ************************************************************
-------------------------------------------------------------------------------
                                 ORCA SCF
-------------------------------------------------------------------------------

------------
SCF SETTINGS
------------
Hamiltonian:
 Density Functional     Method          .... DFT(GTOs)
 Exchange Functional    Exchange        .... B88
   X-Alpha parameter    XAlpha          ....  0.666667
   Becke's b parameter  XBeta           ....  0.004200
 Correlation Functional Correlation     .... LYP
 LDA part of GGA corr.  LDAOpt          .... VWN-5
 Gradients option       PostSCFGGA      .... off
 Hybrid DFT is turned on
   Fraction HF Exchange ScalHFX         ....  0.690000
   Scaling of DF-GGA-X  ScalDFX         ....  0.310000
   Scaling of DF-GGA-C  ScalDFC         ....  0.540000
   Scaling of DF-LDA-C  ScalLDAC        ....  0.540000
   Perturbative correction              ....  1.000000
   Density functional embedding theory  .... OFF
   NL short-range parameter             .... 12.000000
 RI-approximation to the Coulomb term is turned on
   Number of AuxJ basis functions       .... 1461
   RIJ-COSX (HFX calculated with COS-X)).... on


General Settings:
 Integral files         IntName         .... POZ_3_M06L_def2TZVP_coords
 Hartree-Fock type      HFTyp           .... RHF
 Total Charge           Charge          ....    0
 Multiplicity           Mult            ....    1
 Number of Electrons    NEL             ....  176
 Basis Dimension        Dim             ....  908
 Nuclear Repulsion      ENuc            ....   2066.2785725600 Eh

Convergence Acceleration:
 DIIS                   CNVDIIS         .... on
   Start iteration      DIISMaxIt       ....    12
   Startup error        DIISStart       ....  0.200000
   # of expansion vecs  DIISMaxEq       ....     5
   Bias factor          DIISBfac        ....   1.050
   Max. coefficient     DIISMaxC        ....  10.000
 Trust-Rad. Augm. Hess. CNVTRAH         .... auto
   Auto Start mean grad. ratio tolernc. ....  1.125000
   Auto Start start iteration           ....    20
   Auto Start num. interpolation iter.  ....    10
   Max. Number of Micro iterations      ....    16
   Max. Number of Macro iterations      .... Maxiter - #DIIS iter
   Number of Davidson start vectors     ....     2
   Converg. threshold I  (grad. norm)   ....   1.000e-05
   Converg. threshold II (energy diff.) ....   1.000e-08
   Grad. Scal. Fac. for Micro threshold ....   0.100
   Minimum threshold for Micro iter.    ....   0.010
   NR start threshold (gradient norm)   ....   0.001
   Initial trust radius                 ....   0.400
   Minimum AH scaling param. (alpha)    ....   1.000
   Maximum AH scaling param. (alpha)    .... 1000.000
   Orbital update algorithm             .... Taylor
   White noise on init. David. guess    .... on
   Maximum white noise                  ....   0.010
   Quad. conv. algorithm                .... NR
 SOSCF                  CNVSOSCF        .... on
   Start iteration      SOSCFMaxIt      ....   150
   Startup grad/error   SOSCFStart      ....  0.003300
 Level Shifting         CNVShift        .... on
   Level shift para.    LevelShift      ....    0.2500
   Turn off err/grad.   ShiftErr        ....    0.0010
 Zerner damping         CNVZerner       .... off
 Static damping         CNVDamp         .... on
   Fraction old density DampFac         ....    0.7000
   Max. Damping (<1)    DampMax         ....    0.9800
   Min. Damping (>=0)   DampMin         ....    0.0000
   Turn off err/grad.   DampErr         ....    0.1000
 Fernandez-Rico         CNVRico         .... off

SCF Procedure:
 Maximum # iterations   MaxIter         ....   125
 SCF integral mode      SCFMode         .... Direct
   Integral package                     .... SHARK and LIBINT hybrid scheme
 Reset frequency        DirectResetFreq ....    20
 Integral Threshold     Thresh          ....  2.500e-11 Eh
 Primitive CutOff       TCut            ....  2.500e-12 Eh

Convergence Tolerance:
 Convergence Check Mode ConvCheckMode   .... Total+1el-Energy
 Convergence forced     ConvForced      .... 1
 Energy Change          TolE            ....  1.000e-08 Eh
 1-El. energy change                    ....  1.000e-05 Eh
 Orbital Gradient       TolG            ....  1.000e-05
 Orbital Rotation angle TolX            ....  1.000e-05
 DIIS Error             TolErr          ....  5.000e-07


Diagonalization of the overlap matrix:
Smallest eigenvalue                        ... 4.582e-06
Time for diagonalization                   ...    0.166 sec
Threshold for overlap eigenvalues          ... 1.000e-08
Number of eigenvalues below threshold      ... 0
Time for construction of square roots      ...    0.153 sec
Total time needed                          ...    0.322 sec

Time for model grid setup =    0.252 sec

------------------------------
INITIAL GUESS: MODEL POTENTIAL
------------------------------
Loading Hartree-Fock densities                     ... done
Calculating cut-offs                               ... done
Initializing the effective Hamiltonian             ... done
Setting up the integral package (SHARK)            ... done
Starting the Coulomb interaction                   ... done (   0.5 sec)
Reading the grid                                   ... done
Mapping shells                                     ... done
Starting the XC term evaluation                    ... done (   0.2 sec)
  promolecular density results
     # of electrons  =    175.986101783
     EX              =   -143.378145039
     EC              =     -0.774690453
     EX+EC           =   -144.152835492
Transforming the Hamiltonian                       ... done (   0.1 sec)
Diagonalizing the Hamiltonian                      ... done (   0.1 sec)
Back transforming the eigenvectors                 ... done (   0.0 sec)
Now organizing SCF variables                       ... done
                      ------------------
                      INITIAL GUESS DONE (   1.2 sec)
                      ------------------
-------------------
DFT GRID GENERATION
-------------------

General Integration Accuracy     IntAcc      ... 4.388
Radial Grid Type                 RadialGrid  ... OptM3 with GC (2021)
Angular Grid (max. ang.)         AngularGrid ... 4 (Lebedev-302)
Angular grid pruning method      GridPruning ... 4 (adaptive)
Weight generation scheme         WeightScheme... Becke
Basis function cutoff            BFCut       ... 1.0000e-11
Integration weight cutoff        WCut        ... 1.0000e-14
Angular grids for H and He will be reduced by one unit
Partially contracted basis set               ... off
Rotationally invariant grid construction     ... off

Total number of grid points                  ...   209055
Total number of batches                      ...     3292
Average number of points per batch           ...       63
Average number of grid points per atom       ...     4862
Time for grid setup =    1.132 sec

--------------------
COSX GRID GENERATION
--------------------

GRIDX 1
-------
General Integration Accuracy     IntAcc      ... 3.816
Radial Grid Type                 RadialGrid  ... OptM3 with GC (2021)
Angular Grid (max. ang.)         AngularGrid ... 1 (Lebedev-50)
Angular grid pruning method      GridPruning ... 4 (adaptive)
Weight generation scheme         WeightScheme... Becke
Basis function cutoff            BFCut       ... 1.0000e-11
Integration weight cutoff        WCut        ... 1.0000e-14
Angular grids for H and He will be reduced by one unit
Partially contracted basis set               ... on
Rotationally invariant grid construction     ... off

Total number of grid points                  ...    26580
Total number of batches                      ...      432
Average number of points per batch           ...       61
Average number of grid points per atom       ...      618
UseSFitting                                  ... on

GRIDX 2
-------
General Integration Accuracy     IntAcc      ... 4.020
Radial Grid Type                 RadialGrid  ... OptM3 with GC (2021)
Angular Grid (max. ang.)         AngularGrid ... 2 (Lebedev-110)
Angular grid pruning method      GridPruning ... 4 (adaptive)
Weight generation scheme         WeightScheme... Becke
Basis function cutoff            BFCut       ... 1.0000e-11
Integration weight cutoff        WCut        ... 1.0000e-14
Angular grids for H and He will be reduced by one unit
Partially contracted basis set               ... on
Rotationally invariant grid construction     ... off

Total number of grid points                  ...    57941
Total number of batches                      ...      927
Average number of points per batch           ...       62
Average number of grid points per atom       ...     1347
UseSFitting                                  ... on

GRIDX 3
-------
General Integration Accuracy     IntAcc      ... 4.338
Radial Grid Type                 RadialGrid  ... OptM3 with GC (2021)
Angular Grid (max. ang.)         AngularGrid ... 3 (Lebedev-194)
Angular grid pruning method      GridPruning ... 4 (adaptive)
Weight generation scheme         WeightScheme... Becke
Basis function cutoff            BFCut       ... 1.0000e-11
Integration weight cutoff        WCut        ... 1.0000e-14
Angular grids for H and He will be reduced by one unit
Partially contracted basis set               ... on
Rotationally invariant grid construction     ... off

Total number of grid points                  ...   126986
Total number of batches                      ...     2006
Average number of points per batch           ...       63
Average number of grid points per atom       ...     2953
UseSFitting                                  ... on

Time for X-Grid setup             =    1.455 sec


--------------------
CPCM SOLVATION MODEL
--------------------
CPCM parameters:
  Epsilon                                         ...      37.7810
  Refrac                                          ...       1.4380
  Rsolv                                           ...       1.3000
  Surface type                                    ... GAUSSIAN VDW
  Epsilon function type                           ...         CPCM
Solvent:                                     ... N,N-DIMETHYLACETAMIDE
SMD-CDS solvent descriptors:
  Soln                                       ...    1.4380
  Soln25                                     ...    1.4358
  Sola                                       ...    0.0000
  Solb                                       ...    0.7800
  Solg                                       ...   47.6200
  Solc                                       ...    0.0000
  Solh                                       ...    0.0000
Radii:
 Radius for C  used is    3.4960 Bohr (=   1.8500 Ang.)
 Radius for H  used is    2.2677 Bohr (=   1.2000 Ang.)
 Radius for N  used is    3.5716 Bohr (=   1.8900 Ang.)
 Radius for O  used is    4.3350 Bohr (=   2.2940 Ang.)
Calculating surface                               ...        done! (  0.0s)
GEPOL surface points                              ...         2356
GEPOL Volume                                      ...    2350.6460
GEPOL Surface-area                                ...    1255.2586
Calculating surface distance matrix               ...        done! (  0.0s)
Performing Cholesky decomposition & store         ...        done! (  0.2s)
Overall time for CPCM initialization              ...                 0.2s
--------------
SCF ITERATIONS
--------------
ITER       Energy         Delta-E        Max-DP      RMS-DP      [F,P]     Damp
               ***  Starting incremental Fock matrix formation  ***
  0  -1050.9998912364   0.000000000000 0.03101518  0.00054003  0.1609646 0.7000
  1  -1051.2621222167  -0.262230980310 0.03691380  0.00046487  0.1040626 0.7000
                               ***Turning on DIIS***
  2  -1051.4139782224  -0.151856005754 0.10310196  0.00110231  0.0605492 0.0000
  3  -1051.6896958338  -0.275717611426 0.02263585  0.00024693  0.0358974 0.0000
  4  -1051.7144758521  -0.024780018226 0.01201305  0.00012031  0.0079058 0.0000
                      *** Initiating the SOSCF procedure ***
                           *** Shutting down DIIS ***
                      *** Re-Reading the Fockian *** 
                      *** Removing any level shift *** 
ITER      Energy       Delta-E        Grad      Rot      Max-DP    RMS-DP
  5  -1051.71540030  -0.0009244451  0.001233  0.001233  0.003147  0.000043
               *** Restarting incremental Fock matrix formation ***
  6  -1051.71540911  -0.0000088081  0.001166  0.003896  0.015733  0.000191
  7  -1051.71547189  -0.0000627839  0.000313  0.002700  0.006094  0.000075
  8  -1051.71548477  -0.0000128786  0.000173  0.000299  0.005168  0.000062
  9  -1051.71548881  -0.0000040427  0.000048  0.000131  0.000880  0.000011
 10  -1051.71548912  -0.0000003099  0.000026  0.000081  0.000318  0.000004
 11  -1051.71548919  -0.0000000721  0.000008  0.000043  0.000288  0.000002
 12  -1051.71548918   0.0000000135  0.000003  0.000007  0.000075  0.000001
                  ***Gradient check signals convergence***
              ***Rediagonalizing the Fockian in SOSCF/NRSCF***

               *****************************************************
               *                     SUCCESS                       *
               *           SCF CONVERGED AFTER  13 CYCLES          *
               *****************************************************

Old exchange energy                            =   -100.562811697 Eh
New exchange energy                            =   -100.562668665 Eh
Exchange energy change after final integration =      0.000143033 Eh
Total energy after final integration           =  -1051.715346224 Eh
Final COS-X integration done in                =    27.367 sec

SMD CDS free energy correction energy :                -4.29799     Kcal/mol
Total Energy after SMD CDS correction =             -1051.722195503 Eh

----------------
TOTAL SCF ENERGY
----------------

Total Energy       :        -1051.72219550 Eh          -28618.81589 eV

Components:
Nuclear Repulsion  :         2066.27857256 Eh           56226.29845 eV
Electronic Energy  :        -3118.00076806 Eh          -84845.11434 eV
One Electron Energy:        -5532.43522921 Eh         -150545.21616 eV
Two Electron Energy:         2414.43446115 Eh           65700.10182 eV
Max COSX asymmetry :            0.00000681 Eh               0.00019 eV
CPCM Dielectric    :           -0.02171945 Eh              -0.59102 eV
SMD CDS (Gcds)     :           -0.00684928 Eh              -0.18638 eV

Virial components:
Potential Energy   :        -2100.63538771 Eh          -57161.19492 eV
Kinetic Energy     :         1048.91319221 Eh           28542.37903 eV
Virial Ratio       :            2.00267801


DFT components:
N(Alpha)           :       87.999988167750 electrons
N(Beta)            :       87.999988167750 electrons
N(Total)           :      175.999976335500 electrons
E(X)               :      -45.243415097046 Eh       
E(C)               :       -3.243759378640 Eh       
E(XC)              :      -48.487174475685 Eh       
DFET-embed. en.    :        0.000000000000 Eh       
CPCM Solvation Model Properties:
Surface-charge          :           -0.06939626
Charge-correction       :            0.00030195 Eh               0.00822 eV
Free-energy (cav+disp)  :           -0.00684928 Eh              -0.18638 eV

---------------
SCF CONVERGENCE
---------------

  Last Energy change         ...   -7.7369e-08  Tolerance :   1.0000e-08
  Last MAX-Density change    ...    1.9984e-15  Tolerance :   1.0000e-07
  Last RMS-Density change    ...    1.2450e-17  Tolerance :   5.0000e-09
  Last Orbital Gradient      ...    9.4391e-07  Tolerance :   1.0000e-05
  Last Orbital Rotation      ...    3.2700e-06  Tolerance :   1.0000e-05

             **** THE GBW FILE WAS UPDATED (POZ_3_M06L_def2TZVP_coords.gbw) ****
             **** DENSITY POZ_3_M06L_def2TZVP_coords.scfp WAS UPDATED ****
             **** ENERGY FILE WAS UPDATED (POZ_3_M06L_def2TZVP_coords.en.tmp) ****
             **** THE GBW FILE WAS UPDATED (POZ_3_M06L_def2TZVP_coords.gbw) ****
             **** DENSITY POZ_3_M06L_def2TZVP_coords.scfp WAS UPDATED ****
----------------
ORBITAL ENERGIES
----------------

  NO   OCC          E(Eh)            E(eV) 
   0   2.0000     -20.056604      -545.7679 
   1   2.0000     -15.121500      -411.4769 
   2   2.0000     -10.896359      -296.5050 
   3   2.0000     -10.895638      -296.4854 
   4   2.0000     -10.882706      -296.1335 
   5   2.0000     -10.882575      -296.1299 
   6   2.0000     -10.869861      -295.7839 
   7   2.0000     -10.839926      -294.9694 
   8   2.0000     -10.836717      -294.8821 
   9   2.0000     -10.831514      -294.7405 
  10   2.0000     -10.831464      -294.7391 
  11   2.0000     -10.830691      -294.7181 
  12   2.0000     -10.830107      -294.7022 
  13   2.0000     -10.829414      -294.6833 
  14   2.0000     -10.828615      -294.6616 
  15   2.0000     -10.828146      -294.6488 
  16   2.0000     -10.827650      -294.6353 
  17   2.0000     -10.827053      -294.6191 
  18   2.0000     -10.825760      -294.5839 
  19   2.0000     -10.825740      -294.5834 
  20   2.0000     -10.825567      -294.5786 
  21   2.0000     -10.824981      -294.5627 
  22   2.0000     -10.824342      -294.5453 
  23   2.0000     -10.824248      -294.5427 
  24   2.0000     -10.823317      -294.5174 
  25   2.0000     -10.822685      -294.5002 
  26   2.0000      -1.310542       -35.6617 
  27   2.0000      -1.176981       -32.0273 
  28   2.0000      -1.065248       -28.9869 
  29   2.0000      -1.049763       -28.5655 
  30   2.0000      -1.044297       -28.4168 
  31   2.0000      -1.021195       -27.7881 
  32   2.0000      -0.954739       -25.9798 
  33   2.0000      -0.940626       -25.5957 
  34   2.0000      -0.931173       -25.3385 
  35   2.0000      -0.921337       -25.0708 
  36   2.0000      -0.914996       -24.8983 
  37   2.0000      -0.908511       -24.7218 
  38   2.0000      -0.897101       -24.4114 
  39   2.0000      -0.860502       -23.4155 
  40   2.0000      -0.796668       -21.6784 
  41   2.0000      -0.794011       -21.6061 
  42   2.0000      -0.755239       -20.5511 
  43   2.0000      -0.753623       -20.5071 
  44   2.0000      -0.744021       -20.2458 
  45   2.0000      -0.728628       -19.8270 
  46   2.0000      -0.724981       -19.7277 
  47   2.0000      -0.696845       -18.9621 
  48   2.0000      -0.686967       -18.6933 
  49   2.0000      -0.655896       -17.8478 
  50   2.0000      -0.635179       -17.2841 
  51   2.0000      -0.620843       -16.8940 
  52   2.0000      -0.613204       -16.6861 
  53   2.0000      -0.592985       -16.1359 
  54   2.0000      -0.590837       -16.0775 
  55   2.0000      -0.585522       -15.9329 
  56   2.0000      -0.575878       -15.6704 
  57   2.0000      -0.568594       -15.4722 
  58   2.0000      -0.560865       -15.2619 
  59   2.0000      -0.551584       -15.0094 
  60   2.0000      -0.545040       -14.8313 
  61   2.0000      -0.540244       -14.7008 
  62   2.0000      -0.538460       -14.6522 
  63   2.0000      -0.535320       -14.5668 
  64   2.0000      -0.529281       -14.4025 
  65   2.0000      -0.520239       -14.1564 
  66   2.0000      -0.501304       -13.6412 
  67   2.0000      -0.485187       -13.2026 
  68   2.0000      -0.483747       -13.1634 
  69   2.0000      -0.477909       -13.0046 
  70   2.0000      -0.466017       -12.6810 
  71   2.0000      -0.464674       -12.6444 
  72   2.0000      -0.461001       -12.5445 
  73   2.0000      -0.458722       -12.4825 
  74   2.0000      -0.452262       -12.3067 
  75   2.0000      -0.441650       -12.0179 
  76   2.0000      -0.438718       -11.9381 
  77   2.0000      -0.431836       -11.7508 
  78   2.0000      -0.423528       -11.5248 
  79   2.0000      -0.409146       -11.1334 
  80   2.0000      -0.342593        -9.3224 
  81   2.0000      -0.326017        -8.8714 
  82   2.0000      -0.315950        -8.5974 
  83   2.0000      -0.314474        -8.5573 
  84   2.0000      -0.311522        -8.4769 
  85   2.0000      -0.298200        -8.1144 
  86   2.0000      -0.284719        -7.7476 
  87   2.0000      -0.227863        -6.2005 
  88   0.0000       0.034143         0.9291 
  89   0.0000       0.053062         1.4439 
  90   0.0000       0.061206         1.6655 
  91   0.0000       0.064243         1.7481 
  92   0.0000       0.072321         1.9680 
  93   0.0000       0.081966         2.2304 
  94   0.0000       0.085541         2.3277 
  95   0.0000       0.116267         3.1638 
  96   0.0000       0.125253         3.4083 
  97   0.0000       0.126825         3.4511 
  98   0.0000       0.127665         3.4739 
  99   0.0000       0.134469         3.6591 
 100   0.0000       0.137859         3.7513 
 101   0.0000       0.144627         3.9355 
 102   0.0000       0.148544         4.0421 
 103   0.0000       0.150499         4.0953 
 104   0.0000       0.162461         4.4208 
 105   0.0000       0.166769         4.5380 
 106   0.0000       0.170879         4.6499 
 107   0.0000       0.178936         4.8691 
 108   0.0000       0.179715         4.8903 
 109   0.0000       0.180609         4.9146 
 110   0.0000       0.185612         5.0507 
 111   0.0000       0.189370         5.1530 
 112   0.0000       0.193046         5.2531 
 113   0.0000       0.196425         5.3450 
 114   0.0000       0.205974         5.6048 
 115   0.0000       0.218359         5.9418 
 116   0.0000       0.225883         6.1466 
 117   0.0000       0.236167         6.4264 
 118   0.0000       0.246123         6.6974 
 119   0.0000       0.251307         6.8384 
 120   0.0000       0.252922         6.8824 
 121   0.0000       0.254789         6.9332 
 122   0.0000       0.262041         7.1305 
 123   0.0000       0.264465         7.1965 
 124   0.0000       0.270424         7.3586 
 125   0.0000       0.274612         7.4726 
 126   0.0000       0.277061         7.5392 
 127   0.0000       0.278816         7.5870 
 128   0.0000       0.283438         7.7127 
 129   0.0000       0.286925         7.8076 
 130   0.0000       0.289168         7.8687 
 131   0.0000       0.292315         7.9543 
 132   0.0000       0.294160         8.0045 
 133   0.0000       0.296186         8.0596 
 134   0.0000       0.298183         8.1140 
 135   0.0000       0.300072         8.1654 
 136   0.0000       0.311941         8.4884 
 137   0.0000       0.313186         8.5222 
 138   0.0000       0.314898         8.5688 
 139   0.0000       0.318075         8.6553 
 140   0.0000       0.322087         8.7644 
 141   0.0000       0.324710         8.8358 
 142   0.0000       0.326506         8.8847 
 143   0.0000       0.328352         8.9349 
 144   0.0000       0.338110         9.2004 
 145   0.0000       0.349370         9.5068 
 146   0.0000       0.353004         9.6057 
 147   0.0000       0.354200         9.6383 
 148   0.0000       0.355645         9.6776 
 149   0.0000       0.363314         9.8863 
 150   0.0000       0.366989         9.9863 
 151   0.0000       0.367653        10.0044 
 152   0.0000       0.371810        10.1175 
 153   0.0000       0.374056        10.1786 
 154   0.0000       0.383288        10.4298 
 155   0.0000       0.384552        10.4642 
 156   0.0000       0.395292        10.7564 
 157   0.0000       0.400992        10.9116 
 158   0.0000       0.401949        10.9376 
 159   0.0000       0.407246        11.0817 
 160   0.0000       0.412422        11.2226 
 161   0.0000       0.416773        11.3410 
 162   0.0000       0.424439        11.5496 
 163   0.0000       0.429669        11.6919 
 164   0.0000       0.430348        11.7104 
 165   0.0000       0.432453        11.7677 
 166   0.0000       0.436508        11.8780 
 167   0.0000       0.441122        12.0035 
 168   0.0000       0.442615        12.0442 
 169   0.0000       0.447215        12.1693 
 170   0.0000       0.452493        12.3130 
 171   0.0000       0.455770        12.4021 
 172   0.0000       0.460339        12.5265 
 173   0.0000       0.467334        12.7168 
 174   0.0000       0.473304        12.8793 
 175   0.0000       0.474892        12.9225 
 176   0.0000       0.478497        13.0206 
 177   0.0000       0.482446        13.1280 
 178   0.0000       0.485709        13.2168 
 179   0.0000       0.488826        13.3016 
 180   0.0000       0.490284        13.3413 
 181   0.0000       0.497361        13.5339 
 182   0.0000       0.500229        13.6119 
 183   0.0000       0.500761        13.6264 
 184   0.0000       0.507376        13.8064 
 185   0.0000       0.508666        13.8415 
 186   0.0000       0.510087        13.8802 
 187   0.0000       0.514046        13.9879 
 188   0.0000       0.517862        14.0917 
 189   0.0000       0.521788        14.1986 
 190   0.0000       0.525470        14.2988 
 191   0.0000       0.528040        14.3687 
 192   0.0000       0.531420        14.4607 
 193   0.0000       0.534405        14.5419 
 194   0.0000       0.538099        14.6424 
 195   0.0000       0.545817        14.8524 
 196   0.0000       0.549659        14.9570 
 197   0.0000       0.554060        15.0767 
 198   0.0000       0.556462        15.1421 
 199   0.0000       0.561846        15.2886 
 200   0.0000       0.566438        15.4136 
 201   0.0000       0.567042        15.4300 
 202   0.0000       0.568171        15.4607 
 203   0.0000       0.575588        15.6625 
 204   0.0000       0.578473        15.7410 
 205   0.0000       0.584948        15.9173 
 206   0.0000       0.590537        16.0693 
 207   0.0000       0.596422        16.2295 
 208   0.0000       0.596892        16.2423 
 209   0.0000       0.601981        16.3807 
 210   0.0000       0.605509        16.4767 
 211   0.0000       0.609299        16.5799 
 212   0.0000       0.610237        16.6054 
 213   0.0000       0.617772        16.8104 
 214   0.0000       0.623278        16.9603 
 215   0.0000       0.630944        17.1689 
 216   0.0000       0.634066        17.2538 
 217   0.0000       0.638072        17.3628 
 218   0.0000       0.645800        17.5731 
 219   0.0000       0.656070        17.8526 
 220   0.0000       0.662431        18.0257 
 221   0.0000       0.668327        18.1861 
 222   0.0000       0.672435        18.2979 
 223   0.0000       0.679103        18.4793 
 224   0.0000       0.684030        18.6134 
 225   0.0000       0.691430        18.8148 
 226   0.0000       0.700128        19.0514 
 227   0.0000       0.708453        19.2780 
 228   0.0000       0.717221        19.5166 
 229   0.0000       0.725440        19.7402 
 230   0.0000       0.732434        19.9305 
 231   0.0000       0.743071        20.2200 
 232   0.0000       0.747481        20.3400 
 233   0.0000       0.752969        20.4893 
 234   0.0000       0.757322        20.6078 
 235   0.0000       0.761222        20.7139 
 236   0.0000       0.764312        20.7980 
 237   0.0000       0.769713        20.9450 
 238   0.0000       0.771802        21.0018 
 239   0.0000       0.776484        21.1292 
 240   0.0000       0.781612        21.2687 
 241   0.0000       0.790935        21.5224 
 242   0.0000       0.796031        21.6611 
 243   0.0000       0.805887        21.9293 
 244   0.0000       0.811993        22.0955 
 245   0.0000       0.815004        22.1774 
 246   0.0000       0.820784        22.3347 
 247   0.0000       0.824121        22.4255 
 248   0.0000       0.827444        22.5159 
 249   0.0000       0.829930        22.5835 
 250   0.0000       0.836732        22.7686 
 251   0.0000       0.840663        22.8756 
 252   0.0000       0.841120        22.8880 
 253   0.0000       0.844809        22.9884 
 254   0.0000       0.847590        23.0641 
 255   0.0000       0.850571        23.1452 
 256   0.0000       0.859304        23.3829 
 257   0.0000       0.861788        23.4505 
 258   0.0000       0.863877        23.5073 
 259   0.0000       0.865425        23.5494 
 260   0.0000       0.867183        23.5973 
 261   0.0000       0.873207        23.7612 
 262   0.0000       0.876542        23.8519 
 263   0.0000       0.881852        23.9964 
 264   0.0000       0.886366        24.1193 
 265   0.0000       0.894740        24.3471 
 266   0.0000       0.900958        24.5163 
 267   0.0000       0.905702        24.6454 
 268   0.0000       0.913111        24.8470 
 269   0.0000       0.916477        24.9386 
 270   0.0000       0.921376        25.0719 
 271   0.0000       0.926131        25.2013 
 272   0.0000       0.934864        25.4389 
 273   0.0000       0.942339        25.6424 
 274   0.0000       0.943022        25.6609 
 275   0.0000       0.952544        25.9200 
 276   0.0000       0.958168        26.0731 
 277   0.0000       0.967010        26.3137 
 278   0.0000       0.974439        26.5158 
 279   0.0000       0.982828        26.7441 
 280   0.0000       0.987635        26.8749 
 281   0.0000       0.993370        27.0310 
 282   0.0000       0.996440        27.1145 
 283   0.0000       0.997815        27.1519 
 284   0.0000       1.002843        27.2887 
 285   0.0000       1.007588        27.4179 
 286   0.0000       1.013027        27.5659 
 287   0.0000       1.015893        27.6438 
 288   0.0000       1.020641        27.7731 
 289   0.0000       1.027291        27.9540 
 290   0.0000       1.035589        28.1798 
 291   0.0000       1.040133        28.3035 
 292   0.0000       1.047967        28.5166 
 293   0.0000       1.051140        28.6030 
 294   0.0000       1.060238        28.8505 
 295   0.0000       1.064342        28.9622 
 296   0.0000       1.072138        29.1743 
 297   0.0000       1.076669        29.2977 
 298   0.0000       1.086957        29.5776 
 299   0.0000       1.099336        29.9144 
 300   0.0000       1.102729        30.0068 
 301   0.0000       1.109497        30.1910 
 302   0.0000       1.127423        30.6787 
 303   0.0000       1.132376        30.8135 
 304   0.0000       1.135158        30.8892 
 305   0.0000       1.145378        31.1673 
 306   0.0000       1.152313        31.3560 
 307   0.0000       1.164708        31.6933 
 308   0.0000       1.170155        31.8415 
 309   0.0000       1.171930        31.8898 
 310   0.0000       1.177312        32.0363 
 311   0.0000       1.181103        32.1394 
 312   0.0000       1.196728        32.5646 
 313   0.0000       1.209185        32.9036 
 314   0.0000       1.216009        33.0893 
 315   0.0000       1.228182        33.4205 
 316   0.0000       1.232697        33.5434 
 317   0.0000       1.240780        33.7633 
 318   0.0000       1.253745        34.1161 
 319   0.0000       1.262369        34.3508 
 320   0.0000       1.267593        34.4930 
 321   0.0000       1.271697        34.6046 
 322   0.0000       1.277867        34.7725 
 323   0.0000       1.284117        34.9426 
 324   0.0000       1.291724        35.1496 
 325   0.0000       1.298332        35.3294 
 326   0.0000       1.310390        35.6575 
 327   0.0000       1.313214        35.7344 
 328   0.0000       1.315653        35.8007 
 329   0.0000       1.324601        36.0442 
 330   0.0000       1.342240        36.5242 
 331   0.0000       1.346615        36.6433 
 332   0.0000       1.351954        36.7885 
 333   0.0000       1.353768        36.8379 
 334   0.0000       1.356581        36.9145 
 335   0.0000       1.368974        37.2517 
 336   0.0000       1.378216        37.5032 
 337   0.0000       1.381054        37.5804 
 338   0.0000       1.385462        37.7003 
 339   0.0000       1.387075        37.7442 
 340   0.0000       1.393540        37.9202 
 341   0.0000       1.394490        37.9460 
 342   0.0000       1.407328        38.2953 
 343   0.0000       1.410566        38.3834 
 344   0.0000       1.416068        38.5332 
 345   0.0000       1.419122        38.6163 
 346   0.0000       1.428453        38.8702 
 347   0.0000       1.435468        39.0611 
 348   0.0000       1.441008        39.2118 
 349   0.0000       1.451105        39.4866 
 350   0.0000       1.455430        39.6043 
 351   0.0000       1.469851        39.9967 
 352   0.0000       1.477121        40.1945 
 353   0.0000       1.482119        40.3305 
 354   0.0000       1.485291        40.4168 
 355   0.0000       1.489294        40.5257 
 356   0.0000       1.495967        40.7073 
 357   0.0000       1.503926        40.9239 
 358   0.0000       1.514150        41.2021 
 359   0.0000       1.527637        41.5691 
 360   0.0000       1.537524        41.8382 
 361   0.0000       1.554032        42.2874 
 362   0.0000       1.565807        42.6078 
 363   0.0000       1.570971        42.7483 
 364   0.0000       1.574202        42.8362 
 365   0.0000       1.583021        43.0762 
 366   0.0000       1.592354        43.3302 
 367   0.0000       1.594894        43.3993 
 368   0.0000       1.606267        43.7087 
 369   0.0000       1.608960        43.7820 
 370   0.0000       1.620107        44.0854 
 371   0.0000       1.623132        44.1677 
 372   0.0000       1.626035        44.2467 
 373   0.0000       1.632985        44.4358 
 374   0.0000       1.635084        44.4929 
 375   0.0000       1.644478        44.7485 
 376   0.0000       1.646875        44.8137 
 377   0.0000       1.654553        45.0227 
 378   0.0000       1.665572        45.3225 
 379   0.0000       1.669762        45.4365 
 380   0.0000       1.679013        45.6883 
 381   0.0000       1.680201        45.7206 
 382   0.0000       1.684393        45.8347 
 383   0.0000       1.690101        45.9900 
 384   0.0000       1.695940        46.1489 
 385   0.0000       1.698528        46.2193 
 386   0.0000       1.703150        46.3451 
 387   0.0000       1.711712        46.5781 
 388   0.0000       1.720190        46.8088 
 389   0.0000       1.729888        47.0726 
 390   0.0000       1.731995        47.1300 
 391   0.0000       1.739684        47.3392 
 392   0.0000       1.746333        47.5201 
 393   0.0000       1.754692        47.7476 
 394   0.0000       1.760234        47.8984 
 395   0.0000       1.766992        48.0823 
 396   0.0000       1.768950        48.1356 
 397   0.0000       1.774898        48.2974 
 398   0.0000       1.784732        48.5650 
 399   0.0000       1.799520        48.9674 
 400   0.0000       1.806140        49.1476 
 401   0.0000       1.816116        49.4190 
 402   0.0000       1.825460        49.6733 
 403   0.0000       1.829085        49.7719 
 404   0.0000       1.837437        49.9992 
 405   0.0000       1.843010        50.1508 
 406   0.0000       1.844434        50.1896 
 407   0.0000       1.848841        50.3095 
 408   0.0000       1.856757        50.5249 
 409   0.0000       1.860548        50.6281 
 410   0.0000       1.866550        50.7914 
 411   0.0000       1.873353        50.9765 
 412   0.0000       1.880503        51.1711 
 413   0.0000       1.882185        51.2169 
 414   0.0000       1.886403        51.3316 
 415   0.0000       1.892268        51.4912 
 416   0.0000       1.896498        51.6063 
 417   0.0000       1.903049        51.7846 
 418   0.0000       1.905831        51.8603 
 419   0.0000       1.911795        52.0226 
 420   0.0000       1.913903        52.0799 
 421   0.0000       1.914980        52.1092 
 422   0.0000       1.920775        52.2669 
 423   0.0000       1.924404        52.3657 
 424   0.0000       1.931566        52.5606 
 425   0.0000       1.948187        53.0129 
 426   0.0000       1.951002        53.0895 
 427   0.0000       1.957009        53.2529 
 428   0.0000       1.980129        53.8820 
 429   0.0000       1.981772        53.9268 
 430   0.0000       1.995233        54.2930 
 431   0.0000       2.010741        54.7151 
 432   0.0000       2.018814        54.9347 
 433   0.0000       2.021287        55.0020 
 434   0.0000       2.039575        55.4996 
 435   0.0000       2.045395        55.6580 
 436   0.0000       2.049295        55.7642 
 437   0.0000       2.066941        56.2443 
 438   0.0000       2.073260        56.4163 
 439   0.0000       2.078816        56.5675 
 440   0.0000       2.091959        56.9251 
 441   0.0000       2.093204        56.9590 
 442   0.0000       2.093861        56.9768 
 443   0.0000       2.106831        57.3298 
 444   0.0000       2.116936        57.6048 
 445   0.0000       2.119469        57.6737 
 446   0.0000       2.133477        58.0549 
 447   0.0000       2.145837        58.3912 
 448   0.0000       2.153470        58.5989 
 449   0.0000       2.169505        59.0352 
 450   0.0000       2.177032        59.2401 
 451   0.0000       2.178906        59.2910 
 452   0.0000       2.194719        59.7213 
 453   0.0000       2.198392        59.8213 
 454   0.0000       2.213085        60.2211 
 455   0.0000       2.222015        60.4641 
 456   0.0000       2.224400        60.5290 
 457   0.0000       2.235396        60.8282 
 458   0.0000       2.240986        60.9803 
 459   0.0000       2.245475        61.1025 
 460   0.0000       2.253399        61.3181 
 461   0.0000       2.267321        61.6970 
 462   0.0000       2.276364        61.9430 
 463   0.0000       2.282512        62.1103 
 464   0.0000       2.284169        62.1554 
 465   0.0000       2.289047        62.2881 
 466   0.0000       2.292892        62.3928 
 467   0.0000       2.304639        62.7124 
 468   0.0000       2.315765        63.0152 
 469   0.0000       2.329117        63.3785 
 470   0.0000       2.337436        63.6049 
 471   0.0000       2.355055        64.0843 
 472   0.0000       2.364350        64.3372 
 473   0.0000       2.371085        64.5205 
 474   0.0000       2.373012        64.5730 
 475   0.0000       2.378962        64.7348 
 476   0.0000       2.381317        64.7989 
 477   0.0000       2.395839        65.1941 
 478   0.0000       2.403849        65.4121 
 479   0.0000       2.411181        65.6116 
 480   0.0000       2.416420        65.7541 
 481   0.0000       2.419811        65.8464 
 482   0.0000       2.425377        65.9979 
 483   0.0000       2.437544        66.3289 
 484   0.0000       2.439713        66.3880 
 485   0.0000       2.444554        66.5197 
 486   0.0000       2.451623        66.7121 
 487   0.0000       2.460867        66.9636 
 488   0.0000       2.473922        67.3188 
 489   0.0000       2.488871        67.7256 
 490   0.0000       2.500574        68.0441 
 491   0.0000       2.513811        68.4043 
 492   0.0000       2.524395        68.6923 
 493   0.0000       2.542754        69.1919 
 494   0.0000       2.547799        69.3291 
 495   0.0000       2.572241        69.9942 
 496   0.0000       2.575326        70.0782 
 497   0.0000       2.577336        70.1329 
 498   0.0000       2.586626        70.3857 
 499   0.0000       2.610487        71.0350 
 500   0.0000       2.621082        71.3233 
 501   0.0000       2.645416        71.9854 
 502   0.0000       2.651405        72.1484 
 503   0.0000       2.655027        72.2470 
 504   0.0000       2.659209        72.3608 
 505   0.0000       2.673458        72.7485 
 506   0.0000       2.679935        72.9247 
 507   0.0000       2.690095        73.2012 
 508   0.0000       2.697577        73.4048 
 509   0.0000       2.715061        73.8806 
 510   0.0000       2.716669        73.9243 
 511   0.0000       2.724841        74.1467 
 512   0.0000       2.728550        74.2476 
 513   0.0000       2.733757        74.3893 
 514   0.0000       2.746958        74.7485 
 515   0.0000       2.755982        74.9941 
 516   0.0000       2.772849        75.4531 
 517   0.0000       2.784664        75.7746 
 518   0.0000       2.786393        75.8216 
 519   0.0000       2.790105        75.9226 
 520   0.0000       2.794136        76.0323 
 521   0.0000       2.796749        76.1034 
 522   0.0000       2.809085        76.4391 
 523   0.0000       2.815921        76.6251 
 524   0.0000       2.817927        76.6797 
 525   0.0000       2.823601        76.8341 
 526   0.0000       2.828617        76.9706 
 527   0.0000       2.831537        77.0500 
 528   0.0000       2.840709        77.2996 
 529   0.0000       2.845566        77.4318 
 530   0.0000       2.856475        77.7286 
 531   0.0000       2.858947        77.7959 
 532   0.0000       2.863722        77.9258 
 533   0.0000       2.866682        78.0064 
 534   0.0000       2.869075        78.0715 
 535   0.0000       2.870975        78.1232 
 536   0.0000       2.874508        78.2193 
 537   0.0000       2.881276        78.4035 
 538   0.0000       2.884746        78.4979 
 539   0.0000       2.888223        78.5926 
 540   0.0000       2.891066        78.6699 
 541   0.0000       2.895179        78.7818 
 542   0.0000       2.900582        78.9289 
 543   0.0000       2.903270        79.0020 
 544   0.0000       2.905594        79.0652 
 545   0.0000       2.906946        79.1020 
 546   0.0000       2.917224        79.3817 
 547   0.0000       2.919671        79.4483 
 548   0.0000       2.925851        79.6165 
 549   0.0000       2.928173        79.6796 
 550   0.0000       2.935207        79.8710 
 551   0.0000       2.936570        79.9081 
 552   0.0000       2.944493        80.1237 
 553   0.0000       2.947889        80.2161 
 554   0.0000       2.949297        80.2545 
 555   0.0000       2.960362        80.5555 
 556   0.0000       2.962237        80.6066 
 557   0.0000       2.969617        80.8074 
 558   0.0000       2.972621        80.8891 
 559   0.0000       2.979660        81.0807 
 560   0.0000       2.980942        81.1156 
 561   0.0000       2.984949        81.2246 
 562   0.0000       2.986157        81.2575 
 563   0.0000       2.992489        81.4298 
 564   0.0000       2.998193        81.5850 
 565   0.0000       3.005193        81.7755 
 566   0.0000       3.009353        81.8887 
 567   0.0000       3.019510        82.1650 
 568   0.0000       3.023089        82.2624 
 569   0.0000       3.029630        82.4404 
 570   0.0000       3.036258        82.6208 
 571   0.0000       3.037686        82.6596 
 572   0.0000       3.045531        82.8731 
 573   0.0000       3.047731        82.9330 
 574   0.0000       3.048264        82.9475 
 575   0.0000       3.050698        83.0137 
 576   0.0000       3.059337        83.2488 
 577   0.0000       3.065987        83.4297 
 578   0.0000       3.068795        83.5062 
 579   0.0000       3.071302        83.5744 
 580   0.0000       3.077313        83.7380 
 581   0.0000       3.082297        83.8736 
 582   0.0000       3.095072        84.2212 
 583   0.0000       3.096751        84.2669 
 584   0.0000       3.101277        84.3900 
 585   0.0000       3.108231        84.5793 
 586   0.0000       3.112743        84.7020 
 587   0.0000       3.114599        84.7526 
 588   0.0000       3.125451        85.0478 
 589   0.0000       3.135784        85.3290 
 590   0.0000       3.145138        85.5836 
 591   0.0000       3.150302        85.7241 
 592   0.0000       3.165046        86.1253 
 593   0.0000       3.176359        86.4331 
 594   0.0000       3.187179        86.7276 
 595   0.0000       3.195636        86.9577 
 596   0.0000       3.207986        87.2937 
 597   0.0000       3.213163        87.4346 
 598   0.0000       3.218170        87.5709 
[...]
    85a ->  91a  :     0.015898 
    85a ->  94a  :     0.014572 
    86a ->  89a  :     0.101512 
    86a ->  91a  :     0.117947 
    86a ->  92a  :     0.011381 
    86a ->  93a  :     0.012476 
    86a ->  94a  :     0.016353 
    87a ->  91a  :     0.024492 
    87a ->  92a  :     0.079670 
    87a ->  95a  :     0.014403 
    87a ->  96a  :     0.040504 
    87a ->  97a  :     0.019382 
    87a ->  98a  :     0.062646 

STATE 19:  E=   0.198681 au      5.406 eV    43605.4 cm**-1 <S**2> =   0.000000
    80a ->  91a  :     0.013825 
    82a ->  88a  :     0.010005 
    82a ->  89a  :     0.036231 
    82a ->  90a  :     0.122699 
    83a ->  89a  :     0.109390 
    83a ->  90a  :     0.038211 
    83a ->  93a  :     0.015360 
    84a ->  88a  :     0.020150 
    84a ->  91a  :     0.024065 
    85a ->  91a  :     0.021184 
    86a ->  91a  :     0.019142 
    86a ->  92a  :     0.045908 
    87a ->  91a  :     0.015437 
    87a ->  94a  :     0.010431 
    87a ->  95a  :     0.092778 
    87a ->  96a  :     0.043476 
    87a ->  97a  :     0.123600 
    87a ->  98a  :     0.048549 
    87a -> 100a  :     0.010292 

STATE 20:  E=   0.216234 au      5.884 eV    47457.8 cm**-1 <S**2> =   0.000000
    81a ->  90a  :     0.040851 
    82a ->  88a  :     0.034855 
    82a ->  89a  :     0.279794 
    82a ->  91a  :     0.068409 
    82a ->  93a  :     0.045825 
    83a ->  89a  :     0.015369 
    83a ->  90a  :     0.305307 
    84a ->  90a  :     0.012725 
    85a ->  90a  :     0.024072 
    87a ->  97a  :     0.010964 

STATE 21:  E=   0.190614 au      5.187 eV    41834.9 cm**-1 <S**2> =   0.000000
    82a ->  90a  :     0.075348 
    83a ->  89a  :     0.077194 
    85a ->  89a  :     0.022939 
    85a ->  91a  :     0.013254 
    85a ->  94a  :     0.013070 
    86a ->  89a  :     0.011600 
    86a ->  91a  :     0.021014 
    87a ->  91a  :     0.014396 
    87a ->  95a  :     0.165524 
    87a ->  96a  :     0.253399 
    87a ->  97a  :     0.098291 
    87a ->  98a  :     0.018267 
    87a -> 112a  :     0.011665 
    87a -> 116a  :     0.012254 

STATE 22:  E=   0.191688 au      5.216 eV    42070.8 cm**-1 <S**2> =   0.000000
    80a ->  89a  :     0.037912 
    80a ->  92a  :     0.020077 
    81a ->  91a  :     0.014027 
    82a ->  90a  :     0.125424 
    83a ->  88a  :     0.017840 
    83a ->  89a  :     0.062867 
    83a ->  91a  :     0.023738 
    83a ->  93a  :     0.012205 
    84a ->  88a  :     0.041175 
    84a ->  89a  :     0.012171 
    85a ->  91a  :     0.026974 
    85a ->  93a  :     0.035918 
    86a ->  89a  :     0.017617 
    86a ->  91a  :     0.023914 
    86a ->  92a  :     0.146855 
    86a ->  93a  :     0.053903 
    86a ->  94a  :     0.028932 
    87a ->  92a  :     0.032032 
    87a ->  94a  :     0.019104 
    87a ->  96a  :     0.033158 
    87a ->  98a  :     0.078789 

STATE 23:  E=   0.175205 au      4.768 eV    38453.0 cm**-1 <S**2> =   0.000000
    80a ->  88a  :     0.017585 
    80a ->  91a  :     0.024625 
    81a ->  88a  :     0.020327 
    81a ->  89a  :     0.033392 
    81a ->  91a  :     0.013554 
    82a ->  90a  :     0.039972 
    83a ->  91a  :     0.010837 
    84a ->  88a  :     0.019317 
    85a ->  89a  :     0.073923 
    85a ->  91a  :     0.030367 
    85a ->  92a  :     0.057229 
    85a ->  94a  :     0.043408 
    86a ->  91a  :     0.011921 
    86a ->  92a  :     0.092908 
    86a ->  94a  :     0.030633 
    87a ->  91a  :     0.010591 
    87a ->  94a  :     0.011973 
    87a ->  96a  :     0.030440 
    87a ->  97a  :     0.131812 
    87a ->  98a  :     0.152263 

STATE 24:  E=   0.209675 au      5.706 eV    46018.4 cm**-1 <S**2> =   0.000000
    85a ->  96a  :     0.014918 
    86a ->  92a  :     0.015020 
    86a ->  96a  :     0.031702 
    87a ->  96a  :     0.035321 
    87a ->  97a  :     0.115664 
    87a ->  98a  :     0.062379 
    87a ->  99a  :     0.288355 
    87a -> 100a  :     0.196737 
    87a -> 101a  :     0.064753 

STATE 25:  E=   0.187252 au      5.095 eV    41097.1 cm**-1 <S**2> =   0.000000
    80a ->  88a  :     0.059045 
    80a ->  91a  :     0.052217 
    80a ->  92a  :     0.055476 
    81a ->  88a  :     0.071602 
    85a ->  89a  :     0.013978 
    85a ->  91a  :     0.073004 
    85a ->  92a  :     0.095364 
    86a ->  89a  :     0.082476 
    86a ->  90a  :     0.031527 
    86a ->  91a  :     0.120144 
    86a ->  92a  :     0.039090 
    86a ->  93a  :     0.032834 
    86a ->  94a  :     0.021860 
    87a ->  92a  :     0.012838 
    87a ->  93a  :     0.016523 
    87a ->  98a  :     0.057581 

STATE 26:  E=   0.211886 au      5.766 eV    46503.5 cm**-1 <S**2> =   0.000000
    85a ->  95a  :     0.015767 
    86a ->  90a  :     0.019321 
    86a ->  99a  :     0.024404 
    87a ->  95a  :     0.046946 
    87a ->  96a  :     0.176129 
    87a ->  97a  :     0.042367 
    87a ->  98a  :     0.121225 
    87a ->  99a  :     0.232112 
    87a -> 101a  :     0.138688 
    87a -> 105a  :     0.020793 
    87a -> 112a  :     0.017896 

STATE 27:  E=   0.177585 au      4.832 eV    38975.3 cm**-1 <S**2> =   0.000000
    80a ->  88a  :     0.196708 
    83a ->  88a  :     0.062798 
    85a ->  88a  :     0.018273 
    85a ->  89a  :     0.027820 
    85a ->  90a  :     0.132526 
    85a ->  94a  :     0.053856 
    86a ->  90a  :     0.291329 
    86a ->  94a  :     0.031280 
    87a ->  96a  :     0.012515 
    87a ->  98a  :     0.015788 
    87a ->  99a  :     0.012960 

STATE 28:  E=   0.175687 au      4.781 eV    38558.8 cm**-1 <S**2> =   0.000000
    80a ->  88a  :     0.143685 
    80a ->  91a  :     0.011002 
    82a ->  90a  :     0.012461 
    83a ->  88a  :     0.038450 
    83a ->  91a  :     0.010868 
    85a ->  88a  :     0.012468 
    85a ->  89a  :     0.016293 
    85a ->  90a  :     0.171556 
    85a ->  91a  :     0.018824 
    85a ->  94a  :     0.041111 
    86a ->  90a  :     0.258670 
    86a ->  91a  :     0.077098 
    86a ->  92a  :     0.039444 
    86a ->  94a  :     0.014280 
    87a ->  98a  :     0.015698 

STATE 29:  E=   0.178742 au      4.864 eV    39229.3 cm**-1 <S**2> =   0.000000
    82a ->  88a  :     0.803949 
    82a ->  89a  :     0.036794 
    82a ->  93a  :     0.038014 
    82a ->  94a  :     0.039555 

STATE 30:  E=   0.174223 au      4.741 eV    38237.6 cm**-1 <S**2> =   0.000000
    80a ->  93a  :     0.010540 
    81a ->  88a  :     0.026982 
    81a ->  89a  :     0.014722 
    81a ->  91a  :     0.041164 
    81a ->  92a  :     0.022328 
    81a ->  94a  :     0.019260 
    83a ->  88a  :     0.073796 
    83a ->  91a  :     0.028456 
    83a ->  94a  :     0.016127 
    85a ->  88a  :     0.023885 
    85a ->  89a  :     0.200602 
    85a ->  91a  :     0.046871 
    85a ->  92a  :     0.027951 
    85a ->  93a  :     0.010122 
    85a ->  94a  :     0.021463 
    86a ->  89a  :     0.146961 
    86a ->  90a  :     0.013476 
    86a ->  91a  :     0.056015 
    86a ->  92a  :     0.012806 
    86a ->  93a  :     0.063620 
    86a ->  94a  :     0.019436 


-------------------------
TD-DFT-EXCITATION SPECTRA
-------------------------

Center of mass = (  0.0071,  0.0311, -0.0005)
Calculating the Dipole integrals                  ... done
Transforming integrals                            ... done
Calculating the Linear Momentum integrals         ... done
Transforming integrals                            ... done
Calculating angular momentum integrals            ... done
Transforming integrals                            ... done

-----------------------------------------------------------------------------
         ABSORPTION SPECTRUM VIA TRANSITION ELECTRIC DIPOLE MOMENTS
-----------------------------------------------------------------------------
State   Energy    Wavelength  fosc         T2        TX        TY        TZ  
        (cm-1)      (nm)                 (au**2)    (au)      (au)      (au) 
-----------------------------------------------------------------------------
   1   21469.9    465.8   0.288809433   4.42851   2.06716   0.39399  -0.01192
   2   20605.1    485.3   0.127034671   2.02966   1.37592   0.36416  -0.06238
   3   22231.7    449.8   0.049320698   0.73035   0.65882   0.54372  -0.02599
   4   23533.9    424.9   0.039958456   0.55897   0.71935  -0.20240   0.02340
   5   32245.9    310.1   0.270689450   2.76358  -1.62293   0.35867  -0.03198
   6   27663.6    361.5   0.006572180   0.07821  -0.22466   0.14793   0.07655
   7   24667.6    405.4   0.003053626   0.04075  -0.17808   0.09051  -0.02910
   8   30025.7    333.0   0.003358935   0.03683   0.03306   0.12546  -0.14140
   9   34630.7    288.8   0.347726872   3.30562  -1.37951  -1.17253   0.16658
  10   46624.4    214.5   0.107985650   0.76248   0.73016   0.46699  -0.10615
  11   42238.9    236.7   0.281981389   2.19778  -1.41286  -0.42892   0.13277
  12   39018.6    256.3   0.479025690   4.04169   1.87268   0.62914   0.37276
  13   39558.4    252.8   0.067193014   0.55919  -0.43280   0.51164   0.33182
  14   35641.1    280.6   0.252437797   2.33173  -0.03139  -1.51345  -0.20051
  15   40253.9    248.4   0.261807165   2.14116   0.35163  -1.41960   0.04756
  16   35781.9    279.5   0.041251246   0.37953  -0.19475   0.57066  -0.12631
  17   40179.0    248.9   0.681629892   5.58502  -2.04907   1.17697  -0.03247
  18   39507.5    253.1   0.088717956   0.73928   0.27943   0.79858  -0.15317
  19   43605.4    229.3   0.549107748   4.14566   0.76999  -1.78766   0.59752
  20   47457.8    210.7   0.639576671   4.43671   0.31345  -0.93600  -1.86074
  21   41834.9    239.0   0.184670758   1.45323   0.62796  -1.02438   0.09769
  22   42070.8    237.7   0.057435736   0.44945  -0.27724  -0.44470  -0.41812
  23   38453.0    260.1   0.091936833   0.78711   0.26310   0.79577   0.29093
  24   46018.4    217.3   0.007656496   0.05477  -0.07002  -0.22095  -0.03240
  25   41097.1    243.3   0.056826995   0.45522   0.67442   0.01329   0.01391
  26   46503.5    215.0   0.001857050   0.01315   0.03297   0.04932   0.09812
  27   38975.3    256.6   0.029900586   0.25256  -0.47579   0.13627   0.08726
  28   38558.8    259.3   0.028083250   0.23977  -0.48574  -0.04159   0.04587
  29   39229.3    254.9   0.003545614   0.02975  -0.05243   0.02255  -0.16278
  30   38237.6    261.5   0.025705793   0.22132  -0.41520   0.21852   0.03431

-----------------------------------------------------------------------------
         ABSORPTION SPECTRUM VIA TRANSITION VELOCITY DIPOLE MOMENTS
-----------------------------------------------------------------------------
State   Energy    Wavelength   fosc        P2         PX        PY        PZ  
        (cm-1)      (nm)                 (au**2)     (au)      (au)      (au) 
-----------------------------------------------------------------------------
   1   21469.9    465.8   0.659567732   0.09678  -0.30549  -0.05879   0.00171
   2   20605.1    485.3   0.416168577   0.05861  -0.23367  -0.06241   0.01056
   3   22231.7    449.8   0.155827195   0.02368  -0.11920  -0.09719   0.00462
   4   23533.9    424.9   0.124737844   0.02006  -0.13624   0.03853  -0.00430
   5   32245.9    310.1   0.455767047   0.10044   0.30916  -0.06945   0.00629
   6   27663.6    361.5   0.016090559   0.00304   0.04373  -0.03003  -0.01511
   7   24667.6    405.4   0.009759225   0.00165   0.03459  -0.02042   0.00564
   8   30025.7    333.0   0.008244323   0.00169  -0.00799  -0.02720   0.02980
   9   34630.7    288.8   0.659326515   0.15605   0.29956   0.25492  -0.03648
  10   46624.4    214.5   0.115857956   0.03692  -0.16076  -0.10262   0.02333
  11   42238.9    236.7   0.378915256   0.10939   0.31572   0.09455  -0.02770
  12   39018.6    256.3   0.766779917   0.20448  -0.42178  -0.14240  -0.07938
  13   39558.4    252.8   0.098443348   0.02662   0.09887  -0.11471  -0.06068
  14   35641.1    280.6   0.521426356   0.12701   0.00807   0.35207   0.05473
  15   40253.9    248.4   0.430289534   0.11838  -0.08085   0.33424  -0.01112
  16   35781.9    279.5   0.089458133   0.02188   0.04697  -0.13685   0.03069
  17   40179.0    248.9   1.205213684   0.33096   0.49915  -0.28591   0.00761
  18   39507.5    253.1   0.173684995   0.04690  -0.07112  -0.20091   0.03839
  19   43605.4    229.3   0.906989671   0.27030  -0.19722   0.45623  -0.15252
  20   47457.8    210.7   0.898400021   0.29140  -0.08037   0.23950   0.47705
  21   41834.9    239.0   0.335515331   0.09593  -0.16105   0.26321  -0.02671
  22   42070.8    237.7   0.107826131   0.03100   0.07375   0.11680   0.10919
  23   38453.0    260.1   0.213821406   0.05619  -0.07031  -0.21285  -0.07711
  24   46018.4    217.3   0.012436562   0.00391   0.01926   0.05907   0.00714
  25   41097.1    243.3   0.119390086   0.03353  -0.18304  -0.00455  -0.00303
  26   46503.5    215.0   0.004399610   0.00140  -0.00924  -0.01300  -0.03382
  27   38975.3    256.6   0.072079961   0.01920   0.13099  -0.03793  -0.02459
  28   38558.8    259.3   0.069312252   0.01827   0.13415   0.01109  -0.01214
  29   39229.3    254.9   0.009087663   0.00244   0.01482  -0.00617   0.04668
  30   38237.6    261.5   0.066787749   0.01745   0.11643  -0.06167  -0.00969

-------------------------------------------------------------------
                             CD SPECTRUM
-------------------------------------------------------------------
State  Energy     Wavelength     R         MX        MY        MZ   
       (cm-1)       (nm)     (1e40*cgs)   (au)      (au)      (au)  
-------------------------------------------------------------------
   1   21469.9    465.8     18.72572   0.01552   0.04628   0.88921
   2   20605.1    485.3      9.19511   0.00890  -0.04867  -0.40055
   3   22231.7    449.8      7.04878   0.01324   0.00079  -0.22299
   4   23533.9    424.9    -46.60614  -0.07708   0.16668  -0.41333
   5   32245.9    310.1     46.01626  -0.06281   0.05356   0.73607
   6   27663.6    361.5     -3.15401   0.00869   0.14282  -0.33790
   7   24667.6    405.4      0.39007   0.01707   0.00518  -0.11682
   8   30025.7    333.0     10.61460   0.05827   0.06677  -0.08636
   9   34630.7    288.8    -127.61202   0.01058   0.19455  -0.16784
  10   46624.4    214.5    -36.54449  -0.00438  -0.12504   0.15002
  11   42238.9    236.7    -40.11626   0.02361   0.08748  -0.10702
  12   39018.6    256.3    -45.65039   0.01022   0.35136  -0.90414
  13   39558.4    252.8    -52.94186   0.08089  -0.00311  -0.22812
  14   35641.1    280.6    254.14023   0.05119  -0.55916   1.52405
  15   40253.9    248.4    -11.94279   0.01517  -0.02880  -1.50447
  16   35781.9    279.5    -45.86349  -0.00002  -0.12468   0.20691
  17   40179.0    248.9     31.83163  -0.01399   0.03985   0.24790
  18   39507.5    253.1    -234.77793  -0.02577  -0.32653   1.50180
  19   43605.4    229.3    652.67427  -0.45587  -0.94468   0.07805
  20   47457.8    210.7    -343.00388   1.21829   1.34145  -0.07855
  21   41834.9    239.0     75.58833  -0.20247  -0.27313   0.07864
  22   42070.8    237.7    -85.96888   0.03306  -0.49540   0.94108
  23   38453.0    260.1     20.41603  -0.02754   0.24864  -0.50635
  24   46018.4    217.3     24.04577   0.12505  -0.32047   0.34093
  25   41097.1    243.3     -6.62168  -0.00501  -0.06260  -0.70709
  26   46503.5    215.0     -4.93106  -0.01244  -0.01992  -0.09241
  27   38975.3    256.6    -23.62373   0.07200  -0.01816  -0.15329
  28   38558.8    259.3     19.75320  -0.08631   0.03621   0.03227
  29   39229.3    254.9      6.93704   0.11882   0.20625  -0.10010
  30   38237.6    261.5      5.77121  -0.01960   0.02168  -0.01852

Total run time:     2510.105 sec

           *** ORCA-CIS/TD-DFT FINISHED WITHOUT ERROR ***

Maximum memory used throughout the entire CIS-calculation: 3936.9 MB

-----------------------
CIS/TD-DFT TOTAL ENERGY
-----------------------

    E(SCF)  =  -1051.722195503 Eh
    DE(CIS) =      0.097823936 Eh (Root  1)
    ----------------------------- ---------
    E(tot)  =  -1051.624371567 Eh



-------------------------------------------------------------------------------
                          DFT DISPERSION CORRECTION                            
                                                                               
                              DFTD3 V3.1  Rev 1                                
                          USING Becke-Johnson damping                          
-------------------------------------------------------------------------------
The DSD-BLYP functional is recognized
Active option DFTDOPT                   ...         4   

molecular C6(AA) [au] = 24633.249097 


            DFT-D V3
 parameters
 s6 scaling factor         :     0.5000 
 a1 scaling factor         :     0.0000 
 s8 scaling factor         :     0.2130 
 a2 scaling factor         :     6.0520 
 ad hoc parameters k1-k3   :    16.0000     1.3333    -4.0000 

 Edisp/kcal,au: -25.821612672765  -0.041149354688 
 E6   /kcal   : -20.028199293 
 E8   /kcal   :  -5.793413380 
 % E8         :  22.436295724 

-------------------------   ----------------
Dispersion correction           -0.041149355
-------------------------   ----------------


-------------------------   --------------------
FINAL SINGLE POINT ENERGY     -1051.665520921754
-------------------------   --------------------


                            ***************************************
                            *     ORCA property calculations      *
                            ***************************************


  WARNING: The energy has been calculated at the MP2 level but the densities
           used in the property calculations are still SCF densities
           MP2 response densities have not been calculated 
           use %mp2 Density relaxed end
           or  %mp2 Density unrelaxed end

                                    ---------------------
                                    Active property flags
                                    ---------------------
   (+) Dipole Moment


------------------------------------------------------------------------------
                       ORCA ELECTRIC PROPERTIES CALCULATION
------------------------------------------------------------------------------

Dipole Moment Calculation                       ... on
Quadrupole Moment Calculation                   ... off
Polarizability Calculation                      ... off
GBWName                                         ... POZ_3_M06L_def2TZVP_coords.gbw
Electron density                                ... POZ_3_M06L_def2TZVP_coords.scfp
The origin for moment calculation is the CENTER OF MASS  = ( 0.007074,  0.031141 -0.000544)

-------------
DIPOLE MOMENT
-------------
                                X             Y             Z
Electronic contribution:      2.08413       4.41677      -0.07183
Nuclear contribution   :     -1.24498      -5.48076       0.09574
                        -----------------------------------------
Total Dipole Moment    :      0.83915      -1.06399       0.02391
                        -----------------------------------------
Magnitude (a.u.)       :      1.35529
Magnitude (Debye)      :      3.44487



--------------------
Rotational spectrum 
--------------------
 
Rotational constants in cm-1:     0.011848     0.003953     0.003079 
Rotational constants in MHz :   355.195780   118.521258    92.295779 

 Dipole components along the rotational axes: 
x,y,z [a.u.] :     0.836565    -1.066094     0.020323 
x,y,z [Debye]:     2.126379    -2.709796     0.051658 

 

Timings for individual modules:

Sum of individual times         ...     2872.254 sec (=  47.871 min)
GTO integral calculation        ...        1.442 sec (=   0.024 min)   0.1 %
SCF iterations                  ...      204.387 sec (=   3.406 min)   7.1 %
MP2 module                      ...      155.676 sec (=   2.595 min)   5.4 %
CIS module                      ...     2510.749 sec (=  41.846 min)  87.4 %
                             ****ORCA TERMINATED NORMALLY****
TOTAL RUN TIME: 0 days 0 hours 47 minutes 53 seconds 684 msec
