
                                 *****************
                                 * O   R   C   A *
                                 *****************

                                            #,                                       
                                            ###                                      
                                            ####                                     
                                            #####                                    
                                            ######                                   
                                           ########,                                 
                                     ,,################,,,,,                         
                               ,,#################################,,                 
                          ,,##########################################,,             
                       ,#########################################, ''#####,          
                    ,#############################################,,   '####,        
                  ,##################################################,,,,####,       
                ,###########''''           ''''###############################       
              ,#####''   ,,,,##########,,,,          '''####'''          '####       
            ,##' ,,,,###########################,,,                        '##       
           ' ,,###''''                  '''############,,,                           
         ,,##''                                '''############,,,,        ,,,,,,###''
      ,#''                                            '''#######################'''  
     '                                                          ''''####''''         
             ,#######,   #######,   ,#######,      ##                                
            ,#'     '#,  ##    ##  ,#'     '#,    #''#        ######   ,####,        
            ##       ##  ##   ,#'  ##            #'  '#       #        #'  '#        
            ##       ##  #######   ##           ,######,      #####,   #    #        
            '#,     ,#'  ##    ##  '#,     ,#' ,#      #,         ##   #,  ,#        
             '#######'   ##     ##  '#######'  #'      '#     #####' # '####'        



                  #######################################################
                  #                        -***-                        #
                  #          Department of theory and spectroscopy      #
                  #    Directorship and core code : Frank Neese         #
                  #        Max Planck Institute fuer Kohlenforschung    #
                  #                Kaiser Wilhelm Platz 1               #
                  #                 D-45470 Muelheim/Ruhr               #
                  #                      Germany                        #
                  #                                                     #
                  #                  All rights reserved                #
                  #                        -***-                        #
                  #######################################################


                         Program Version 5.0.2 -  RELEASE  -


 With contributions from (in alphabetic order):
   Daniel Aravena         : Magnetic Suceptibility
   Michael Atanasov       : Ab Initio Ligand Field Theory (pilot matlab implementation)
   Alexander A. Auer      : GIAO ZORA, VPT2 properties, NMR spectrum
   Ute Becker             : Parallelization
   Giovanni Bistoni       : ED, misc. LED, open-shell LED, HFLD
   Martin Brehm           : Molecular dynamics
   Dmytro Bykov           : SCF Hessian
   Vijay G. Chilkuri      : MRCI spin determinant printing, contributions to CSF-ICE
   Dipayan Datta          : RHF DLPNO-CCSD density
   Achintya Kumar Dutta   : EOM-CC, STEOM-CC
   Dmitry Ganyushin       : Spin-Orbit,Spin-Spin,Magnetic field MRCI
   Miquel Garcia          : C-PCM and meta-GGA Hessian, CC/C-PCM, Gaussian charge scheme
   Yang Guo               : DLPNO-NEVPT2, F12-NEVPT2, CIM, IAO-localization
   Andreas Hansen         : Spin unrestricted coupled pair/coupled cluster methods
   Benjamin Helmich-Paris : MC-RPA, TRAH-SCF, COSX integrals
   Lee Huntington         : MR-EOM, pCC
   Robert Izsak           : Overlap fitted RIJCOSX, COSX-SCS-MP3, EOM
   Marcus Kettner         : VPT2
   Christian Kollmar      : KDIIS, OOCD, Brueckner-CCSD(T), CCSD density, CASPT2, CASPT2-K
   Simone Kossmann        : Meta GGA functionals, TD-DFT gradient, OOMP2, MP2 Hessian
   Martin Krupicka        : Initial AUTO-CI
   Lucas Lang             : DCDCAS
   Marvin Lechner         : AUTO-CI (C++ implementation), FIC-MRCC
   Dagmar Lenk            : GEPOL surface, SMD
   Dimitrios Liakos       : Extrapolation schemes; Compound Job, initial MDCI parallelization
   Dimitrios Manganas     : Further ROCIS development; embedding schemes
   Dimitrios Pantazis     : SARC Basis sets
   Anastasios Papadopoulos: AUTO-CI, single reference methods and gradients
   Taras Petrenko         : DFT Hessian,TD-DFT gradient, ASA, ECA, R-Raman, ABS, FL, XAS/XES, NRVS
   Peter Pinski           : DLPNO-MP2, DLPNO-MP2 Gradient
   Christoph Reimann      : Effective Core Potentials
   Marius Retegan         : Local ZFS, SOC
   Christoph Riplinger    : Optimizer, TS searches, QM/MM, DLPNO-CCSD(T), (RO)-DLPNO pert. Triples
   Tobias Risthaus        : Range-separated hybrids, TD-DFT gradient, RPA, STAB
   Michael Roemelt        : Original ROCIS implementation
   Masaaki Saitow         : Open-shell DLPNO-CCSD energy and density
   Barbara Sandhoefer     : DKH picture change effects
   Avijit Sen             : IP-ROCIS
   Kantharuban Sivalingam : CASSCF convergence, NEVPT2, FIC-MRCI
   Bernardo de Souza      : ESD, SOC TD-DFT
   Georgi Stoychev        : AutoAux, RI-MP2 NMR, DLPNO-MP2 response
   Willem Van den Heuvel  : Paramagnetic NMR
   Boris Wezisla          : Elementary symmetry handling
   Frank Wennmohs         : Technical directorship


 We gratefully acknowledge several colleagues who have allowed us to
 interface, adapt or use parts of their codes:
   Stefan Grimme, W. Hujo, H. Kruse, P. Pracht,  : VdW corrections, initial TS optimization,
                  C. Bannwarth, S. Ehlert          DFT functionals, gCP, sTDA/sTD-DF
   Ed Valeev, F. Pavosevic, A. Kumar             : LibInt (2-el integral package), F12 methods
   Garnet Chan, S. Sharma, J. Yang, R. Olivares  : DMRG
   Ulf Ekstrom                                   : XCFun DFT Library
   Mihaly Kallay                                 : mrcc  (arbitrary order and MRCC methods)
   Jiri Pittner, Ondrej Demel                    : Mk-CCSD
   Frank Weinhold                                : gennbo (NPA and NBO analysis)
   Christopher J. Cramer and Donald G. Truhlar   : smd solvation model
   Lars Goerigk                                  : TD-DFT with DH, B97 family of functionals
   V. Asgeirsson, H. Jonsson                     : NEB implementation
   FAccTs GmbH                                   : IRC, NEB, NEB-TS, DLPNO-Multilevel, CI-OPT
                                                   MM, QMMM, 2- and 3-layer-ONIOM, Crystal-QMMM,
                                                   LR-CPCM, SF, NACMEs, symmetry and pop. for TD-DFT,
                                                   nearIR, NL-DFT gradient (VV10), updates on ESD,
                                                   ML-optimized integration grids
   S Lehtola, MJT Oliveira, MAL Marques          : LibXC Library
   Liviu Ungur et al                             : ANISO software


 Your calculation uses the libint2 library for the computation of 2-el integrals
 For citations please refer to: http://libint.valeyev.net

 Your ORCA version has been built with support for libXC version: 5.1.0
 For citations please refer to: https://tddft.org/programs/libxc/

 This ORCA versions uses:
   CBLAS   interface :  Fast vector & matrix operations
   LAPACKE interface :  Fast linear algebra routines
   SCALAPACK package :  Parallel linear algebra routines
   Shared memory     :  Shared parallel matrices
   BLAS/LAPACK       :  OpenBLAS 0.3.15  USE64BITINT DYNAMIC_ARCH NO_AFFINITY Zen SINGLE_THREADED
        Core in use  :  Zen
   Copyright (c) 2011-2014, The OpenBLAS Project


Your calculation utilizes the SMD solvation module
Please cite in your paper:
A.V. Marenich, C.J. Cramer, D.G. Truhlar J. Phys. Chem. B, 113, (2009), 6378 

================================================================================

----- Orbital basis set information -----
Your calculation utilizes the basis: def2-TZVP
   F. Weigend and R. Ahlrichs, Phys. Chem. Chem. Phys. 7, 3297 (2005).

----- AuxJ basis set information -----
Your calculation utilizes the auxiliary basis: def2/J
   F. Weigend, Phys. Chem. Chem. Phys. 8, 1057 (2006).

----- AuxC basis set information -----
Your calculation utilizes the auxiliary basis: def2-TZVP/C
  H-La, Hf-Rn : A. Hellweg, C. Hattig, S. Hofener and W. Klopper, Theor. Chem. Acc. 117, 587 (2007).
        Ce-Lu : J. Chmela and M. E. Harding, Mol. Phys. (2018).

================================================================================
                                        WARNINGS
                       Please study these warnings very carefully!
================================================================================

INFO   : Checking CIS options ...
  ===> : (D) CORRECTION FOUND - SETTING MODE=3
  ===> : JK MODE FOUND - ACTIVATING RI-MP2 CODE
  ===> : MP2 AND CIS FOUND - CHECKING
WARNING: CIS(D) and MP2 runs must have the same orbital window
  ===> : adjusting orbital windows

WARNING: No MP2 level density has been requested!
         To caclulate MP2 level properties use
         %mp2 Density relaxed end
         or
         %mp2 Density unrelaxed end
         Otherwise for double-hybrid DFT only the energy is correct!

WARNING: The frozen-core approximation is turned on by default for 
         the MP2 part of double-hybrid DFT.

WARNING:  You are using a Range-Separated Double Hybrid functional with Doubles Correction 
          Changing Mode to RPA_AOINTS 


WARNING: CIS/ROCIS methods need fully converged wavefunctions
  ===> : Setting SCFConvForced true
         You can overwrite this default with %scf ConvForced false 


INFO   : the flag for use of the SHARK integral package has been found!

================================================================================
                                       INPUT FILE
================================================================================
NAME = POZ_3_M06L_def2TZVP_coords.inp
|  1> %maxcore 3200
|  2> %pal
|  3>  nprocs= 8
|  4> end
|  5> ! RI-wB2PLYP def2-TZVP def2/J def2-TZVP/C RIJCOSX CPCM TightSCF
|  6> %TDDFT DCORR 1
|  7>    NROOTS   30
|  8> 
|  9>    TDA      FALSE
| 10> END
| 11> 
| 12> %CPCM
| 13>    SMD          TRUE
| 14>    SMDsolvent   "N,N-DIMETHYLACETAMIDE"
| 15> END
| 16>    
| 17> 
| 18> * xyz 0 1
| 19> C                  -1.77287600   -1.35290100    0.04927200
| 20> C                  -0.38655800   -1.33546100    0.05687600
| 21> C                   0.31713100   -0.13550500    0.01799500
| 22> C                  -0.42657000    1.05026400   -0.02028800
| 23> C                  -1.80223600    1.03245700   -0.02356400
| 24> C                  -2.51487900   -0.17444200    0.00877600
| 25> C                   1.55242600    2.33240000   -0.07729200
| 26> C                   2.33607700    1.17268300   -0.03649500
| 27> C                   3.72042600    1.31510000   -0.05766600
| 28> H                   4.34163800    0.42960600   -0.03043400
| 29> C                   4.30568100    2.57480400   -0.11330800
| 30> C                   3.51783900    3.71078700   -0.15074400
| 31> C                   2.13280100    3.58226600   -0.13349100
| 32> H                   0.16140500   -2.26725900    0.10139500
| 33> H                  -2.31851800    1.98254400   -0.07522300
| 34> H                   5.38485300    2.65502700   -0.12756000
| 35> N                   1.70692600   -0.07105400    0.01957700
| 36> C                   2.48271500   -1.27074200    0.04991400
| 37> C                   2.91959600   -1.77718600    1.26655200
| 38> C                   2.79262400   -1.92192700   -1.13659900
| 39> C                   3.67201600   -2.94187600    1.29384600
| 40> C                   3.54287700   -3.08775400   -1.10284700
| 41> H                   2.44196000   -1.51143200   -2.07565800
| 42> C                   3.98307700   -3.59737100    0.11078900
| 43> H                   3.78475800   -3.59804000   -2.02652800
| 44> H                   4.56955800   -4.50706000    0.13448500
| 45> H                   1.48616700    4.44991500   -0.16340800
| 46> H                  -2.27814100   -2.30859900    0.10115700
| 47> C                  -3.98532100   -0.18604700    0.00710000
| 48> C                  -4.72060700    0.88578800    0.52629200
| 49> C                  -4.69910300   -1.27190800   -0.51359100
| 50> C                  -6.10566800    0.87166200    0.52639000
| 51> H                  -4.19959600    1.73310000    0.95507400
| 52> C                  -6.08380400   -1.28632600   -0.51190300
| 53> H                  -4.16086900   -2.10705400   -0.94474000
| 54> C                  -6.79677700   -0.21450900    0.00781700
| 55> H                  -6.64843700    1.71203100    0.94169500
| 56> H                  -6.60963400   -2.13690300   -0.92821800
| 57> O                   0.18029500    2.28110200   -0.06225700
| 58> H                   3.96561100    4.69459300   -0.19412300
| 59> H                  -7.87940400   -0.22533900    0.00766700
| 60> H                   4.01447300   -3.33805600    2.24136100
| 61> H                   2.66800800   -1.25404800    2.18107200
| 62> *
| 63> 
| 64> 
| 65>                          ****END OF INPUT****
================================================================================

                       ****************************
                       * Single Point Calculation *
                       ****************************

---------------------------------
CARTESIAN COORDINATES (ANGSTROEM)
---------------------------------
  C     -1.772876   -1.352901    0.049272
  C     -0.386558   -1.335461    0.056876
  C      0.317131   -0.135505    0.017995
  C     -0.426570    1.050264   -0.020288
  C     -1.802236    1.032457   -0.023564
  C     -2.514879   -0.174442    0.008776
  C      1.552426    2.332400   -0.077292
  C      2.336077    1.172683   -0.036495
  C      3.720426    1.315100   -0.057666
  H      4.341638    0.429606   -0.030434
  C      4.305681    2.574804   -0.113308
  C      3.517839    3.710787   -0.150744
  C      2.132801    3.582266   -0.133491
  H      0.161405   -2.267259    0.101395
  H     -2.318518    1.982544   -0.075223
  H      5.384853    2.655027   -0.127560
  N      1.706926   -0.071054    0.019577
  C      2.482715   -1.270742    0.049914
  C      2.919596   -1.777186    1.266552
  C      2.792624   -1.921927   -1.136599
  C      3.672016   -2.941876    1.293846
  C      3.542877   -3.087754   -1.102847
  H      2.441960   -1.511432   -2.075658
  C      3.983077   -3.597371    0.110789
  H      3.784758   -3.598040   -2.026528
  H      4.569558   -4.507060    0.134485
  H      1.486167    4.449915   -0.163408
  H     -2.278141   -2.308599    0.101157
  C     -3.985321   -0.186047    0.007100
  C     -4.720607    0.885788    0.526292
  C     -4.699103   -1.271908   -0.513591
  C     -6.105668    0.871662    0.526390
  H     -4.199596    1.733100    0.955074
  C     -6.083804   -1.286326   -0.511903
  H     -4.160869   -2.107054   -0.944740
  C     -6.796777   -0.214509    0.007817
  H     -6.648437    1.712031    0.941695
  H     -6.609634   -2.136903   -0.928218
  O      0.180295    2.281102   -0.062257
  H      3.965611    4.694593   -0.194123
  H     -7.879404   -0.225339    0.007667
  H      4.014473   -3.338056    2.241361
  H      2.668008   -1.254048    2.181072

----------------------------
CARTESIAN COORDINATES (A.U.)
----------------------------
  NO LB      ZA    FRAG     MASS         X           Y           Z
   0 C     6.0000    0    12.011   -3.350250   -2.556612    0.093111
   1 C     6.0000    0    12.011   -0.730489   -2.523656    0.107480
   2 C     6.0000    0    12.011    0.599291   -0.256067    0.034006
   3 C     6.0000    0    12.011   -0.806100    1.984711   -0.038339
   4 C     6.0000    0    12.011   -3.405732    1.951061   -0.044530
   5 C     6.0000    0    12.011   -4.752433   -0.329648    0.016584
   6 C     6.0000    0    12.011    2.933660    4.407597   -0.146061
   7 C     6.0000    0    12.011    4.414546    2.216050   -0.068966
   8 C     6.0000    0    12.011    7.030586    2.485179   -0.108973
   9 H     1.0000    0     1.008    8.204507    0.811838   -0.057512
  10 C     6.0000    0    12.011    8.136558    4.865674   -0.214121
  11 C     6.0000    0    12.011    6.647752    7.012371   -0.284865
  12 C     6.0000    0    12.011    4.030410    6.769502   -0.252261
  13 H     1.0000    0     1.008    0.305011   -4.284499    0.191609
  14 H     1.0000    0     1.008   -4.381364    3.746465   -0.142151
  15 H     1.0000    0     1.008   10.175897    5.017274   -0.241053
  16 N     7.0000    0    14.007    3.225623   -0.134273    0.036995
  17 C     6.0000    0    12.011    4.691651   -2.401354    0.094324
  18 C     6.0000    0    12.011    5.517237   -3.358395    2.393436
  19 C     6.0000    0    12.011    5.277295   -3.631916   -2.147861
  20 C     6.0000    0    12.011    6.939105   -5.559340    2.445015
  21 C     6.0000    0    12.011    6.695067   -5.835009   -2.084079
  22 H     1.0000    0     1.008    4.614636   -2.856193   -3.922425
  23 C     6.0000    0    12.011    7.526925   -6.798046    0.209361
  24 H     1.0000    0     1.008    7.152156   -6.799310   -3.829583
  25 H     1.0000    0     1.008    8.635213   -8.517109    0.254140
  26 H     1.0000    0     1.008    2.808449    8.409121   -0.308796
  27 H     1.0000    0     1.008   -4.305063   -4.362620    0.191159
  28 C     6.0000    0    12.011   -7.531165   -0.351578    0.013417
  29 C     6.0000    0    12.011   -8.920654    1.673897    0.994548
  30 C     6.0000    0    12.011   -8.880018   -2.403558   -0.970546
  31 C     6.0000    0    12.011  -11.538040    1.647202    0.994733
  32 H     1.0000    0     1.008   -7.936086    3.275084    1.804828
  33 C     6.0000    0    12.011  -11.496723   -2.430804   -0.967356
  34 H     1.0000    0     1.008   -7.862903   -3.981755   -1.785300
  35 C     6.0000    0    12.011  -12.844047   -0.405363    0.014772
  36 H     1.0000    0     1.008  -12.563725    3.235270    1.779546
  37 H     1.0000    0     1.008  -12.490398   -4.038161   -1.754078
  38 O     8.0000    0    15.999    0.340708    4.310658   -0.117649
  39 H     1.0000    0     1.008    7.493919    8.871495   -0.366839
  40 H     1.0000    0     1.008  -14.889916   -0.425829    0.014489
  41 H     1.0000    0     1.008    7.586255   -6.308012    4.235558
  42 H     1.0000    0     1.008    5.041804   -2.369807    4.121629

--------------------------------
INTERNAL COORDINATES (ANGSTROEM)
--------------------------------
 C      0   0   0     0.000000000000     0.00000000     0.00000000
 C      1   0   0     1.386448546301     0.00000000     0.00000000
 C      2   1   0     1.391612138068   121.08507495     0.00000000
 C      3   2   1     1.400216014353   117.54247717     0.40037470
 C      4   3   2     1.375785144919   121.34508310   359.80582046
 C      1   2   3     1.393188426849   121.47070583   359.70144130
 C      4   3   2     2.358717309583    90.87989686   180.37253176
 C      7   4   3     1.400255978419    91.06870315   359.84986980
 C      8   7   4     1.391816427167   118.12881999   179.53500570
 H      9   8   7     1.082009960584   119.13863033   180.22220593
 C      9   8   7     1.390134387318   120.80247604     0.20862271
 C     11   9   8     1.382951137007   120.37073988   359.89875089
 C      7   4   3     1.379187618195   147.84957816   179.36065913
 H      2   1   3     1.081893203387   119.72446389   179.52281139
 H      5   4   3     1.082534555279   117.75115834   181.26777074
 H     11   9   8     1.082243528425   119.17704488   179.93620154
 N      3   2   1     1.391289537138   123.02701119   180.21380686
 C     17   3   2     1.428992723366   120.22798589     0.58211434
 C     18  17   3     1.388365426082   119.71460329   266.26472363
 C     18  17   3     1.388487879556   119.78609513    86.18986055
 C     19  18  17     1.386861065477   119.62412873   179.97844394
 C     20  18  17     1.386784538219   119.61815304   180.16068682
 H     20  18  17     1.083191207222   119.39586346     0.03152460
 C     21  19  18     1.387824378657   120.09790414   359.86882179
 H     22  20  18     1.082628657351   119.75857867   179.92197605
 H     24  21  19     1.082615139603   119.97597809   180.07296324
 H     13   7   4     1.082518057145   118.43190826     0.57638208
 H      1   2   3     1.082286210138   118.53206111   181.24003881
 C      6   1   2     1.470488748806   121.73114503   180.30224696
 C     29   6   1     1.399655708339   121.25517477   152.32132681
 C     29   6   1     1.399892128818   121.09194005   332.38169006
 C     30  29   6     1.385133035921   121.16622531   180.14012193
 H     30  29   6     1.083163926185   119.55058948   358.83403459
 C     31  29   6     1.384777089451   121.16325354   179.78451536
 H     31  29   6     1.083076239363   119.52425217   358.47743341
 C     32  30  29     1.387918242351   120.38946952     0.00000000
 H     32  30  29     1.083188112263   119.54938991   179.53961257
 H     34  31  29     1.083188165119   119.54633808   179.54902794
 O      4   3   2     1.372956192830   121.68546070   180.10285555
 H     12  11   9     1.081783595393   120.81754807   180.00084343
 H     36  32  30     1.082681177692   120.38457419   180.01815004
 H     21  19  18     1.082598755068   119.74707345   179.94480162
 H     19  18  17     1.083197451616   119.37937551   359.87762394

---------------------------
INTERNAL COORDINATES (A.U.)
---------------------------
 C      0   0   0     0.000000000000     0.00000000     0.00000000
 C      1   0   0     2.620008051282     0.00000000     0.00000000
 C      2   1   0     2.629765825589   121.08507495     0.00000000
 C      3   2   1     2.646024795458   117.54247717     0.40037470
 C      4   3   2     2.599857143015   121.34508310   359.80582046
 C      1   2   3     2.632744579693   121.47070583   359.70144130
 C      4   3   2     4.457329742452    90.87989686   180.37253176
 C      7   4   3     2.646100316598    91.06870315   359.84986980
 C      8   7   4     2.630151876038   118.12881999   179.53500570
 H      9   8   7     2.044702499680   119.13863033   180.22220593
 C      9   8   7     2.626973281378   120.80247604     0.20862271
 C     11   9   8     2.613398905538   120.37073988   359.89875089
 C      7   4   3     2.606286885683   147.84957816   179.36065913
 H      2   1   3     2.044481860551   119.72446389   179.52281139
 H      5   4   3     2.045693839984   117.75115834   181.26777074
 H     11   9   8     2.045143878931   119.17704488   179.93620154
 N      3   2   1     2.629156198181   123.02701119   180.21380686
 C     17   3   2     2.700404894529   120.22798589     0.58211434
 C     18  17   3     2.623630429101   119.71460329   266.26472363
 C     18  17   3     2.623861832631   119.78609513    86.18986055
 C     19  18  17     2.620787599550   119.62412873   179.97844394
 C     20  18  17     2.620642983989   119.61815304   180.16068682
 H     20  18  17     2.046934732320   119.39586346     0.03152460
 C     21  19  18     2.622607997641   120.09790414   359.86882179
 H     22  20  18     2.045871667129   119.75857867   179.92197605
 H     24  21  19     2.045846122287   119.97597809   180.07296324
 H     13   7   4     2.045662663029   118.43190826     0.57638208
 H      1   2   3     2.045224535680   118.53206111   181.24003881
 C      6   1   2     2.778821018256   121.73114503   180.30224696
 C     29   6   1     2.644965970540   121.25517477   152.32132681
 C     29   6   1     2.645412740498   121.09194005   332.38169006
 C     30  29   6     2.617522096938   121.16622531   180.14012193
 H     30  29   6     2.046883178633   119.55058948   358.83403459
 C     31  29   6     2.616849455591   121.16325354   179.78451536
 H     31  29   6     2.046717474554   119.52425217   358.47743341
 C     32  30  29     2.622785374317   120.38946952     0.00000000
 H     32  30  29     2.046928883695   119.54938991   179.53961257
 H     34  31  29     2.046928983580   119.54633808   179.54902794
 O      4   3   2     2.594511198320   121.68546070   180.10285555
 H     12  11   9     2.044274731461   120.81754807   180.00084343
 H     36  32  30     2.045970916190   120.38457419   180.01815004
 H     21  19  18     2.045815160002   119.74707345   179.94480162
 H     19  18  17     2.046946532516   119.37937551   359.87762394

---------------------
BASIS SET INFORMATION
---------------------
There are 4 groups of distinct atoms

 Group   1 Type C   : 11s6p2d1f contracted to 5s3p2d1f pattern {62111/411/11/1}
 Group   2 Type H   : 5s1p contracted to 3s1p pattern {311/1}
 Group   3 Type N   : 11s6p2d1f contracted to 5s3p2d1f pattern {62111/411/11/1}
 Group   4 Type O   : 11s6p2d1f contracted to 5s3p2d1f pattern {62111/411/11/1}

Atom   0C    basis set group =>   1
Atom   1C    basis set group =>   1
Atom   2C    basis set group =>   1
Atom   3C    basis set group =>   1
Atom   4C    basis set group =>   1
Atom   5C    basis set group =>   1
Atom   6C    basis set group =>   1
Atom   7C    basis set group =>   1
Atom   8C    basis set group =>   1
Atom   9H    basis set group =>   2
Atom  10C    basis set group =>   1
Atom  11C    basis set group =>   1
Atom  12C    basis set group =>   1
Atom  13H    basis set group =>   2
Atom  14H    basis set group =>   2
Atom  15H    basis set group =>   2
Atom  16N    basis set group =>   3
Atom  17C    basis set group =>   1
Atom  18C    basis set group =>   1
Atom  19C    basis set group =>   1
Atom  20C    basis set group =>   1
Atom  21C    basis set group =>   1
Atom  22H    basis set group =>   2
Atom  23C    basis set group =>   1
Atom  24H    basis set group =>   2
Atom  25H    basis set group =>   2
Atom  26H    basis set group =>   2
Atom  27H    basis set group =>   2
Atom  28C    basis set group =>   1
Atom  29C    basis set group =>   1
Atom  30C    basis set group =>   1
Atom  31C    basis set group =>   1
Atom  32H    basis set group =>   2
Atom  33C    basis set group =>   1
Atom  34H    basis set group =>   2
Atom  35C    basis set group =>   1
Atom  36H    basis set group =>   2
Atom  37H    basis set group =>   2
Atom  38O    basis set group =>   4
Atom  39H    basis set group =>   2
Atom  40H    basis set group =>   2
Atom  41H    basis set group =>   2
Atom  42H    basis set group =>   2
---------------------------------
AUXILIARY/J BASIS SET INFORMATION
---------------------------------
There are 4 groups of distinct atoms

 Group   1 Type C   : 12s5p4d2f1g contracted to 6s4p3d1f1g pattern {711111/2111/211/2/1}
 Group   2 Type H   : 5s2p1d contracted to 3s1p1d pattern {311/2/1}
 Group   3 Type N   : 12s5p4d2f1g contracted to 6s4p3d1f1g pattern {711111/2111/211/2/1}
 Group   4 Type O   : 12s5p4d2f1g contracted to 6s4p3d1f1g pattern {711111/2111/211/2/1}

Atom   0C    basis set group =>   1
Atom   1C    basis set group =>   1
Atom   2C    basis set group =>   1
Atom   3C    basis set group =>   1
Atom   4C    basis set group =>   1
Atom   5C    basis set group =>   1
Atom   6C    basis set group =>   1
Atom   7C    basis set group =>   1
Atom   8C    basis set group =>   1
Atom   9H    basis set group =>   2
Atom  10C    basis set group =>   1
Atom  11C    basis set group =>   1
Atom  12C    basis set group =>   1
Atom  13H    basis set group =>   2
Atom  14H    basis set group =>   2
Atom  15H    basis set group =>   2
Atom  16N    basis set group =>   3
Atom  17C    basis set group =>   1
Atom  18C    basis set group =>   1
Atom  19C    basis set group =>   1
Atom  20C    basis set group =>   1
Atom  21C    basis set group =>   1
Atom  22H    basis set group =>   2
Atom  23C    basis set group =>   1
Atom  24H    basis set group =>   2
Atom  25H    basis set group =>   2
Atom  26H    basis set group =>   2
Atom  27H    basis set group =>   2
Atom  28C    basis set group =>   1
Atom  29C    basis set group =>   1
Atom  30C    basis set group =>   1
Atom  31C    basis set group =>   1
Atom  32H    basis set group =>   2
Atom  33C    basis set group =>   1
Atom  34H    basis set group =>   2
Atom  35C    basis set group =>   1
Atom  36H    basis set group =>   2
Atom  37H    basis set group =>   2
Atom  38O    basis set group =>   4
Atom  39H    basis set group =>   2
Atom  40H    basis set group =>   2
Atom  41H    basis set group =>   2
Atom  42H    basis set group =>   2
---------------------------------
AUXILIARY/C BASIS SET INFORMATION
---------------------------------
There are 4 groups of distinct atoms

 Group   1 Type C   : 8s6p5d3f1g contracted to 8s6p4d3f1g pattern {11111111/111111/2111/111/1}
 Group   2 Type H   : 4s3p2d contracted to 4s2p1d pattern {1111/21/2}
 Group   3 Type N   : 8s6p5d3f1g contracted to 8s6p4d3f1g pattern {11111111/111111/2111/111/1}
 Group   4 Type O   : 8s6p5d3f1g contracted to 8s6p4d3f1g pattern {11111111/111111/2111/111/1}

Atom   0C    basis set group =>   1
Atom   1C    basis set group =>   1
Atom   2C    basis set group =>   1
Atom   3C    basis set group =>   1
Atom   4C    basis set group =>   1
Atom   5C    basis set group =>   1
Atom   6C    basis set group =>   1
Atom   7C    basis set group =>   1
Atom   8C    basis set group =>   1
Atom   9H    basis set group =>   2
Atom  10C    basis set group =>   1
Atom  11C    basis set group =>   1
Atom  12C    basis set group =>   1
Atom  13H    basis set group =>   2
Atom  14H    basis set group =>   2
Atom  15H    basis set group =>   2
Atom  16N    basis set group =>   3
Atom  17C    basis set group =>   1
Atom  18C    basis set group =>   1
Atom  19C    basis set group =>   1
Atom  20C    basis set group =>   1
Atom  21C    basis set group =>   1
Atom  22H    basis set group =>   2
Atom  23C    basis set group =>   1
Atom  24H    basis set group =>   2
Atom  25H    basis set group =>   2
Atom  26H    basis set group =>   2
Atom  27H    basis set group =>   2
Atom  28C    basis set group =>   1
Atom  29C    basis set group =>   1
Atom  30C    basis set group =>   1
Atom  31C    basis set group =>   1
Atom  32H    basis set group =>   2
Atom  33C    basis set group =>   1
Atom  34H    basis set group =>   2
Atom  35C    basis set group =>   1
Atom  36H    basis set group =>   2
Atom  37H    basis set group =>   2
Atom  38O    basis set group =>   4
Atom  39H    basis set group =>   2
Atom  40H    basis set group =>   2
Atom  41H    basis set group =>   2
Atom  42H    basis set group =>   2


           ************************************************************
           *        Program running with 8 parallel MPI-processes     *
           *              working on a common directory               *
           ************************************************************
------------------------------------------------------------------------------
                           ORCA GTO INTEGRAL CALCULATION
                           -- RI-GTO INTEGRALS CHOSEN --
------------------------------------------------------------------------------
------------------------------------------------------------------------------
                   ___                                                        
                  /   \      - P O W E R E D   B Y -                         
                 /     \                                                     
                 |  |  |   _    _      __       _____    __    __             
                 |  |  |  | |  | |    /  \     |  _  \  |  |  /  |          
                  \  \/   | |  | |   /    \    | | | |  |  | /  /          
                 / \  \   | |__| |  /  /\  \   | |_| |  |  |/  /          
                |  |  |   |  __  | /  /__\  \  |    /   |      \           
                |  |  |   | |  | | |   __   |  |    \   |  |\   \          
                \     /   | |  | | |  |  |  |  | |\  \  |  | \   \       
                 \___/    |_|  |_| |__|  |__|  |_| \__\ |__|  \__/        
                                                                              
                      - O R C A' S   B I G   F R I E N D -                    
                                      &                                       
                       - I N T E G R A L  F E E D E R -                       
                                                                              
 v1 FN, 2020, v2 2021                                                         
------------------------------------------------------------------------------


Reading SHARK input file POZ_3_M06L_def2TZVP_coords.SHARKINP.tmp ... ok
----------------------
SHARK INTEGRAL PACKAGE
----------------------

Number of atoms                             ...     43
Number of basis functions                   ...    908
Number of shells                            ...    354
Maximum angular momentum                    ...      3
Integral batch strategy                     ... SHARK/LIBINT Hybrid
RI-J (if used) integral strategy            ... SPLIT-RIJ (Revised 2003 algorithm where possible)
Printlevel                                  ...      1
Contraction scheme used                     ... SEGMENTED contraction
Coulomb Range Separation                    ... NOT USED
Exchange Range Separation                   ... Long Range
   Mu parameter                             ...  0.300000
   Scaling (regular/separated)              ...  0.530000  0.470000
Finite Nucleus Model                        ... NOT USED
Auxiliary Coulomb fitting basis             ... AVAILABLE
   # of basis functions in Aux-J            ...   1461
   # of shells in Aux-J                     ...    475
   Maximum angular momentum in Aux-J        ...      4
Auxiliary J/K fitting basis                 ... NOT available
Auxiliary Correlation fitting basis         ... AVAILABLE
   # of basis functions in Aux-C            ...   2231
   # of shells in Aux-C                     ...    691
   Maximum angular momentum in Aux-C        ...      4
Auxiliary 'external' fitting basis          ... NOT available
Integral threshold                          ...     2.500000e-11
Primitive cut-off                           ...     2.500000e-12
Primitive pair pre-selection threshold      ...     2.500000e-12

Calculating pre-screening integrals         ... done (  0.1 sec) Dimension = 354
Organizing shell pair data                  ... done (  0.3 sec)
Shell pair information
Total number of shell pairs                 ...     62835
Shell pairs after pre-screening             ...     40518
Total number of primitive shell pairs       ...    194376
Primitive shell pairs kept                  ...     82456
          la=0 lb=0:  10029 shell pairs
          la=1 lb=0:  11651 shell pairs
          la=1 lb=1:   3371 shell pairs
          la=2 lb=0:   5829 shell pairs
          la=2 lb=1:   3415 shell pairs
          la=2 lb=2:    870 shell pairs
          la=3 lb=0:   2725 shell pairs
          la=3 lb=1:   1625 shell pairs
          la=3 lb=2:    800 shell pairs
          la=3 lb=3:    203 shell pairs

Calculating one electron integrals          ... done (  0.0 sec)
Calculating RI/J V-Matrix + Cholesky decomp.... done (  0.1 sec)
Calculating RI/C V-Matrix + Cholesky decomp.... done (  0.2 sec)
Calculating Nuclear repulsion               ... done (  0.0 sec) ENN=   2066.278572560029 Eh

SHARK setup successfully completed in   1.0 seconds

Maximum memory used throughout the entire GTOINT-calculation: 67.6 MB


           ************************************************************
           *        Program running with 8 parallel MPI-processes     *
           *              working on a common directory               *
           ************************************************************
-------------------------------------------------------------------------------
                                 ORCA SCF
-------------------------------------------------------------------------------

------------
SCF SETTINGS
------------
Hamiltonian:
 Density Functional     Method          .... DFT(GTOs)
 Exchange Functional    Exchange        .... WB88
 Correlation Functional Correlation     .... LYP
 LDA part of GGA corr.  LDAOpt          .... VWN-3
 Gradients option       PostSCFGGA      .... off
 Hybrid DFT is turned on
   Fraction HF Exchange ScalHFX         ....  0.530000
   Scaling of DF-GGA-X  ScalDFX         ....  0.000000
   Scaling of DF-GGA-C  ScalDFC         ....  0.730000
   Scaling of DF-LDA-C  ScalLDAC        ....  0.730000
   Perturbative correction              ....  0.270000
   Density functional embedding theory  .... OFF
 Long-range corrected/Screened/Range-Separated Hybrid DFT is turned on
   Amount of maximum screened exact exchange              ....  0.470000
   Range separation parameter mu (erf(mu*r12)/r12)        ....  0.300000
 RI-approximation to the Coulomb term is turned on
   Number of AuxJ basis functions       .... 1461
   RIJ-COSX (HFX calculated with COS-X)).... on


General Settings:
 Integral files         IntName         .... POZ_3_M06L_def2TZVP_coords
 Hartree-Fock type      HFTyp           .... RHF
 Total Charge           Charge          ....    0
 Multiplicity           Mult            ....    1
 Number of Electrons    NEL             ....  176
 Basis Dimension        Dim             ....  908
 Nuclear Repulsion      ENuc            ....   2066.2785725600 Eh

Convergence Acceleration:
 DIIS                   CNVDIIS         .... on
   Start iteration      DIISMaxIt       ....    12
   Startup error        DIISStart       ....  0.200000
   # of expansion vecs  DIISMaxEq       ....     5
   Bias factor          DIISBfac        ....   1.050
   Max. coefficient     DIISMaxC        ....  10.000
 Trust-Rad. Augm. Hess. CNVTRAH         .... auto
   Auto Start mean grad. ratio tolernc. ....  1.125000
   Auto Start start iteration           ....    20
   Auto Start num. interpolation iter.  ....    10
   Max. Number of Micro iterations      ....    16
   Max. Number of Macro iterations      .... Maxiter - #DIIS iter
   Number of Davidson start vectors     ....     2
   Converg. threshold I  (grad. norm)   ....   1.000e-05
   Converg. threshold II (energy diff.) ....   1.000e-08
   Grad. Scal. Fac. for Micro threshold ....   0.100
   Minimum threshold for Micro iter.    ....   0.010
   NR start threshold (gradient norm)   ....   0.001
   Initial trust radius                 ....   0.400
   Minimum AH scaling param. (alpha)    ....   1.000
   Maximum AH scaling param. (alpha)    .... 1000.000
   Orbital update algorithm             .... Taylor
   White noise on init. David. guess    .... on
   Maximum white noise                  ....   0.010
   Quad. conv. algorithm                .... NR
 SOSCF                  CNVSOSCF        .... on
   Start iteration      SOSCFMaxIt      ....   150
   Startup grad/error   SOSCFStart      ....  0.003300
 Level Shifting         CNVShift        .... on
   Level shift para.    LevelShift      ....    0.2500
   Turn off err/grad.   ShiftErr        ....    0.0010
 Zerner damping         CNVZerner       .... off
 Static damping         CNVDamp         .... on
   Fraction old density DampFac         ....    0.7000
   Max. Damping (<1)    DampMax         ....    0.9800
   Min. Damping (>=0)   DampMin         ....    0.0000
   Turn off err/grad.   DampErr         ....    0.1000
 Fernandez-Rico         CNVRico         .... off

SCF Procedure:
 Maximum # iterations   MaxIter         ....   125
 SCF integral mode      SCFMode         .... Direct
   Integral package                     .... SHARK and LIBINT hybrid scheme
 Reset frequency        DirectResetFreq ....    20
 Integral Threshold     Thresh          ....  2.500e-11 Eh
 Primitive CutOff       TCut            ....  2.500e-12 Eh

Convergence Tolerance:
 Convergence Check Mode ConvCheckMode   .... Total+1el-Energy
 Convergence forced     ConvForced      .... 1
 Energy Change          TolE            ....  1.000e-08 Eh
 1-El. energy change                    ....  1.000e-05 Eh
 Orbital Gradient       TolG            ....  1.000e-05
 Orbital Rotation angle TolX            ....  1.000e-05
 DIIS Error             TolErr          ....  5.000e-07


Diagonalization of the overlap matrix:
Smallest eigenvalue                        ... 4.582e-06
Time for diagonalization                   ...    0.152 sec
Threshold for overlap eigenvalues          ... 1.000e-08
Number of eigenvalues below threshold      ... 0
Time for construction of square roots      ...    0.130 sec
Total time needed                          ...    0.285 sec

Time for model grid setup =    0.237 sec

------------------------------
INITIAL GUESS: MODEL POTENTIAL
------------------------------
Loading Hartree-Fock densities                     ... done
Calculating cut-offs                               ... done
Initializing the effective Hamiltonian             ... done
Setting up the integral package (SHARK)            ... done
Starting the Coulomb interaction                   ... done (   0.5 sec)
Reading the grid                                   ... done
Mapping shells                                     ... done
Starting the XC term evaluation                    ... done (   0.2 sec)
  promolecular density results
     # of electrons  =    175.986101783
     EX              =   -142.602640120
     EC              =     -2.004328890
     EX+EC           =   -144.606969010
Transforming the Hamiltonian                       ... done (   0.1 sec)
Diagonalizing the Hamiltonian                      ... done (   0.1 sec)
Back transforming the eigenvectors                 ... done (   0.0 sec)
Now organizing SCF variables                       ... done
                      ------------------
                      INITIAL GUESS DONE (   1.2 sec)
                      ------------------
-------------------
DFT GRID GENERATION
-------------------

General Integration Accuracy     IntAcc      ... 4.388
Radial Grid Type                 RadialGrid  ... OptM3 with GC (2021)
Angular Grid (max. ang.)         AngularGrid ... 4 (Lebedev-302)
Angular grid pruning method      GridPruning ... 4 (adaptive)
Weight generation scheme         WeightScheme... Becke
Basis function cutoff            BFCut       ... 1.0000e-11
Integration weight cutoff        WCut        ... 1.0000e-14
Angular grids for H and He will be reduced by one unit
Partially contracted basis set               ... off
Rotationally invariant grid construction     ... off

Total number of grid points                  ...   209055
Total number of batches                      ...     3292
Average number of points per batch           ...       63
Average number of grid points per atom       ...     4862
Time for grid setup =    1.069 sec

--------------------
COSX GRID GENERATION
--------------------

GRIDX 1
-------
General Integration Accuracy     IntAcc      ... 3.816
Radial Grid Type                 RadialGrid  ... OptM3 with GC (2021)
Angular Grid (max. ang.)         AngularGrid ... 1 (Lebedev-50)
Angular grid pruning method      GridPruning ... 4 (adaptive)
Weight generation scheme         WeightScheme... Becke
Basis function cutoff            BFCut       ... 1.0000e-11
Integration weight cutoff        WCut        ... 1.0000e-14
Angular grids for H and He will be reduced by one unit
Partially contracted basis set               ... on
Rotationally invariant grid construction     ... off

Total number of grid points                  ...    26580
Total number of batches                      ...      432
Average number of points per batch           ...       61
Average number of grid points per atom       ...      618
UseSFitting                                  ... on

GRIDX 2
-------
General Integration Accuracy     IntAcc      ... 4.020
Radial Grid Type                 RadialGrid  ... OptM3 with GC (2021)
Angular Grid (max. ang.)         AngularGrid ... 2 (Lebedev-110)
Angular grid pruning method      GridPruning ... 4 (adaptive)
Weight generation scheme         WeightScheme... Becke
Basis function cutoff            BFCut       ... 1.0000e-11
Integration weight cutoff        WCut        ... 1.0000e-14
Angular grids for H and He will be reduced by one unit
Partially contracted basis set               ... on
Rotationally invariant grid construction     ... off

Total number of grid points                  ...    57941
Total number of batches                      ...      927
Average number of points per batch           ...       62
Average number of grid points per atom       ...     1347
UseSFitting                                  ... on

GRIDX 3
-------
General Integration Accuracy     IntAcc      ... 4.338
Radial Grid Type                 RadialGrid  ... OptM3 with GC (2021)
Angular Grid (max. ang.)         AngularGrid ... 3 (Lebedev-194)
Angular grid pruning method      GridPruning ... 4 (adaptive)
Weight generation scheme         WeightScheme... Becke
Basis function cutoff            BFCut       ... 1.0000e-11
Integration weight cutoff        WCut        ... 1.0000e-14
Angular grids for H and He will be reduced by one unit
Partially contracted basis set               ... on
Rotationally invariant grid construction     ... off

Total number of grid points                  ...   126986
Total number of batches                      ...     2006
Average number of points per batch           ...       63
Average number of grid points per atom       ...     2953
UseSFitting                                  ... on

Time for X-Grid setup             =    1.339 sec


--------------------
CPCM SOLVATION MODEL
--------------------
CPCM parameters:
  Epsilon                                         ...      37.7810
  Refrac                                          ...       1.4380
  Rsolv                                           ...       1.3000
  Surface type                                    ... GAUSSIAN VDW
  Epsilon function type                           ...         CPCM
Solvent:                                     ... N,N-DIMETHYLACETAMIDE
SMD-CDS solvent descriptors:
  Soln                                       ...    1.4380
  Soln25                                     ...    1.4358
  Sola                                       ...    0.0000
  Solb                                       ...    0.7800
  Solg                                       ...   47.6200
  Solc                                       ...    0.0000
  Solh                                       ...    0.0000
Radii:
 Radius for C  used is    3.4960 Bohr (=   1.8500 Ang.)
 Radius for H  used is    2.2677 Bohr (=   1.2000 Ang.)
 Radius for N  used is    3.5716 Bohr (=   1.8900 Ang.)
 Radius for O  used is    4.3350 Bohr (=   2.2940 Ang.)
Calculating surface                               ...        done! (  0.0s)
GEPOL surface points                              ...         2356
GEPOL Volume                                      ...    2350.6460
GEPOL Surface-area                                ...    1255.2586
Calculating surface distance matrix               ...        done! (  0.0s)
Performing Cholesky decomposition & store         ...        done! (  0.1s)
Overall time for CPCM initialization              ...                 0.2s
--------------
SCF ITERATIONS
--------------
ITER       Energy         Delta-E        Max-DP      RMS-DP      [F,P]     Damp
               ***  Starting incremental Fock matrix formation  ***
  0  -1051.1504273097   0.000000000000 0.04095978  0.00062105  0.1576541 0.7000
  1  -1051.3971207024  -0.246693392722 0.03297196  0.00052163  0.1034634 0.7000
                               ***Turning on DIIS***
  2  -1051.5429706030  -0.145849900600 0.09432822  0.00122839  0.0614585 0.0000
  3  -1051.8128687659  -0.269898162911 0.01765568  0.00023523  0.0338684 0.0000
  4  -1051.8338988671  -0.021030101184 0.00671789  0.00010469  0.0065292 0.0000
                      *** Initiating the SOSCF procedure ***
                           *** Shutting down DIIS ***
                      *** Re-Reading the Fockian *** 
                      *** Removing any level shift *** 
ITER      Energy       Delta-E        Grad      Rot      Max-DP    RMS-DP
  5  -1051.83479323  -0.0008943669  0.001927  0.001927  0.003692  0.000044
               *** Restarting incremental Fock matrix formation ***
  6  -1051.83489494  -0.0001017033  0.001548  0.004395  0.019767  0.000228
  7  -1051.83498736  -0.0000924209  0.000579  0.003993  0.007924  0.000095
  8  -1051.83501292  -0.0000255615  0.000227  0.000379  0.006689  0.000077
  9  -1051.83501854  -0.0000056224  0.000086  0.000183  0.001019  0.000010
 10  -1051.83501921  -0.0000006649  0.000035  0.000154  0.000315  0.000004
 11  -1051.83501940  -0.0000001882  0.000013  0.000080  0.000340  0.000003
 12  -1051.83501939   0.0000000007  0.000007  0.000010  0.000147  0.000001
                  ***Gradient check signals convergence***
              ***Rediagonalizing the Fockian in SOSCF/NRSCF***

               *****************************************************
               *                     SUCCESS                       *
               *           SCF CONVERGED AFTER  13 CYCLES          *
               *****************************************************

Old exchange energy                            =    -90.098697422 Eh
New exchange energy                            =    -90.098570527 Eh
Exchange energy change after final integration =      0.000126895 Eh
Total energy after final integration           =  -1051.834892527 Eh
Final COS-X integration done in                =    46.547 sec

SMD CDS free energy correction energy :                -4.29799     Kcal/mol
Total Energy after SMD CDS correction =             -1051.841741806 Eh

----------------
TOTAL SCF ENERGY
----------------

Total Energy       :        -1051.84174181 Eh          -28622.06891 eV

Components:
Nuclear Repulsion  :         2066.27857256 Eh           56226.29845 eV
Electronic Energy  :        -3118.12031437 Eh          -84848.36736 eV
One Electron Energy:        -5532.79860862 Eh         -150555.10421 eV
Two Electron Energy:         2414.67829425 Eh           65706.73685 eV
Max COSX asymmetry :            0.00000593 Eh               0.00016 eV
CPCM Dielectric    :           -0.02247358 Eh              -0.61154 eV
SMD CDS (Gcds)     :           -0.00684928 Eh              -0.18638 eV

Virial components:
Potential Energy   :        -2100.20726181 Eh          -57149.54502 eV
Kinetic Energy     :         1048.36552000 Eh           28527.47611 eV
Virial Ratio       :            2.00331585


DFT components:
N(Alpha)           :       87.999986013423 electrons
N(Beta)            :       87.999986013423 electrons
N(Total)           :      175.999972026846 electrons
E(X)               :      -54.586125608576 Eh       
E(C)               :       -4.387663863425 Eh       
E(XC)              :      -58.973789472000 Eh       
DFET-embed. en.    :        0.000000000000 Eh       
CPCM Solvation Model Properties:
Surface-charge          :           -0.07140869
Charge-correction       :            0.00031869 Eh               0.00867 eV
Free-energy (cav+disp)  :           -0.00684928 Eh              -0.18638 eV

---------------
SCF CONVERGENCE
---------------

  Last Energy change         ...   -2.6854e-08  Tolerance :   1.0000e-08
  Last MAX-Density change    ...    1.9984e-15  Tolerance :   1.0000e-07
  Last RMS-Density change    ...    1.3066e-17  Tolerance :   5.0000e-09
  Last Orbital Gradient      ...    1.6882e-06  Tolerance :   1.0000e-05
  Last Orbital Rotation      ...    8.4712e-06  Tolerance :   1.0000e-05

             **** THE GBW FILE WAS UPDATED (POZ_3_M06L_def2TZVP_coords.gbw) ****
             **** DENSITY POZ_3_M06L_def2TZVP_coords.scfp WAS UPDATED ****
             **** ENERGY FILE WAS UPDATED (POZ_3_M06L_def2TZVP_coords.en.tmp) ****
             **** THE GBW FILE WAS UPDATED (POZ_3_M06L_def2TZVP_coords.gbw) ****
             **** DENSITY POZ_3_M06L_def2TZVP_coords.scfp WAS UPDATED ****
----------------
ORBITAL ENERGIES
----------------

  NO   OCC          E(Eh)            E(eV) 
   0   2.0000     -19.844968      -540.0090 
   1   2.0000     -14.945369      -406.6842 
   2   2.0000     -10.757147      -292.7169 
   3   2.0000     -10.756230      -292.6919 
   4   2.0000     -10.743607      -292.3484 
   5   2.0000     -10.743349      -292.3414 
   6   2.0000     -10.730318      -291.9868 
   7   2.0000     -10.700702      -291.1809 
   8   2.0000     -10.697778      -291.1013 
   9   2.0000     -10.691744      -290.9371 
  10   2.0000     -10.691710      -290.9362 
  11   2.0000     -10.690873      -290.9135 
  12   2.0000     -10.690356      -290.8994 
  13   2.0000     -10.689702      -290.8816 
  14   2.0000     -10.689381      -290.8728 
  15   2.0000     -10.688491      -290.8486 
  16   2.0000     -10.688300      -290.8434 
  17   2.0000     -10.687522      -290.8223 
  18   2.0000     -10.686358      -290.7906 
  19   2.0000     -10.685817      -290.7759 
  20   2.0000     -10.685696      -290.7726 
  21   2.0000     -10.685206      -290.7592 
  22   2.0000     -10.684715      -290.7459 
  23   2.0000     -10.684615      -290.7432 
  24   2.0000     -10.683555      -290.7143 
  25   2.0000     -10.682958      -290.6981 
  26   2.0000      -1.322978       -36.0001 
  27   2.0000      -1.195978       -32.5442 
  28   2.0000      -1.089087       -29.6356 
  29   2.0000      -1.073537       -29.2124 
  30   2.0000      -1.068183       -29.0667 
  31   2.0000      -1.045694       -28.4548 
  32   2.0000      -0.980672       -26.6855 
  33   2.0000      -0.967281       -26.3210 
  34   2.0000      -0.957438       -26.0532 
  35   2.0000      -0.947135       -25.7728 
  36   2.0000      -0.941046       -25.6072 
  37   2.0000      -0.934795       -25.4371 
  38   2.0000      -0.923261       -25.1232 
  39   2.0000      -0.887365       -24.1464 
  40   2.0000      -0.827389       -22.5144 
  41   2.0000      -0.825277       -22.4569 
  42   2.0000      -0.785836       -21.3837 
  43   2.0000      -0.784077       -21.3358 
  44   2.0000      -0.774673       -21.0799 
  45   2.0000      -0.759374       -20.6636 
  46   2.0000      -0.755516       -20.5586 
  47   2.0000      -0.731421       -19.9030 
  48   2.0000      -0.719384       -19.5754 
  49   2.0000      -0.691245       -18.8097 
  50   2.0000      -0.670435       -18.2435 
  51   2.0000      -0.655118       -17.8267 
  52   2.0000      -0.645909       -17.5761 
  53   2.0000      -0.630113       -17.1462 
  54   2.0000      -0.624853       -17.0031 
  55   2.0000      -0.618716       -16.8361 
  56   2.0000      -0.609160       -16.5761 
  57   2.0000      -0.604291       -16.4436 
  58   2.0000      -0.595072       -16.1927 
  59   2.0000      -0.584990       -15.9184 
  60   2.0000      -0.578091       -15.7307 
  61   2.0000      -0.574660       -15.6373 
  62   2.0000      -0.572285       -15.5727 
  63   2.0000      -0.569273       -15.4907 
  64   2.0000      -0.562973       -15.3193 
  65   2.0000      -0.554139       -15.0789 
  66   2.0000      -0.534804       -14.5528 
  67   2.0000      -0.522130       -14.2079 
  68   2.0000      -0.519139       -14.1265 
  69   2.0000      -0.518156       -14.0997 
  70   2.0000      -0.506554       -13.7840 
  71   2.0000      -0.502568       -13.6756 
  72   2.0000      -0.498119       -13.5545 
  73   2.0000      -0.493794       -13.4368 
  74   2.0000      -0.487408       -13.2631 
  75   2.0000      -0.476266       -12.9598 
  76   2.0000      -0.471858       -12.8399 
  77   2.0000      -0.464815       -12.6483 
  78   2.0000      -0.456539       -12.4231 
  79   2.0000      -0.449474       -12.2308 
  80   2.0000      -0.383164       -10.4264 
  81   2.0000      -0.366265        -9.9666 
  82   2.0000      -0.355423        -9.6716 
  83   2.0000      -0.354042        -9.6340 
  84   2.0000      -0.351189        -9.5563 
  85   2.0000      -0.336901        -9.1675 
  86   2.0000      -0.322968        -8.7884 
  87   2.0000      -0.263694        -7.1755 
  88   0.0000       0.049729         1.3532 
  89   0.0000       0.069327         1.8865 
  90   0.0000       0.078099         2.1252 
  91   0.0000       0.081244         2.2107 
  92   0.0000       0.089456         2.4342 
  93   0.0000       0.099170         2.6985 
  94   0.0000       0.102577         2.7913 
  95   0.0000       0.132080         3.5941 
  96   0.0000       0.141577         3.8525 
  97   0.0000       0.143738         3.9113 
  98   0.0000       0.145031         3.9465 
  99   0.0000       0.151074         4.1109 
 100   0.0000       0.154382         4.2010 
 101   0.0000       0.161086         4.3834 
 102   0.0000       0.165089         4.4923 
 103   0.0000       0.167163         4.5487 
 104   0.0000       0.179024         4.8715 
 105   0.0000       0.183367         4.9897 
 106   0.0000       0.187863         5.1120 
 107   0.0000       0.195527         5.3206 
 108   0.0000       0.196594         5.3496 
 109   0.0000       0.197535         5.3752 
 110   0.0000       0.202412         5.5079 
 111   0.0000       0.205800         5.6001 
 112   0.0000       0.209872         5.7109 
 113   0.0000       0.213635         5.8133 
 114   0.0000       0.222865         6.0645 
 115   0.0000       0.234943         6.3931 
 116   0.0000       0.243028         6.6131 
 117   0.0000       0.253913         6.9093 
 118   0.0000       0.262927         7.1546 
 119   0.0000       0.268915         7.3176 
 120   0.0000       0.269686         7.3385 
 121   0.0000       0.271644         7.3918 
 122   0.0000       0.279347         7.6014 
 123   0.0000       0.281887         7.6705 
 124   0.0000       0.287712         7.8290 
 125   0.0000       0.291764         7.9393 
 126   0.0000       0.294657         8.0180 
 127   0.0000       0.296054         8.0561 
 128   0.0000       0.300641         8.1809 
 129   0.0000       0.304409         8.2834 
 130   0.0000       0.306519         8.3408 
 131   0.0000       0.309996         8.4354 
 132   0.0000       0.311576         8.4784 
 133   0.0000       0.313294         8.5252 
 134   0.0000       0.315702         8.5907 
 135   0.0000       0.317229         8.6322 
 136   0.0000       0.329149         8.9566 
 137   0.0000       0.330430         8.9915 
 138   0.0000       0.332273         9.0416 
 139   0.0000       0.335230         9.1221 
 140   0.0000       0.339320         9.2334 
 141   0.0000       0.342053         9.3077 
 142   0.0000       0.344067         9.3625 
 143   0.0000       0.346158         9.4194 
 144   0.0000       0.355105         9.6629 
 145   0.0000       0.366083         9.9616 
 146   0.0000       0.369701        10.0601 
 147   0.0000       0.371755        10.1160 
 148   0.0000       0.372873        10.1464 
 149   0.0000       0.380367        10.3503 
 150   0.0000       0.383972        10.4484 
 151   0.0000       0.384321        10.4579 
 152   0.0000       0.388772        10.5790 
 153   0.0000       0.391453        10.6520 
 154   0.0000       0.400574        10.9002 
 155   0.0000       0.402124        10.9423 
 156   0.0000       0.413047        11.2396 
 157   0.0000       0.418166        11.3789 
 158   0.0000       0.419133        11.4052 
 159   0.0000       0.424479        11.5507 
 160   0.0000       0.429312        11.6822 
 161   0.0000       0.434059        11.8114 
 162   0.0000       0.442036        12.0284 
 163   0.0000       0.447320        12.1722 
 164   0.0000       0.447667        12.1816 
 165   0.0000       0.450957        12.2712 
 166   0.0000       0.453844        12.3497 
 167   0.0000       0.459324        12.4988 
 168   0.0000       0.459993        12.5170 
 169   0.0000       0.464767        12.6469 
 170   0.0000       0.469937        12.7876 
 171   0.0000       0.472673        12.8621 
 172   0.0000       0.477375        12.9900 
 173   0.0000       0.484239        13.1768 
 174   0.0000       0.490828        13.3561 
 175   0.0000       0.492204        13.3936 
 176   0.0000       0.495761        13.4904 
 177   0.0000       0.499819        13.6008 
 178   0.0000       0.502483        13.6732 
 179   0.0000       0.506412        13.7802 
 180   0.0000       0.507200        13.8016 
 181   0.0000       0.514935        14.0121 
 182   0.0000       0.517404        14.0793 
 183   0.0000       0.518582        14.1113 
 184   0.0000       0.524550        14.2737 
 185   0.0000       0.525531        14.3004 
 186   0.0000       0.527085        14.3427 
 187   0.0000       0.531234        14.4556 
 188   0.0000       0.534372        14.5410 
 189   0.0000       0.539182        14.6719 
 190   0.0000       0.542223        14.7546 
 191   0.0000       0.545330        14.8392 
 192   0.0000       0.548009        14.9121 
 193   0.0000       0.551646        15.0111 
 194   0.0000       0.555268        15.1096 
 195   0.0000       0.562991        15.3198 
 196   0.0000       0.566419        15.4130 
 197   0.0000       0.570836        15.5332 
 198   0.0000       0.573250        15.5989 
 199   0.0000       0.578680        15.7467 
 200   0.0000       0.583624        15.8812 
 201   0.0000       0.584058        15.8930 
 202   0.0000       0.585516        15.9327 
 203   0.0000       0.592146        16.1131 
 204   0.0000       0.595455        16.2031 
 205   0.0000       0.601798        16.3758 
 206   0.0000       0.607764        16.5381 
 207   0.0000       0.612721        16.6730 
 208   0.0000       0.613942        16.7062 
 209   0.0000       0.618533        16.8311 
 210   0.0000       0.621745        16.9185 
 211   0.0000       0.625487        17.0204 
 212   0.0000       0.626507        17.0481 
 213   0.0000       0.634583        17.2679 
 214   0.0000       0.639729        17.4079 
 215   0.0000       0.647049        17.6071 
 216   0.0000       0.650225        17.6935 
 217   0.0000       0.654345        17.8056 
 218   0.0000       0.661557        18.0019 
 219   0.0000       0.671361        18.2687 
 220   0.0000       0.678639        18.4667 
 221   0.0000       0.684367        18.6226 
 222   0.0000       0.688721        18.7411 
 223   0.0000       0.694957        18.9107 
 224   0.0000       0.700140        19.0518 
 225   0.0000       0.706620        19.2281 
 226   0.0000       0.715822        19.4785 
 227   0.0000       0.724820        19.7234 
 228   0.0000       0.733113        19.9490 
 229   0.0000       0.741665        20.1817 
 230   0.0000       0.748507        20.3679 
 231   0.0000       0.759197        20.6588 
 232   0.0000       0.763658        20.7802 
 233   0.0000       0.768741        20.9185 
 234   0.0000       0.774191        21.0668 
 235   0.0000       0.777742        21.1634 
 236   0.0000       0.780963        21.2511 
 237   0.0000       0.785213        21.3667 
 238   0.0000       0.787623        21.4323 
 239   0.0000       0.793152        21.5828 
 240   0.0000       0.798088        21.7171 
 241   0.0000       0.807153        21.9638 
 242   0.0000       0.812055        22.0971 
 243   0.0000       0.821943        22.3662 
 244   0.0000       0.826990        22.5036 
 245   0.0000       0.831651        22.6304 
 246   0.0000       0.839037        22.8314 
 247   0.0000       0.840689        22.8763 
 248   0.0000       0.843955        22.9652 
 249   0.0000       0.845833        23.0163 
 250   0.0000       0.851640        23.1743 
 251   0.0000       0.853977        23.2379 
 252   0.0000       0.856227        23.2991 
 253   0.0000       0.861074        23.4310 
 254   0.0000       0.862540        23.4709 
 255   0.0000       0.866742        23.5852 
 256   0.0000       0.875385        23.8204 
 257   0.0000       0.877188        23.8695 
 258   0.0000       0.879702        23.9379 
 259   0.0000       0.883869        24.0513 
 260   0.0000       0.883949        24.0535 
 261   0.0000       0.889834        24.2136 
 262   0.0000       0.891603        24.2618 
 263   0.0000       0.899314        24.4716 
 264   0.0000       0.902527        24.5590 
 265   0.0000       0.910484        24.7755 
 266   0.0000       0.916533        24.9401 
 267   0.0000       0.922376        25.0991 
 268   0.0000       0.929079        25.2815 
 269   0.0000       0.933132        25.3918 
 270   0.0000       0.936683        25.4884 
 271   0.0000       0.943256        25.6673 
 272   0.0000       0.950239        25.8573 
 273   0.0000       0.957214        26.0471 
 274   0.0000       0.959875        26.1195 
 275   0.0000       0.969271        26.3752 
 276   0.0000       0.974315        26.5125 
 277   0.0000       0.984191        26.7812 
 278   0.0000       0.990196        26.9446 
 279   0.0000       0.997573        27.1453 
 280   0.0000       1.003064        27.2948 
 281   0.0000       1.008737        27.4491 
 282   0.0000       1.011546        27.5256 
 283   0.0000       1.012747        27.5583 
 284   0.0000       1.020748        27.7760 
 285   0.0000       1.023406        27.8483 
 286   0.0000       1.028039        27.9744 
 287   0.0000       1.030913        28.0526 
 288   0.0000       1.035355        28.1735 
 289   0.0000       1.042840        28.3771 
 290   0.0000       1.052184        28.6314 
 291   0.0000       1.055741        28.7282 
 292   0.0000       1.064982        28.9796 
 293   0.0000       1.066721        29.0270 
 294   0.0000       1.076057        29.2810 
 295   0.0000       1.079396        29.3719 
 296   0.0000       1.088229        29.6122 
 297   0.0000       1.091959        29.7137 
 298   0.0000       1.101818        29.9820 
 299   0.0000       1.114796        30.3351 
 300   0.0000       1.119165        30.4540 
 301   0.0000       1.124932        30.6110 
 302   0.0000       1.144204        31.1354 
 303   0.0000       1.148672        31.2570 
 304   0.0000       1.150182        31.2980 
 305   0.0000       1.160007        31.5654 
 306   0.0000       1.169026        31.8108 
 307   0.0000       1.179882        32.1062 
 308   0.0000       1.185575        32.2611 
 309   0.0000       1.186823        32.2951 
 310   0.0000       1.191671        32.4270 
 311   0.0000       1.195780        32.5388 
 312   0.0000       1.210767        32.9466 
 313   0.0000       1.224448        33.3189 
 314   0.0000       1.231340        33.5065 
 315   0.0000       1.242394        33.8073 
 316   0.0000       1.246511        33.9193 
 317   0.0000       1.254434        34.1349 
 318   0.0000       1.266493        34.4630 
 319   0.0000       1.276998        34.7489 
 320   0.0000       1.281076        34.8599 
 321   0.0000       1.285642        34.9841 
 322   0.0000       1.290683        35.1213 
 323   0.0000       1.297208        35.2988 
 324   0.0000       1.304070        35.4855 
 325   0.0000       1.311758        35.6947 
 326   0.0000       1.324609        36.0444 
 327   0.0000       1.326221        36.0883 
 328   0.0000       1.329103        36.1667 
 329   0.0000       1.338524        36.4231 
 330   0.0000       1.355365        36.8814 
 331   0.0000       1.360661        37.0255 
 332   0.0000       1.365726        37.1633 
 333   0.0000       1.367803        37.2198 
 334   0.0000       1.371046        37.3081 
 335   0.0000       1.382694        37.6250 
 336   0.0000       1.392516        37.8923 
 337   0.0000       1.395400        37.9708 
 338   0.0000       1.399017        38.0692 
 339   0.0000       1.402222        38.1564 
 340   0.0000       1.408690        38.3324 
 341   0.0000       1.409903        38.3654 
 342   0.0000       1.420914        38.6650 
 343   0.0000       1.425129        38.7797 
 344   0.0000       1.430854        38.9355 
 345   0.0000       1.433762        39.0147 
 346   0.0000       1.443073        39.2680 
 347   0.0000       1.449004        39.4294 
 348   0.0000       1.455487        39.6058 
 349   0.0000       1.463962        39.8364 
 350   0.0000       1.469967        39.9998 
 351   0.0000       1.483701        40.3735 
 352   0.0000       1.487921        40.4884 
 353   0.0000       1.493387        40.6371 
 354   0.0000       1.498108        40.7656 
 355   0.0000       1.503435        40.9105 
 356   0.0000       1.508993        41.0618 
 357   0.0000       1.517012        41.2800 
 358   0.0000       1.526426        41.5362 
 359   0.0000       1.540008        41.9057 
 360   0.0000       1.549335        42.1595 
 361   0.0000       1.566762        42.6338 
 362   0.0000       1.575834        42.8806 
 363   0.0000       1.580866        43.0175 
 364   0.0000       1.584710        43.1222 
 365   0.0000       1.588570        43.2272 
 366   0.0000       1.597815        43.4788 
 367   0.0000       1.604860        43.6705 
 368   0.0000       1.617228        44.0070 
 369   0.0000       1.619657        44.0731 
 370   0.0000       1.630089        44.3570 
 371   0.0000       1.633039        44.4373 
 372   0.0000       1.634677        44.4818 
 373   0.0000       1.644154        44.7397 
 374   0.0000       1.645222        44.7688 
 375   0.0000       1.652728        44.9730 
 376   0.0000       1.656902        45.0866 
 377   0.0000       1.663600        45.2689 
 378   0.0000       1.673981        45.5513 
 379   0.0000       1.674516        45.5659 
 380   0.0000       1.683421        45.8082 
 381   0.0000       1.685011        45.8515 
 382   0.0000       1.689351        45.9696 
 383   0.0000       1.697258        46.1847 
 384   0.0000       1.701549        46.3015 
 385   0.0000       1.709118        46.5075 
 386   0.0000       1.712381        46.5962 
 387   0.0000       1.720527        46.8179 
 388   0.0000       1.730620        47.0926 
 389   0.0000       1.739111        47.3236 
 390   0.0000       1.742256        47.4092 
 391   0.0000       1.746171        47.5157 
 392   0.0000       1.754368        47.7388 
 393   0.0000       1.765768        48.0490 
 394   0.0000       1.769372        48.1471 
 395   0.0000       1.775527        48.3145 
 396   0.0000       1.778835        48.4046 
 397   0.0000       1.785536        48.5869 
 398   0.0000       1.793862        48.8135 
 399   0.0000       1.809079        49.2275 
 400   0.0000       1.816166        49.4204 
 401   0.0000       1.825304        49.6690 
 402   0.0000       1.834934        49.9311 
 403   0.0000       1.837645        50.0049 
 404   0.0000       1.844253        50.1847 
 405   0.0000       1.847604        50.2759 
 406   0.0000       1.850714        50.3605 
 407   0.0000       1.856261        50.5114 
 408   0.0000       1.862563        50.6829 
 409   0.0000       1.868275        50.8384 
 410   0.0000       1.872378        50.9500 
 411   0.0000       1.878978        51.1296 
 412   0.0000       1.885355        51.3031 
 413   0.0000       1.887625        51.3649 
 414   0.0000       1.892067        51.4858 
 415   0.0000       1.897675        51.6384 
 416   0.0000       1.903562        51.7986 
 417   0.0000       1.908219        51.9253 
 418   0.0000       1.912758        52.0488 
 419   0.0000       1.917668        52.1824 
 420   0.0000       1.919990        52.2456 
 421   0.0000       1.922090        52.3027 
 422   0.0000       1.928584        52.4794 
 423   0.0000       1.932552        52.5874 
 424   0.0000       1.938994        52.7627 
 425   0.0000       1.954464        53.1837 
 426   0.0000       1.959790        53.3286 
 427   0.0000       1.962868        53.4124 
 428   0.0000       1.987472        54.0819 
 429   0.0000       1.988963        54.1224 
 430   0.0000       1.999154        54.3997 
 431   0.0000       2.018479        54.9256 
 432   0.0000       2.026554        55.1453 
 433   0.0000       2.029051        55.2133 
 434   0.0000       2.047457        55.7141 
 435   0.0000       2.052436        55.8496 
 436   0.0000       2.059553        56.0433 
 437   0.0000       2.074340        56.4457 
 438   0.0000       2.080930        56.6250 
 439   0.0000       2.086887        56.7871 
 440   0.0000       2.101011        57.1714 
 441   0.0000       2.104566        57.2682 
 442   0.0000       2.105911        57.3048 
 443   0.0000       2.118262        57.6409 
 444   0.0000       2.127839        57.9014 
 445   0.0000       2.129571        57.9486 
 446   0.0000       2.141850        58.2827 
 447   0.0000       2.154663        58.6314 
 448   0.0000       2.161657        58.8217 
 449   0.0000       2.179416        59.3049 
 450   0.0000       2.187387        59.5218 
 451   0.0000       2.190368        59.6030 
 452   0.0000       2.206152        60.0324 
 453   0.0000       2.207617        60.0723 
 454   0.0000       2.225724        60.5650 
 455   0.0000       2.235693        60.8363 
 456   0.0000       2.237198        60.8772 
 457   0.0000       2.241577        60.9964 
 458   0.0000       2.248437        61.1831 
 459   0.0000       2.253990        61.3342 
 460   0.0000       2.261597        61.5412 
 461   0.0000       2.275136        61.9096 
 462   0.0000       2.284945        62.1765 
 463   0.0000       2.289001        62.2869 
 464   0.0000       2.291507        62.3551 
 465   0.0000       2.295186        62.4552 
 466   0.0000       2.301093        62.6159 
 467   0.0000       2.311884        62.9096 
 468   0.0000       2.321102        63.1604 
 469   0.0000       2.335043        63.5398 
 470   0.0000       2.342979        63.7557 
 471   0.0000       2.359838        64.2145 
 472   0.0000       2.369363        64.4737 
 473   0.0000       2.376133        64.6579 
 474   0.0000       2.378210        64.7144 
 475   0.0000       2.383833        64.8674 
 476   0.0000       2.384659        64.8899 
 477   0.0000       2.400964        65.3336 
 478   0.0000       2.408528        65.5394 
 479   0.0000       2.415990        65.7424 
 480   0.0000       2.421747        65.8991 
 481   0.0000       2.425133        65.9912 
 482   0.0000       2.430759        66.1443 
 483   0.0000       2.443530        66.4918 
 484   0.0000       2.445733        66.5518 
 485   0.0000       2.451258        66.7021 
 486   0.0000       2.457213        66.8642 
 487   0.0000       2.467417        67.1418 
 488   0.0000       2.478878        67.4537 
 489   0.0000       2.495300        67.9006 
 490   0.0000       2.506545        68.2066 
 491   0.0000       2.518676        68.5367 
 492   0.0000       2.532181        68.9042 
 493   0.0000       2.549239        69.3683 
 494   0.0000       2.554211        69.5036 
 495   0.0000       2.579279        70.1858 
 496   0.0000       2.580206        70.2110 
 497   0.0000       2.584097        70.3169 
 498   0.0000       2.591624        70.5217 
 499   0.0000       2.617850        71.2353 
 500   0.0000       2.628640        71.5289 
 501   0.0000       2.651892        72.1616 
 502   0.0000       2.657069        72.3025 
 503   0.0000       2.664124        72.4945 
 504   0.0000       2.665381        72.5287 
 505   0.0000       2.679540        72.9140 
 506   0.0000       2.686129        73.0933 
 507   0.0000       2.696158        73.3662 
 508   0.0000       2.703917        73.5773 
 509   0.0000       2.720465        74.0276 
 510   0.0000       2.722459        74.0819 
 511   0.0000       2.730344        74.2964 
 512   0.0000       2.733842        74.3916 
 513   0.0000       2.738653        74.5225 
 514   0.0000       2.752701        74.9048 
 515   0.0000       2.761549        75.1456 
 516   0.0000       2.778447        75.6054 
 517   0.0000       2.790376        75.9300 
 518   0.0000       2.791924        75.9721 
 519   0.0000       2.795819        76.0781 
 520   0.0000       2.800010        76.1922 
 521   0.0000       2.802507        76.2601 
 522   0.0000       2.814953        76.5988 
 523   0.0000       2.822206        76.7961 
 524   0.0000       2.823822        76.8401 
 525   0.0000       2.829418        76.9924 
 526   0.0000       2.833665        77.1079 
 527   0.0000       2.837688        77.2174 
 528   0.0000       2.845929        77.4417 
 529   0.0000       2.851522        77.5938 
 530   0.0000       2.863059        77.9078 
 531   0.0000       2.864740        77.9535 
 532   0.0000       2.869947        78.0952 
 533   0.0000       2.872498        78.1646 
 534   0.0000       2.875108        78.2357 
 535   0.0000       2.876844        78.2829 
 536   0.0000       2.880308        78.3772 
 537   0.0000       2.886578        78.5478 
 538   0.0000       2.890099        78.6436 
 539   0.0000       2.893212        78.7283 
 540   0.0000       2.897182        78.8363 
 541   0.0000       2.900267        78.9203 
 542   0.0000       2.906451        79.0885 
 543   0.0000       2.908258        79.1377 
 544   0.0000       2.911046        79.2136 
 545   0.0000       2.912993        79.2666 
 546   0.0000       2.922633        79.5289 
 547   0.0000       2.924484        79.5793 
 548   0.0000       2.931676        79.7749 
 549   0.0000       2.933355        79.8206 
 550   0.0000       2.940102        80.0042 
 551   0.0000       2.942790        80.0774 
 552   0.0000       2.949926        80.2716 
 553   0.0000       2.952386        80.3385 
 554   0.0000       2.953841        80.3781 
 555   0.0000       2.965040        80.6828 
 556   0.0000       2.968364        80.7733 
 557   0.0000       2.973935        80.9249 
 558   0.0000       2.978018        81.0360 
 559   0.0000       2.984995        81.2258 
 560   0.0000       2.987017        81.2809 
 561   0.0000       2.990665        81.3801 
 562   0.0000       2.991082        81.3915 
 563   0.0000       2.997784        81.5739 
 564   0.0000       3.003399        81.7267 
 565   0.0000       3.010266        81.9135 
 566   0.0000       3.014606        82.0316 
 567   0.0000       3.025230        82.3207 
 568   0.0000       3.028486        82.4093 
 569   0.0000       3.034415        82.5706 
 570   0.0000       3.041544        82.7646 
 571   0.0000       3.043386        82.8147 
 572   0.0000       3.051104        83.0248 
 573   0.0000       3.052730        83.0690 
 574   0.0000       3.053824        83.0988 
 575   0.0000       3.056490        83.1713 
 576   0.0000       3.065245        83.4096 
 577   0.0000       3.070765        83.5598 
 578   0.0000       3.074161        83.6522 
 579   0.0000       3.075473        83.6879 
 580   0.0000       3.082395        83.8762 
 581   0.0000       3.087828        84.0241 
 582   0.0000       3.099585        84.3440 
 583   0.0000       3.101908        84.4072 
 584   0.0000       3.105796        84.5130 
 585   0.0000       3.111932        84.6800 
 586   0.0000       3.116677        84.8091 
 587   0.0000       3.119672        84.8906 
 588   0.0000       3.130046        85.1729 
 589   0.0000       3.140698        85.4627 
 590   0.0000       3.148883        85.6855 
 591   0.0000       3.153241        85.8041 
 592   0.0000       3.167865        86.2020 
 593   0.0000       3.178908        86.5025 
 594   0.0000       3.188780        86.7711 
 595   0.0000       3.198871        87.0457 
 596   0.0000       3.210573        87.3641 
 597   0.0000       3.215368        87.4946 
 598   0.0000       3.221341        87.6571 
 599   0.0000       3.226075        87.7860 
 600   0.0000       3.228753        87.8588 
 601   0.0000       3.238361        88.1203 
 602   0.0000       3.240041        88.1660 
 603   0.0000       3.251634        88.4814 
 604   0.0000       3.255008        88.5733 
 605   0.0000       3.261124        88.7397 
[...]
    82a ->  94a  :     0.013210 
    83a ->  90a  :     0.345021 
    83a ->  91a  :     0.012343 
    84a ->  90a  :     0.011403 
    85a ->  90a  :     0.019225 

STATE 19:  E=   0.245641 au      6.684 eV    53911.9 cm**-1 <S**2> =   0.000000
    81a ->  88a  :     0.048213 
    81a ->  89a  :     0.018546 
    81a ->  94a  :     0.014983 
    82a ->  90a  :     0.269936 
    82a ->  91a  :     0.010261 
    83a ->  89a  :     0.143126 
    83a ->  91a  :     0.025964 
    83a ->  93a  :     0.054334 
    84a ->  91a  :     0.014857 
    85a ->  88a  :     0.033313 
    85a ->  98a  :     0.010398 
    86a ->  88a  :     0.024277 
    86a ->  94a  :     0.022772 
    87a ->  88a  :     0.027191 
    87a ->  92a  :     0.031393 
    87a ->  93a  :     0.018478 
    87a ->  94a  :     0.042102 
    87a ->  98a  :     0.039045 

STATE 20:  E=   0.245897 au      6.691 eV    53968.1 cm**-1 <S**2> =   0.000000
    80a ->  91a  :     0.010639 
    80a ->  92a  :     0.011248 
    82a ->  90a  :     0.025043 
    83a ->  89a  :     0.027149 
    85a ->  88a  :     0.033230 
    85a ->  89a  :     0.038234 
    85a ->  93a  :     0.020635 
    86a ->  89a  :     0.058909 
    86a ->  91a  :     0.055700 
    87a ->  91a  :     0.041774 
    87a ->  92a  :     0.041270 
    87a ->  93a  :     0.017400 
    87a ->  95a  :     0.144171 
    87a ->  96a  :     0.204400 
    87a ->  98a  :     0.010877 
    87a -> 112a  :     0.015624 
    87a -> 116a  :     0.014525 

STATE 21:  E=   0.248800 au      6.770 eV    54605.2 cm**-1 <S**2> =   0.000000
    82a ->  90a  :     0.053031 
    83a ->  89a  :     0.031475 
    85a ->  88a  :     0.032078 
    85a ->  89a  :     0.021799 
    85a ->  93a  :     0.034760 
    86a ->  88a  :     0.010362 
    86a ->  89a  :     0.042332 
    86a ->  91a  :     0.020527 
    86a ->  92a  :     0.027153 
    86a ->  93a  :     0.021022 
    87a ->  91a  :     0.012378 
    87a ->  94a  :     0.014633 
    87a ->  95a  :     0.117540 
    87a ->  96a  :     0.132892 
    87a ->  97a  :     0.074530 
    87a ->  98a  :     0.072272 
    87a -> 112a  :     0.016699 
    87a -> 116a  :     0.020960 

STATE 22:  E=   0.251546 au      6.845 eV    55208.0 cm**-1 <S**2> =   0.000000
    80a ->  89a  :     0.026413 
    80a ->  91a  :     0.017248 
    80a ->  92a  :     0.022408 
    81a ->  89a  :     0.026217 
    81a ->  92a  :     0.010287 
    81a ->  94a  :     0.013274 
    82a ->  90a  :     0.033561 
    83a ->  91a  :     0.024669 
    83a ->  94a  :     0.010720 
    84a ->  88a  :     0.011048 
    85a ->  89a  :     0.067106 
    85a ->  91a  :     0.068643 
    85a ->  93a  :     0.011523 
    85a ->  94a  :     0.073331 
    86a ->  89a  :     0.018587 
    86a ->  91a  :     0.030663 
    86a ->  92a  :     0.026708 
    87a ->  89a  :     0.015154 
    87a ->  91a  :     0.045240 
    87a ->  92a  :     0.073347 
    87a ->  94a  :     0.025066 
    87a ->  96a  :     0.060824 
    87a ->  98a  :     0.124259 

STATE 23:  E=   0.255975 au      6.965 eV    56180.0 cm**-1 <S**2> =   0.000000
    79a ->  89a  :     0.014611 
    79a ->  91a  :     0.014053 
    80a ->  89a  :     0.013963 
    80a ->  91a  :     0.051041 
    80a ->  92a  :     0.024073 
    80a ->  94a  :     0.011627 
    81a ->  89a  :     0.027343 
    81a ->  91a  :     0.023934 
    84a ->  88a  :     0.027427 
    85a ->  89a  :     0.050149 
    85a ->  92a  :     0.031460 
    85a ->  94a  :     0.068613 
    86a ->  89a  :     0.014615 
    86a ->  91a  :     0.024487 
    86a ->  92a  :     0.107505 
    86a ->  93a  :     0.019455 
    86a ->  94a  :     0.077438 
    87a ->  91a  :     0.036140 
    87a ->  92a  :     0.031199 
    87a ->  93a  :     0.013113 
    87a ->  94a  :     0.047998 
    87a ->  97a  :     0.053350 
    87a ->  98a  :     0.039475 
    87a -> 101a  :     0.016846 

STATE 24:  E=   0.267506 au      7.279 eV    58710.8 cm**-1 <S**2> =   0.000000
    80a ->  88a  :     0.015349 
    80a ->  96a  :     0.012695 
    85a ->  96a  :     0.017189 
    86a ->  95a  :     0.019215 
    86a ->  96a  :     0.022966 
    86a ->  99a  :     0.025604 
    87a ->  97a  :     0.090911 
    87a ->  99a  :     0.358601 
    87a -> 100a  :     0.166863 
    87a -> 101a  :     0.024468 
    87a -> 105a  :     0.018438 
    87a -> 108a  :     0.011859 
    87a -> 110a  :     0.012186 

STATE 25:  E=   0.269052 au      7.321 eV    59050.1 cm**-1 <S**2> =   0.000000
    85a ->  95a  :     0.043572 
    85a ->  97a  :     0.025222 
    86a ->  96a  :     0.011172 
    86a ->  99a  :     0.033477 
    87a ->  95a  :     0.018314 
    87a ->  96a  :     0.123983 
    87a ->  97a  :     0.140879 
    87a ->  98a  :     0.097346 
    87a ->  99a  :     0.073715 
    87a -> 101a  :     0.188934 
    87a -> 105a  :     0.022084 
    87a -> 106a  :     0.011920 
    87a -> 110a  :     0.013086 
    87a -> 112a  :     0.021873 

STATE 26:  E=   0.262804 au      7.151 eV    57678.8 cm**-1 <S**2> =   0.000000
    79a ->  88a  :     0.030411 
    79a ->  93a  :     0.014245 
    80a ->  88a  :     0.144629 
    80a ->  91a  :     0.047655 
    80a ->  92a  :     0.070846 
    81a ->  88a  :     0.051569 
    85a ->  91a  :     0.050793 
    85a ->  92a  :     0.056862 
    86a ->  89a  :     0.036159 
    86a ->  91a  :     0.047341 
    86a ->  92a  :     0.020471 
    86a ->  93a  :     0.034560 
    87a ->  92a  :     0.017912 
    87a ->  93a  :     0.023005 
    87a ->  96a  :     0.014406 
    87a ->  98a  :     0.079832 
    87a ->  99a  :     0.021468 

STATE 27:  E=   0.265938 au      7.237 eV    58366.5 cm**-1 <S**2> =   0.000000
    79a ->  88a  :     0.032469 
    79a ->  92a  :     0.020543 
    80a ->  88a  :     0.241617 
    80a ->  89a  :     0.012061 
    80a ->  91a  :     0.042531 
    80a ->  92a  :     0.041852 
    81a ->  89a  :     0.014711 
    83a ->  88a  :     0.022296 
    85a ->  88a  :     0.019433 
    85a ->  89a  :     0.014101 
    85a ->  91a  :     0.014395 
    85a ->  92a  :     0.039858 
    85a ->  94a  :     0.060782 
    86a ->  89a  :     0.012373 
    86a ->  91a  :     0.042638 
    86a ->  92a  :     0.041771 
    87a ->  92a  :     0.010987 
    87a ->  98a  :     0.080087 

STATE 28:  E=   0.278199 au      7.570 eV    61057.7 cm**-1 <S**2> =   0.000000
    80a ->  95a  :     0.013545 
    80a ->  96a  :     0.012546 
    85a ->  90a  :     0.011807 
    85a ->  96a  :     0.017302 
    86a ->  90a  :     0.019538 
    86a ->  95a  :     0.068621 
    86a ->  96a  :     0.050577 
    86a ->  97a  :     0.036436 
    86a ->  99a  :     0.019482 
    86a -> 100a  :     0.010076 
    86a -> 106a  :     0.010416 
    86a -> 112a  :     0.017317 
    87a ->  96a  :     0.041351 
    87a ->  97a  :     0.043411 
    87a ->  99a  :     0.023047 
    87a -> 100a  :     0.101014 
    87a -> 101a  :     0.010512 
    87a -> 102a  :     0.015432 
    87a -> 105a  :     0.028913 
    87a -> 106a  :     0.010744 
    87a -> 108a  :     0.027594 
    87a -> 110a  :     0.169018 
    87a -> 112a  :     0.022915 
    87a -> 113a  :     0.011352 

STATE 29:  E=   0.269600 au      7.336 eV    59170.4 cm**-1 <S**2> =   0.000000
    79a ->  90a  :     0.013369 
    85a ->  90a  :     0.249440 
    85a ->  91a  :     0.025967 
    85a ->  95a  :     0.010924 
    85a ->  96a  :     0.015778 
    86a ->  90a  :     0.298525 
    86a ->  91a  :     0.015221 
    87a ->  90a  :     0.014455 
    87a ->  97a  :     0.029251 
    87a ->  98a  :     0.011198 
    87a -> 100a  :     0.039400 
    87a -> 101a  :     0.014751 
    87a -> 106a  :     0.013850 
    87a -> 110a  :     0.048528 

STATE 30:  E=   0.278914 au      7.590 eV    61214.5 cm**-1 <S**2> =   0.000000
    80a ->  95a  :     0.013044 
    85a ->  90a  :     0.080731 
    85a ->  95a  :     0.034097 
    85a ->  96a  :     0.053620 
    86a ->  90a  :     0.143210 
    86a ->  91a  :     0.014779 
    87a ->  90a  :     0.010830 
    87a ->  97a  :     0.045287 
    87a -> 100a  :     0.042095 
    87a -> 101a  :     0.024713 
    87a -> 106a  :     0.029830 
    87a -> 108a  :     0.014717 
    87a -> 110a  :     0.230249 
    87a -> 113a  :     0.021023 


-------------------------
TD-DFT-EXCITATION SPECTRA
-------------------------

Center of mass = (  0.0071,  0.0311, -0.0005)
Calculating the Dipole integrals                  ... done
Transforming integrals                            ... done
Calculating the Linear Momentum integrals         ... done
Transforming integrals                            ... done
Calculating angular momentum integrals            ... done
Transforming integrals                            ... done

-----------------------------------------------------------------------------
         ABSORPTION SPECTRUM VIA TRANSITION ELECTRIC DIPOLE MOMENTS
-----------------------------------------------------------------------------
State   Energy    Wavelength  fosc         T2        TX        TY        TZ  
        (cm-1)      (nm)                 (au**2)    (au)      (au)      (au) 
-----------------------------------------------------------------------------
   1   30844.4    324.2   0.381000938   4.06655   1.97557   0.40437  -0.01255
   2   33989.1    294.2   0.203859025   1.97454  -1.34971  -0.38658   0.05808
   3   35704.4    280.1   0.083889424   0.77350   0.69276   0.54113  -0.02768
   4   41150.3    243.0   0.462555079   3.70055  -1.88268   0.39368  -0.03264
   5   39726.5    251.7   0.009798421   0.08120  -0.27669   0.05392   0.04165
   6   39919.4    250.5   0.002223981   0.01834   0.02477  -0.12700  -0.03998
   7   43294.9    231.0   0.001591659   0.01210  -0.03871   0.00904   0.10258
   8   43533.4    229.7   0.131216635   0.99230   0.65132   0.73058  -0.18528
   9   47650.3    209.9   0.228159679   1.57633  -1.02178  -0.72880   0.03410
  10   47930.8    208.6   0.404740840   2.77996   1.41077   0.88476  -0.08292
  11   48981.2    204.2   0.350369413   2.35490   1.38137   0.64890  -0.16012
  12   47581.3    210.2   0.062455529   0.43213  -0.31758  -0.39114  -0.42223
  13   48585.9    205.8   0.553480921   3.75032   1.90173   0.26336   0.25374
  14   50452.1    198.2   0.112702694   0.73541  -0.74843   0.24718  -0.33788
  15   50289.1    198.9   1.444847189   9.45854   1.16695  -2.83515  -0.24228
  16   50353.7    198.6   0.032106743   0.20991   0.35661  -0.24005  -0.15850
  17   51938.7    192.5   0.238965881   1.51468  -1.12836  -0.49065  -0.02739
  18   54743.0    182.7   0.646760236   3.88947   0.08380   0.10938   1.96735
  19   53911.9    185.5   0.848219078   5.17963  -1.17844   1.94678  -0.03144
  20   53968.1    185.3   0.019265214   0.11752   0.28947  -0.10746  -0.14893
  21   54605.2    183.1   0.015037523   0.09066   0.23269   0.18379   0.05233
  22   55208.0    181.1   0.050595159   0.30171   0.19020  -0.45830  -0.23556
  23   56180.0    178.0   0.164535187   0.96417   0.13965   0.85989   0.45305
  24   58710.8    170.3   0.011011146   0.06174  -0.02803   0.24313   0.04297
  25   59050.1    169.3   0.005578598   0.03110  -0.09143   0.12770   0.08022
  26   57678.8    173.4   0.035219083   0.20102   0.42607   0.13951   0.00463
  27   58366.5    171.3   0.134723305   0.75990   0.86481   0.10257  -0.03855
  28   61057.7    163.8   0.004035758   0.02176   0.04050  -0.06482  -0.12617
  29   59170.4    169.0   0.006649415   0.03700   0.01409   0.13031   0.14077
  30   61214.5    163.4   0.001484768   0.00799  -0.01721   0.02775  -0.08318

-----------------------------------------------------------------------------
         ABSORPTION SPECTRUM VIA TRANSITION VELOCITY DIPOLE MOMENTS
-----------------------------------------------------------------------------
State   Energy    Wavelength   fosc        P2         PX        PY        PZ  
        (cm-1)      (nm)                 (au**2)     (au)      (au)      (au) 
-----------------------------------------------------------------------------
   1   30844.4    324.2   0.435906538   0.09189  -0.29686  -0.06136   0.00182
   2   33989.1    294.2   0.250442802   0.05818   0.23149   0.06703  -0.00994
   3   35704.4    280.1   0.104161872   0.02542  -0.12614  -0.09738   0.00498
   4   41150.3    243.0   0.490052708   0.13782   0.36312  -0.07699   0.00642
   5   39726.5    251.7   0.011596394   0.00315   0.05432  -0.01148  -0.00812
   6   39919.4    250.5   0.002762307   0.00075  -0.00474   0.02579   0.00814
   7   43294.9    231.0   0.001744447   0.00052   0.00765  -0.00221  -0.02128
   8   43533.4    229.7   0.162538440   0.04836  -0.14453  -0.16097   0.03949
   9   47650.3    209.9   0.235423968   0.07667   0.22518   0.16092  -0.00837
  10   47930.8    208.6   0.421140256   0.13796  -0.31413  -0.19724   0.01944
  11   48981.2    204.2   0.358248464   0.11993  -0.31255  -0.14534   0.03344
  12   47581.3    210.2   0.057917048   0.01883   0.07107   0.08797   0.07775
  13   48585.9    205.8   0.597987636   0.19857  -0.43719  -0.06152  -0.06043
  14   50452.1    198.2   0.120809605   0.04166   0.17657  -0.05906   0.08361
  15   50289.1    198.9   1.583474762   0.54424  -0.27883   0.68023   0.06148
  16   50353.7    198.6   0.036460075   0.01255  -0.08668   0.05889   0.03958
  17   51938.7    192.5   0.269629897   0.09571   0.28344   0.12378   0.00713
  18   54743.0    182.7   0.682788044   0.25546  -0.02165  -0.02807  -0.50418
  19   53911.9    185.5   0.936422895   0.34504   0.30471  -0.50211   0.00834
  20   53968.1    185.3   0.022933718   0.00846  -0.07752   0.02874   0.04029
  21   54605.2    183.1   0.017099467   0.00638  -0.06161  -0.04838  -0.01565
  22   55208.0    181.1   0.057514226   0.02170  -0.05150   0.12336   0.06189
  23   56180.0    178.0   0.192805855   0.07403  -0.03903  -0.23934  -0.12338
  24   58710.8    170.3   0.011714968   0.00470   0.00756  -0.06759  -0.00865
  25   59050.1    169.3   0.006961517   0.00281   0.02529  -0.03536  -0.03032
  26   57678.8    173.4   0.041093608   0.01620  -0.12069  -0.04038  -0.00198
  27   58366.5    171.3   0.154548299   0.06165  -0.24637  -0.02882   0.01110
  28   61057.7    163.8   0.003786314   0.00158  -0.01194   0.01734   0.03372
  29   59170.4    169.0   0.007420271   0.00300  -0.00368  -0.03828  -0.03901
  30   61214.5    163.4   0.001372859   0.00057   0.00401  -0.00775   0.02232

-------------------------------------------------------------------
                             CD SPECTRUM
-------------------------------------------------------------------
State  Energy     Wavelength     R         MX        MY        MZ   
       (cm-1)       (nm)     (1e40*cgs)   (au)      (au)      (au)  
-------------------------------------------------------------------
   1   30844.4    324.2     17.64868   0.01520   0.04723   0.93185
   2   33989.1    294.2      7.13357  -0.00769   0.04534   0.38368
   3   35704.4    280.1      6.13761   0.00898   0.00066  -0.23261
   4   41150.3    243.0     -3.77634  -0.01630  -0.02999   0.82390
   5   39726.5    251.7     12.87009  -0.08068   0.21505  -0.15893
   6   39919.4    250.5     -6.76892  -0.07605   0.03574   0.19847
   7   43294.9    231.0     -0.33785  -0.04192  -0.05917  -0.01759
   8   43533.4    229.7     35.81790   0.04508  -0.01494  -0.31052
   9   47650.3    209.9    -54.33069   0.02967   0.10915  -0.15753
  10   47930.8    208.6    -92.63794  -0.02068  -0.16979   0.20618
  11   48981.2    204.2    -75.60338  -0.03221  -0.11965   0.23877
  12   47581.3    210.2    -43.54955  -0.08406  -0.05505   0.33300
  13   48585.9    205.8    -54.56331  -0.01943   0.42755  -0.75423
  14   50452.1    198.2    -463.36942   0.01977  -0.45580   2.53164
  15   50289.1    198.9    706.33115   0.03500  -0.55849   0.52018
  16   50353.7    198.6     20.02453   0.00534  -0.22986   0.09214
  17   51938.7    192.5     16.76950  -0.00280  -0.03203  -0.60964
  18   54743.0    182.7      4.27464  -1.32057  -1.64745   0.15245
  19   53911.9    185.5     28.58130   0.00175   0.04405   0.73374
  20   53968.1    185.3    -16.45958   0.08678  -0.14006   0.50415
  21   54605.2    183.1     -0.47551  -0.08298   0.07395   0.08998
  22   55208.0    181.1      1.09320  -0.01270  -0.33133   0.62453
  23   56180.0    178.0     11.98735  -0.01084   0.48196  -0.85529
  24   58710.8    170.3     38.84652  -0.13305   0.38224  -0.33200
  25   59050.1    169.3      3.06592  -0.05911   0.06461  -0.08916
  26   57678.8    173.4     -1.08454   0.02126  -0.06637  -0.45360
  27   58366.5    171.3     -9.38141  -0.03785   0.02440  -0.26811
  28   61057.7    163.8      1.65083  -0.04081  -0.11116   0.01626
  29   59170.4    169.0     -5.38653   0.14427   0.00782  -0.10285
  30   61214.5    163.4     -3.07914   0.04116  -0.14056   0.02310

Total run time:     2558.224 sec

           *** ORCA-CIS/TD-DFT FINISHED WITHOUT ERROR ***

Maximum memory used throughout the entire CIS-calculation: 3914.8 MB

-----------------------
CIS/TD-DFT TOTAL ENERGY
-----------------------

    E(SCF)  =  -1051.841741806 Eh
    DE(CIS) =      0.140537201 Eh (Root  1)
    ----------------------------- ---------
    E(tot)  =  -1051.701204605 Eh


-------------------------   --------------------
FINAL SINGLE POINT ENERGY     -1051.701204604915
-------------------------   --------------------


                            ***************************************
                            *     ORCA property calculations      *
                            ***************************************


  WARNING: The energy has been calculated at the MP2 level but the densities
           used in the property calculations are still SCF densities
           MP2 response densities have not been calculated 
           use %mp2 Density relaxed end
           or  %mp2 Density unrelaxed end

                                    ---------------------
                                    Active property flags
                                    ---------------------
   (+) Dipole Moment


------------------------------------------------------------------------------
                       ORCA ELECTRIC PROPERTIES CALCULATION
------------------------------------------------------------------------------

Dipole Moment Calculation                       ... on
Quadrupole Moment Calculation                   ... off
Polarizability Calculation                      ... off
GBWName                                         ... POZ_3_M06L_def2TZVP_coords.gbw
Electron density                                ... POZ_3_M06L_def2TZVP_coords.scfp
The origin for moment calculation is the CENTER OF MASS  = ( 0.007074,  0.031141 -0.000544)

-------------
DIPOLE MOMENT
-------------
                                X             Y             Z
Electronic contribution:      2.07417       4.41055      -0.07177
Nuclear contribution   :     -1.24498      -5.48076       0.09574
                        -----------------------------------------
Total Dipole Moment    :      0.82918      -1.07021       0.02397
                        -----------------------------------------
Magnitude (a.u.)       :      1.35406
Magnitude (Debye)      :      3.44174



--------------------
Rotational spectrum 
--------------------
 
Rotational constants in cm-1:     0.011848     0.003953     0.003079 
Rotational constants in MHz :   355.195780   118.521258    92.295779 

 Dipole components along the rotational axes: 
x,y,z [a.u.] :     0.826584    -1.072294     0.020355 
x,y,z [Debye]:     2.101009    -2.725554     0.051740 

 

Timings for individual modules:

Sum of individual times         ...     3026.359 sec (=  50.439 min)
GTO integral calculation        ...        1.317 sec (=   0.022 min)   0.0 %
SCF iterations                  ...      303.499 sec (=   5.058 min)  10.0 %
MP2 module                      ...      162.703 sec (=   2.712 min)   5.4 %
CIS module                      ...     2558.840 sec (=  42.647 min)  84.6 %
                             ****ORCA TERMINATED NORMALLY****
TOTAL RUN TIME: 0 days 0 hours 50 minutes 28 seconds 807 msec
