 Entering Gaussian System, Link 0=g09
 Input=/home/png4rjv/fotokatalizis/benchmark/OPCs/RESTART/POZ_3_M062X_def2TZVP_RE.gjf
 Output=/home/png4rjv/fotokatalizis/benchmark/OPCs/RESTART/POZ_3_M062X_def2TZVP_RE.log
 Initial command:
 /opt/nce/packages/global/g09/l1.exe "/home/png4rjv/fotokatalizis/benchmark/OPCs/RESTART/POZ_3_M062X_def2TZVP_RE/Gau-28262.inp" -scrdir="/home/png4rjv/fotokatalizis/benchmark/OPCs/RESTART/POZ_3_M062X_def2TZVP_RE/"
 Default is to use a total of  12 processors:
                               12 via shared-memory
                                1 via Linda
 Entering Link 1 = /opt/nce/packages/global/g09/l1.exe PID=     28263.
  
 Copyright (c) 1988,1990,1992,1993,1995,1998,2003,2009,2015,
            Gaussian, Inc.  All Rights Reserved.
  
 This is part of the Gaussian(R) 09 program.  It is based on
 the Gaussian(R) 03 system (copyright 2003, Gaussian, Inc.),
 the Gaussian(R) 98 system (copyright 1998, Gaussian, Inc.),
 the Gaussian(R) 94 system (copyright 1995, Gaussian, Inc.),
 the Gaussian 92(TM) system (copyright 1992, Gaussian, Inc.),
 the Gaussian 90(TM) system (copyright 1990, Gaussian, Inc.),
 the Gaussian 88(TM) system (copyright 1988, Gaussian, Inc.),
 the Gaussian 86(TM) system (copyright 1986, Carnegie Mellon
 University), and the Gaussian 82(TM) system (copyright 1983,
 Carnegie Mellon University). Gaussian is a federally registered
 trademark of Gaussian, Inc.
  
 This software contains proprietary and confidential information,
 including trade secrets, belonging to Gaussian, Inc.
  
 This software is provided under written license and may be
 used, copied, transmitted, or stored only in accord with that
 written license.
  
 The following legend is applicable only to US Government
 contracts under FAR:
  
                    RESTRICTED RIGHTS LEGEND
  
 Use, reproduction and disclosure by the US Government is
 subject to restrictions as set forth in subparagraphs (a)
 and (c) of the Commercial Computer Software - Restricted
 Rights clause in FAR 52.227-19.
  
 Gaussian, Inc.
 340 Quinnipiac St., Bldg. 40, Wallingford CT 06492
  
  
 ---------------------------------------------------------------
 Warning -- This program may not be used in any manner that
 competes with the business of Gaussian, Inc. or will provide
 assistance to any competitor of Gaussian, Inc.  The licensee
 of this program is prohibited from giving any competitor of
 Gaussian, Inc. access to this program.  By using this program,
 the user acknowledges that Gaussian, Inc. is engaged in the
 business of creating and licensing software in the field of
 computational chemistry and represents and warrants to the
 licensee that it is not a competitor of Gaussian, Inc. and that
 it will not use this program in any manner prohibited above.
 ---------------------------------------------------------------
  

 Cite this work as:
 Gaussian 09, Revision E.01,
 M. J. Frisch, G. W. Trucks, H. B. Schlegel, G. E. Scuseria, 
 M. A. Robb, J. R. Cheeseman, G. Scalmani, V. Barone, B. Mennucci, 
 G. A. Petersson, H. Nakatsuji, M. Caricato, X. Li, H. P. Hratchian, 
 A. F. Izmaylov, J. Bloino, G. Zheng, J. L. Sonnenberg, M. Hada, 
 M. Ehara, K. Toyota, R. Fukuda, J. Hasegawa, M. Ishida, T. Nakajima, 
 Y. Honda, O. Kitao, H. Nakai, T. Vreven, J. A. Montgomery, Jr., 
 J. E. Peralta, F. Ogliaro, M. Bearpark, J. J. Heyd, E. Brothers, 
 K. N. Kudin, V. N. Staroverov, T. Keith, R. Kobayashi, J. Normand, 
 K. Raghavachari, A. Rendell, J. C. Burant, S. S. Iyengar, J. Tomasi, 
 M. Cossi, N. Rega, J. M. Millam, M. Klene, J. E. Knox, J. B. Cross, 
 V. Bakken, C. Adamo, J. Jaramillo, R. Gomperts, R. E. Stratmann, 
 O. Yazyev, A. J. Austin, R. Cammi, C. Pomelli, J. W. Ochterski, 
 R. L. Martin, K. Morokuma, V. G. Zakrzewski, G. A. Voth, 
 P. Salvador, J. J. Dannenberg, S. Dapprich, A. D. Daniels, 
 O. Farkas, J. B. Foresman, J. V. Ortiz, J. Cioslowski, 
 and D. J. Fox, Gaussian, Inc., Wallingford CT, 2013.
 
 ******************************************
 Gaussian 09:  ES64L-G09RevE.01 30-Nov-2015
                26-Mar-2021 
 ******************************************
 %chk=cp.chk
 Default route:  MaxDisk=500GB
 ----------------------------------------------------------------------
 #p m062x/def2TZVP opt freq=noraman nosymm int=ultrafine scrf=(SMD,solv
 ent=n,n-dimethylacetamide)
 ----------------------------------------------------------------------
 1/14=-1,18=20,19=15,26=4,38=1/1,3;
 2/9=110,12=2,15=1,17=6,18=5,40=1/2;
 3/5=44,7=101,11=2,16=1,25=1,30=1,70=32201,71=1,72=147,74=-55,75=-5/1,2,3;
 4//1;
 5/5=2,38=5,53=147/2;
 6/7=2,8=2,9=2,10=2,28=1/1;
 7/30=1/1,2,3,16;
 1/14=-1,18=20,19=15,26=4/3(2);
 2/9=110,15=1/2;
 99//99;
 2/9=110,15=1/2;
 3/5=44,7=101,11=2,16=1,25=1,30=1,70=32205,71=1,72=147,74=-55,75=-5/1,2,3;
 4/5=5,16=3,69=1/1;
 5/5=2,38=5,53=147/2;
 7/30=1/1,2,3,16;
 1/14=-1,18=20,19=15,26=4/3(-5);
 2/9=110,15=1/2;
 6/7=2,8=2,9=2,10=2,19=2,28=1/1;
 99/9=1/99;
 Leave Link    1 at Fri Mar 26 23:15:20 2021, MaxMem=           0 cpu:         0.9
 (Enter /opt/nce/packages/global/g09/l101.exe)
 -----
 Title
 -----
 Symbolic Z-matrix:
 Charge =  0 Multiplicity = 1
 C                     1.77839  -1.3545   -0.05826 
 C                     0.38887  -1.33867  -0.08176 
 C                    -0.31309  -0.13834  -0.05767 
 C                     0.42828   1.04932  -0.01727 
 C                     1.80438   1.03346   0.00618 
 C                     2.51167  -0.17433  -0.01293 
 C                    -1.55331   2.3313    0.04323 
 C                    -2.33668   1.17081   0.00285 
 C                    -3.72019   1.31026   0.04924 
 H                    -4.34392   0.42683   0.02339 
 C                    -4.30566   2.57097   0.12683 
 C                    -3.51836   3.70798   0.16268 
 C                    -2.13225   3.58001   0.1222 
 H                    -0.15554  -2.27214  -0.12842 
 H                     2.32161   1.98354   0.05853 
 H                    -5.3846    2.65017   0.15925 
 N                    -1.70614  -0.07352  -0.08051 
 C                    -2.48155  -1.27314  -0.08843 
 C                    -2.94467  -1.7834   -1.29373 
 C                    -2.76654  -1.91735   1.10866 
 C                    -3.70135  -2.94801  -1.30014 
 C                    -3.52016  -3.08332   1.0974 
 H                    -2.39501  -1.50184   2.03786 
 C                    -3.98822  -3.5978   -0.10598 
 H                    -3.74367  -3.58871   2.0284 
 H                    -4.57749  -4.50607  -0.1127 
 H                    -1.48445   4.4473    0.15012 
 H                     2.28845  -2.30853  -0.09863 
 C                     3.99243  -0.18413   0.00796 
 C                     4.72623   0.82519  -0.621 
 C                     4.69159  -1.20595   0.6562 
 C                     6.11373   0.81273  -0.603 
 H                     4.20738   1.61788  -1.1464 
 C                     6.07894  -1.21935   0.67249 
 H                     4.14455  -1.98739   1.1695 
 C                     6.79697  -0.20987   0.04327 
 H                     6.66261   1.60145  -1.10267 
 H                     6.60061  -2.01739   1.18631 
 O                    -0.18146   2.27899  -0.00027 
 H                    -3.96649   4.69082   0.22261 
 H                     7.87961  -0.21966   0.05709 
 H                    -4.06517  -3.34779  -2.23815 
 H                    -2.71032  -1.2642   -2.21536 
 
 NAtoms=     43 NQM=       43 NQMF=       0 NMMI=      0 NMMIF=      0
                NMic=       0 NMicF=      0.
                    Isotopes and Nuclear Properties:
 (Nuclear quadrupole moments (NQMom) in fm**2, nuclear magnetic moments (NMagM)
  in nuclear magnetons)

  Atom         1           2           3           4           5           6           7           8           9          10
 IAtWgt=          12          12          12          12          12          12          12          12          12           1
 AtmWgt=  12.0000000  12.0000000  12.0000000  12.0000000  12.0000000  12.0000000  12.0000000  12.0000000  12.0000000   1.0078250
 NucSpn=           0           0           0           0           0           0           0           0           0           1
 AtZEff=   0.0000000   0.0000000   0.0000000   0.0000000   0.0000000   0.0000000   0.0000000   0.0000000   0.0000000   0.0000000
 NQMom=    0.0000000   0.0000000   0.0000000   0.0000000   0.0000000   0.0000000   0.0000000   0.0000000   0.0000000   0.0000000
 NMagM=    0.0000000   0.0000000   0.0000000   0.0000000   0.0000000   0.0000000   0.0000000   0.0000000   0.0000000   2.7928460
 AtZNuc=   6.0000000   6.0000000   6.0000000   6.0000000   6.0000000   6.0000000   6.0000000   6.0000000   6.0000000   1.0000000

  Atom        11          12          13          14          15          16          17          18          19          20
 IAtWgt=          12          12          12           1           1           1          14          12          12          12
 AtmWgt=  12.0000000  12.0000000  12.0000000   1.0078250   1.0078250   1.0078250  14.0030740  12.0000000  12.0000000  12.0000000
 NucSpn=           0           0           0           1           1           1           2           0           0           0
 AtZEff=   0.0000000   0.0000000   0.0000000   0.0000000   0.0000000   0.0000000   0.0000000   0.0000000   0.0000000   0.0000000
 NQMom=    0.0000000   0.0000000   0.0000000   0.0000000   0.0000000   0.0000000   2.0440000   0.0000000   0.0000000   0.0000000
 NMagM=    0.0000000   0.0000000   0.0000000   2.7928460   2.7928460   2.7928460   0.4037610   0.0000000   0.0000000   0.0000000
 AtZNuc=   6.0000000   6.0000000   6.0000000   1.0000000   1.0000000   1.0000000   7.0000000   6.0000000   6.0000000   6.0000000

  Atom        21          22          23          24          25          26          27          28          29          30
 IAtWgt=          12          12           1          12           1           1           1           1          12          12
 AtmWgt=  12.0000000  12.0000000   1.0078250  12.0000000   1.0078250   1.0078250   1.0078250   1.0078250  12.0000000  12.0000000
 NucSpn=           0           0           1           0           1           1           1           1           0           0
 AtZEff=   0.0000000   0.0000000   0.0000000   0.0000000   0.0000000   0.0000000   0.0000000   0.0000000   0.0000000   0.0000000
 NQMom=    0.0000000   0.0000000   0.0000000   0.0000000   0.0000000   0.0000000   0.0000000   0.0000000   0.0000000   0.0000000
 NMagM=    0.0000000   0.0000000   2.7928460   0.0000000   2.7928460   2.7928460   2.7928460   2.7928460   0.0000000   0.0000000
 AtZNuc=   6.0000000   6.0000000   1.0000000   6.0000000   1.0000000   1.0000000   1.0000000   1.0000000   6.0000000   6.0000000

  Atom        31          32          33          34          35          36          37          38          39          40
 IAtWgt=          12          12           1          12           1          12           1           1          16           1
 AtmWgt=  12.0000000  12.0000000   1.0078250  12.0000000   1.0078250  12.0000000   1.0078250   1.0078250  15.9949146   1.0078250
 NucSpn=           0           0           1           0           1           0           1           1           0           1
 AtZEff=   0.0000000   0.0000000   0.0000000   0.0000000   0.0000000   0.0000000   0.0000000   0.0000000   0.0000000   0.0000000
 NQMom=    0.0000000   0.0000000   0.0000000   0.0000000   0.0000000   0.0000000   0.0000000   0.0000000   0.0000000   0.0000000
 NMagM=    0.0000000   0.0000000   2.7928460   0.0000000   2.7928460   0.0000000   2.7928460   2.7928460   0.0000000   2.7928460
 AtZNuc=   6.0000000   6.0000000   1.0000000   6.0000000   1.0000000   6.0000000   1.0000000   1.0000000   8.0000000   1.0000000

  Atom        41          42          43
 IAtWgt=           1           1           1
 AtmWgt=   1.0078250   1.0078250   1.0078250
 NucSpn=           1           1           1
 AtZEff=   0.0000000   0.0000000   0.0000000
 NQMom=    0.0000000   0.0000000   0.0000000
 NMagM=    2.7928460   2.7928460   2.7928460
 AtZNuc=   1.0000000   1.0000000   1.0000000
 Leave Link  101 at Fri Mar 26 23:15:20 2021, MaxMem=  5242880000 cpu:         4.2
 (Enter /opt/nce/packages/global/g09/l103.exe)

 GradGradGradGradGradGradGradGradGradGradGradGradGradGradGradGradGradGrad
 Berny optimization.
 Initialization pass.
                           ----------------------------
                           !    Initial Parameters    !
                           ! (Angstroms and Degrees)  !
 --------------------------                            --------------------------
 ! Name  Definition              Value          Derivative Info.                !
 --------------------------------------------------------------------------------
 ! R1    R(1,2)                  1.3898         estimate D2E/DX2                !
 ! R2    R(1,6)                  1.3902         estimate D2E/DX2                !
 ! R3    R(1,28)                 1.0826         estimate D2E/DX2                !
 ! R4    R(2,3)                  1.3907         estimate D2E/DX2                !
 ! R5    R(2,14)                 1.0816         estimate D2E/DX2                !
 ! R6    R(3,4)                  1.4006         estimate D2E/DX2                !
 ! R7    R(3,17)                 1.3947         estimate D2E/DX2                !
 ! R8    R(4,5)                  1.3764         estimate D2E/DX2                !
 ! R9    R(4,39)                 1.3726         estimate D2E/DX2                !
 ! R10   R(5,6)                  1.3998         estimate D2E/DX2                !
 ! R11   R(5,15)                 1.083          estimate D2E/DX2                !
 ! R12   R(6,29)                 1.4809         estimate D2E/DX2                !
 ! R13   R(7,8)                  1.4007         estimate D2E/DX2                !
 ! R14   R(7,13)                 1.3786         estimate D2E/DX2                !
 ! R15   R(7,39)                 1.3735         estimate D2E/DX2                !
 ! R16   R(8,9)                  1.3913         estimate D2E/DX2                !
 ! R17   R(8,17)                 1.3975         estimate D2E/DX2                !
 ! R18   R(9,10)                 1.0817         estimate D2E/DX2                !
 ! R19   R(9,11)                 1.3922         estimate D2E/DX2                !
 ! R20   R(11,12)                1.3834         estimate D2E/DX2                !
 ! R21   R(11,16)                1.0823         estimate D2E/DX2                !
 ! R22   R(12,13)                1.3926         estimate D2E/DX2                !
 ! R23   R(12,40)                1.0818         estimate D2E/DX2                !
 ! R24   R(13,27)                1.0829         estimate D2E/DX2                !
 ! R25   R(17,18)                1.4284         estimate D2E/DX2                !
 ! R26   R(18,19)                1.3884         estimate D2E/DX2                !
 ! R27   R(18,20)                1.389          estimate D2E/DX2                !
 ! R28   R(19,21)                1.3889         estimate D2E/DX2                !
 ! R29   R(19,43)                1.0835         estimate D2E/DX2                !
 ! R30   R(20,22)                1.3884         estimate D2E/DX2                !
 ! R31   R(20,23)                1.0836         estimate D2E/DX2                !
 ! R32   R(21,24)                1.3894         estimate D2E/DX2                !
 ! R33   R(21,42)                1.0826         estimate D2E/DX2                !
 ! R34   R(22,24)                1.3899         estimate D2E/DX2                !
 ! R35   R(22,25)                1.0827         estimate D2E/DX2                !
 ! R36   R(24,26)                1.0827         estimate D2E/DX2                !
 ! R37   R(29,30)                1.3974         estimate D2E/DX2                !
 ! R38   R(29,31)                1.3976         estimate D2E/DX2                !
 ! R39   R(30,32)                1.3877         estimate D2E/DX2                !
 ! R40   R(30,33)                1.0833         estimate D2E/DX2                !
 ! R41   R(31,34)                1.3875         estimate D2E/DX2                !
 ! R42   R(31,35)                1.0832         estimate D2E/DX2                !
 ! R43   R(32,36)                1.3893         estimate D2E/DX2                !
 ! R44   R(32,37)                1.0831         estimate D2E/DX2                !
 ! R45   R(34,36)                1.3894         estimate D2E/DX2                !
 ! R46   R(34,38)                1.0831         estimate D2E/DX2                !
 ! R47   R(36,41)                1.0828         estimate D2E/DX2                !
 ! A1    A(2,1,6)              121.215          estimate D2E/DX2                !
 ! A2    A(2,1,28)             118.7159         estimate D2E/DX2                !
 ! A3    A(6,1,28)             120.0549         estimate D2E/DX2                !
 ! A4    A(1,2,3)              120.9424         estimate D2E/DX2                !
 ! A5    A(1,2,14)             119.6113         estimate D2E/DX2                !
 ! A6    A(3,2,14)             119.444          estimate D2E/DX2                !
 ! A7    A(2,3,4)              117.7227         estimate D2E/DX2                !
 ! A8    A(2,3,17)             122.9534         estimate D2E/DX2                !
 ! A9    A(4,3,17)             119.3226         estimate D2E/DX2                !
 ! A10   A(3,4,5)              121.3261         estimate D2E/DX2                !
 ! A11   A(3,4,39)             121.6585         estimate D2E/DX2                !
 ! A12   A(5,4,39)             117.0153         estimate D2E/DX2                !
 ! A13   A(4,5,6)              120.9907         estimate D2E/DX2                !
 ! A14   A(4,5,15)             117.9173         estimate D2E/DX2                !
 ! A15   A(6,5,15)             121.0824         estimate D2E/DX2                !
 ! A16   A(1,6,5)              117.8019         estimate D2E/DX2                !
 ! A17   A(1,6,29)             121.4839         estimate D2E/DX2                !
 ! A18   A(5,6,29)             120.7135         estimate D2E/DX2                !
 ! A19   A(8,7,13)             121.1452         estimate D2E/DX2                !
 ! A20   A(8,7,39)             121.7426         estimate D2E/DX2                !
 ! A21   A(13,7,39)            117.1115         estimate D2E/DX2                !
 ! A22   A(7,8,9)              118.1723         estimate D2E/DX2                !
 ! A23   A(7,8,17)             119.1496         estimate D2E/DX2                !
 ! A24   A(9,8,17)             122.678          estimate D2E/DX2                !
 ! A25   A(8,9,10)             119.3884         estimate D2E/DX2                !
 ! A26   A(8,9,11)             120.718          estimate D2E/DX2                !
 ! A27   A(10,9,11)            119.8935         estimate D2E/DX2                !
 ! A28   A(9,11,12)            120.4225         estimate D2E/DX2                !
 ! A29   A(9,11,16)            119.1542         estimate D2E/DX2                !
 ! A30   A(12,11,16)           120.4233         estimate D2E/DX2                !
 ! A31   A(11,12,13)           119.3508         estimate D2E/DX2                !
 ! A32   A(11,12,40)           120.8214         estimate D2E/DX2                !
 ! A33   A(13,12,40)           119.8277         estimate D2E/DX2                !
 ! A34   A(7,13,12)            120.1904         estimate D2E/DX2                !
 ! A35   A(7,13,27)            118.4046         estimate D2E/DX2                !
 ! A36   A(12,13,27)           121.405          estimate D2E/DX2                !
 ! A37   A(3,17,8)             119.4103         estimate D2E/DX2                !
 ! A38   A(3,17,18)            120.215          estimate D2E/DX2                !
 ! A39   A(8,17,18)            120.2112         estimate D2E/DX2                !
 ! A40   A(17,18,19)           119.6397         estimate D2E/DX2                !
 ! A41   A(17,18,20)           119.7429         estimate D2E/DX2                !
 ! A42   A(19,18,20)           120.6174         estimate D2E/DX2                !
 ! A43   A(18,19,21)           119.5987         estimate D2E/DX2                !
 ! A44   A(18,19,43)           119.3533         estimate D2E/DX2                !
 ! A45   A(21,19,43)           121.048          estimate D2E/DX2                !
 ! A46   A(18,20,22)           119.5967         estimate D2E/DX2                !
 ! A47   A(18,20,23)           119.3975         estimate D2E/DX2                !
 ! A48   A(22,20,23)           121.0057         estimate D2E/DX2                !
 ! A49   A(19,21,24)           120.0449         estimate D2E/DX2                !
 ! A50   A(19,21,42)           119.7843         estimate D2E/DX2                !
 ! A51   A(24,21,42)           120.1708         estimate D2E/DX2                !
 ! A52   A(20,22,24)           120.0444         estimate D2E/DX2                !
 ! A53   A(20,22,25)           119.8091         estimate D2E/DX2                !
 ! A54   A(24,22,25)           120.1463         estimate D2E/DX2                !
 ! A55   A(21,24,22)           120.0976         estimate D2E/DX2                !
 ! A56   A(21,24,26)           119.9575         estimate D2E/DX2                !
 ! A57   A(22,24,26)           119.9449         estimate D2E/DX2                !
 ! A58   A(6,29,30)            120.925          estimate D2E/DX2                !
 ! A59   A(6,29,31)            120.7701         estimate D2E/DX2                !
 ! A60   A(30,29,31)           118.3048         estimate D2E/DX2                !
 ! A61   A(29,30,32)           120.8448         estimate D2E/DX2                !
 ! A62   A(29,30,33)           119.6889         estimate D2E/DX2                !
 ! A63   A(32,30,33)           119.4555         estimate D2E/DX2                !
 ! A64   A(29,31,34)           120.8452         estimate D2E/DX2                !
 ! A65   A(29,31,35)           119.6436         estimate D2E/DX2                !
 ! A66   A(34,31,35)           119.5001         estimate D2E/DX2                !
 ! A67   A(30,32,36)           120.2894         estimate D2E/DX2                !
 ! A68   A(30,32,37)           119.6164         estimate D2E/DX2                !
 ! A69   A(36,32,37)           120.0925         estimate D2E/DX2                !
 ! A70   A(31,34,36)           120.2903         estimate D2E/DX2                !
 ! A71   A(31,34,38)           119.6228         estimate D2E/DX2                !
 ! A72   A(36,34,38)           120.0848         estimate D2E/DX2                !
 ! A73   A(32,36,34)           119.4253         estimate D2E/DX2                !
 ! A74   A(32,36,41)           120.2859         estimate D2E/DX2                !
 ! A75   A(34,36,41)           120.2888         estimate D2E/DX2                !
 ! A76   A(4,39,7)             118.566          estimate D2E/DX2                !
 ! D1    D(6,1,2,3)             -0.1409         estimate D2E/DX2                !
 ! D2    D(6,1,2,14)           179.3047         estimate D2E/DX2                !
 ! D3    D(28,1,2,3)          -178.7704         estimate D2E/DX2                !
 ! D4    D(28,1,2,14)            0.6753         estimate D2E/DX2                !
 ! D5    D(2,1,6,5)             -0.1002         estimate D2E/DX2                !
 ! D6    D(2,1,6,29)          -179.8029         estimate D2E/DX2                !
 ! D7    D(28,1,6,5)           178.511          estimate D2E/DX2                !
 ! D8    D(28,1,6,29)           -1.1916         estimate D2E/DX2                !
 ! D9    D(1,2,3,4)              0.38           estimate D2E/DX2                !
 ! D10   D(1,2,3,17)           179.9629         estimate D2E/DX2                !
 ! D11   D(14,2,3,4)          -179.0666         estimate D2E/DX2                !
 ! D12   D(14,2,3,17)            0.5163         estimate D2E/DX2                !
 ! D13   D(2,3,4,5)             -0.3902         estimate D2E/DX2                !
 ! D14   D(2,3,4,39)           179.5613         estimate D2E/DX2                !
 ! D15   D(17,3,4,5)          -179.9888         estimate D2E/DX2                !
 ! D16   D(17,3,4,39)           -0.0372         estimate D2E/DX2                !
 ! D17   D(2,3,17,8)           177.3346         estimate D2E/DX2                !
 ! D18   D(2,3,17,18)            1.9706         estimate D2E/DX2                !
 ! D19   D(4,3,17,8)            -3.0889         estimate D2E/DX2                !
 ! D20   D(4,3,17,18)         -178.4529         estimate D2E/DX2                !
 ! D21   D(3,4,5,6)              0.1584         estimate D2E/DX2                !
 ! D22   D(3,4,5,15)          -178.7223         estimate D2E/DX2                !
 ! D23   D(39,4,5,6)          -179.7953         estimate D2E/DX2                !
 ! D24   D(39,4,5,15)            1.324          estimate D2E/DX2                !
 ! D25   D(3,4,39,7)             3.1845         estimate D2E/DX2                !
 ! D26   D(5,4,39,7)          -176.8619         estimate D2E/DX2                !
 ! D27   D(4,5,6,1)              0.0913         estimate D2E/DX2                !
 ! D28   D(4,5,6,29)           179.7964         estimate D2E/DX2                !
 ! D29   D(15,5,6,1)           178.9365         estimate D2E/DX2                !
 ! D30   D(15,5,6,29)           -1.3585         estimate D2E/DX2                !
 ! D31   D(1,6,29,30)          146.0832         estimate D2E/DX2                !
 ! D32   D(1,6,29,31)          -33.8021         estimate D2E/DX2                !
 ! D33   D(5,6,29,30)          -33.6109         estimate D2E/DX2                !
 ! D34   D(5,6,29,31)          146.5038         estimate D2E/DX2                !
 ! D35   D(13,7,8,9)            -0.2163         estimate D2E/DX2                !
 ! D36   D(13,7,8,17)          179.8438         estimate D2E/DX2                !
 ! D37   D(39,7,8,9)          -179.8959         estimate D2E/DX2                !
 ! D38   D(39,7,8,17)            0.1642         estimate D2E/DX2                !
 ! D39   D(8,7,13,12)           -0.0354         estimate D2E/DX2                !
 ! D40   D(8,7,13,27)         -179.958          estimate D2E/DX2                !
 ! D41   D(39,7,13,12)         179.6585         estimate D2E/DX2                !
 ! D42   D(39,7,13,27)          -0.2642         estimate D2E/DX2                !
 ! D43   D(8,7,39,4)            -3.2484         estimate D2E/DX2                !
 ! D44   D(13,7,39,4)          177.0596         estimate D2E/DX2                !
 ! D45   D(7,8,9,10)          -179.75           estimate D2E/DX2                !
 ! D46   D(7,8,9,11)             0.3189         estimate D2E/DX2                !
 ! D47   D(17,8,9,10)            0.1876         estimate D2E/DX2                !
 ! D48   D(17,8,9,11)         -179.7436         estimate D2E/DX2                !
 ! D49   D(7,8,17,3)             3.0253         estimate D2E/DX2                !
 ! D50   D(7,8,17,18)          178.3894         estimate D2E/DX2                !
 ! D51   D(9,8,17,3)          -176.9117         estimate D2E/DX2                !
 ! D52   D(9,8,17,18)           -1.5476         estimate D2E/DX2                !
 ! D53   D(8,9,11,12)           -0.1725         estimate D2E/DX2                !
 ! D54   D(8,9,11,16)          179.8588         estimate D2E/DX2                !
 ! D55   D(10,9,11,12)         179.8967         estimate D2E/DX2                !
 ! D56   D(10,9,11,16)          -0.072          estimate D2E/DX2                !
 ! D57   D(9,11,12,13)          -0.0851         estimate D2E/DX2                !
 ! D58   D(9,11,12,40)         179.9791         estimate D2E/DX2                !
 ! D59   D(16,11,12,13)        179.8833         estimate D2E/DX2                !
 ! D60   D(16,11,12,40)         -0.0526         estimate D2E/DX2                !
 ! D61   D(11,12,13,7)           0.1877         estimate D2E/DX2                !
 ! D62   D(11,12,13,27)       -179.892          estimate D2E/DX2                !
 ! D63   D(40,12,13,7)        -179.8758         estimate D2E/DX2                !
 ! D64   D(40,12,13,27)          0.0445         estimate D2E/DX2                !
 ! D65   D(3,17,18,19)         -96.2234         estimate D2E/DX2                !
 ! D66   D(3,17,18,20)          83.8484         estimate D2E/DX2                !
 ! D67   D(8,17,18,19)          88.4499         estimate D2E/DX2                !
 ! D68   D(8,17,18,20)         -91.4783         estimate D2E/DX2                !
 ! D69   D(17,18,19,21)       -179.8396         estimate D2E/DX2                !
 ! D70   D(17,18,19,43)          0.0672         estimate D2E/DX2                !
 ! D71   D(20,18,19,21)          0.088          estimate D2E/DX2                !
 ! D72   D(20,18,19,43)        179.9948         estimate D2E/DX2                !
 ! D73   D(17,18,20,22)       -179.9826         estimate D2E/DX2                !
 ! D74   D(17,18,20,23)         -0.0817         estimate D2E/DX2                !
 ! D75   D(19,18,20,22)          0.0899         estimate D2E/DX2                !
 ! D76   D(19,18,20,23)        179.9908         estimate D2E/DX2                !
 ! D77   D(18,19,21,24)         -0.1697         estimate D2E/DX2                !
 ! D78   D(18,19,21,42)        179.915          estimate D2E/DX2                !
 ! D79   D(43,19,21,24)        179.9252         estimate D2E/DX2                !
 ! D80   D(43,19,21,42)          0.0098         estimate D2E/DX2                !
 ! D81   D(18,20,22,24)         -0.1862         estimate D2E/DX2                !
 ! D82   D(18,20,22,25)        179.9513         estimate D2E/DX2                !
 ! D83   D(23,20,22,24)        179.9145         estimate D2E/DX2                !
 ! D84   D(23,20,22,25)          0.052          estimate D2E/DX2                !
 ! D85   D(19,21,24,22)          0.0739         estimate D2E/DX2                !
 ! D86   D(19,21,24,26)       -179.9461         estimate D2E/DX2                !
 ! D87   D(42,21,24,22)        179.9889         estimate D2E/DX2                !
 ! D88   D(42,21,24,26)         -0.031          estimate D2E/DX2                !
 ! D89   D(20,22,24,21)          0.1052         estimate D2E/DX2                !
 ! D90   D(20,22,24,26)       -179.8749         estimate D2E/DX2                !
 ! D91   D(25,22,24,21)        179.9672         estimate D2E/DX2                !
 ! D92   D(25,22,24,26)         -0.0129         estimate D2E/DX2                !
 ! D93   D(6,29,30,32)        -179.8517         estimate D2E/DX2                !
 ! D94   D(6,29,30,33)          -1.0585         estimate D2E/DX2                !
 ! D95   D(31,29,30,32)          0.0364         estimate D2E/DX2                !
 ! D96   D(31,29,30,33)        178.8296         estimate D2E/DX2                !
 ! D97   D(6,29,31,34)         179.7583         estimate D2E/DX2                !
 ! D98   D(6,29,31,35)          -1.4602         estimate D2E/DX2                !
 ! D99   D(30,29,31,34)         -0.13           estimate D2E/DX2                !
 ! D100  D(30,29,31,35)        178.6515         estimate D2E/DX2                !
 ! D101  D(29,30,32,36)          0.0575         estimate D2E/DX2                !
 ! D102  D(29,30,32,37)        179.5878         estimate D2E/DX2                !
 ! D103  D(33,30,32,36)       -178.7385         estimate D2E/DX2                !
 ! D104  D(33,30,32,37)          0.7917         estimate D2E/DX2                !
 ! D105  D(29,31,34,36)          0.1302         estimate D2E/DX2                !
 ! D106  D(29,31,34,38)        179.6049         estimate D2E/DX2                !
 ! D107  D(35,31,34,36)       -178.653          estimate D2E/DX2                !
 ! D108  D(35,31,34,38)          0.8217         estimate D2E/DX2                !
 ! D109  D(30,32,36,34)         -0.059          estimate D2E/DX2                !
 ! D110  D(30,32,36,41)        179.9864         estimate D2E/DX2                !
 ! D111  D(37,32,36,34)       -179.587          estimate D2E/DX2                !
 ! D112  D(37,32,36,41)          0.4584         estimate D2E/DX2                !
 ! D113  D(31,34,36,32)         -0.034          estimate D2E/DX2                !
 ! D114  D(31,34,36,41)        179.9206         estimate D2E/DX2                !
 ! D115  D(38,34,36,32)       -179.5062         estimate D2E/DX2                !
 ! D116  D(38,34,36,41)          0.4483         estimate D2E/DX2                !
 --------------------------------------------------------------------------------
 Trust Radius=3.00D-01 FncErr=1.00D-07 GrdErr=1.00D-06
 Number of steps in this run=    249 maximum allowed number of steps=    258.
 GradGradGradGradGradGradGradGradGradGradGradGradGradGradGradGradGradGrad

 Leave Link  103 at Fri Mar 26 23:15:21 2021, MaxMem=  5242880000 cpu:         2.4
 (Enter /opt/nce/packages/global/g09/l202.exe)
                          Input orientation:                          
 ---------------------------------------------------------------------
 Center     Atomic      Atomic             Coordinates (Angstroms)
 Number     Number       Type             X           Y           Z
 ---------------------------------------------------------------------
      1          6           0        1.778391   -1.354500   -0.058261
      2          6           0        0.388865   -1.338668   -0.081762
      3          6           0       -0.313091   -0.138342   -0.057665
      4          6           0        0.428276    1.049322   -0.017270
      5          6           0        1.804376    1.033455    0.006178
      6          6           0        2.511673   -0.174334   -0.012931
      7          6           0       -1.553312    2.331302    0.043234
      8          6           0       -2.336678    1.170807    0.002850
      9          6           0       -3.720185    1.310258    0.049244
     10          1           0       -4.343922    0.426833    0.023393
     11          6           0       -4.305659    2.570968    0.126827
     12          6           0       -3.518360    3.707981    0.162680
     13          6           0       -2.132248    3.580007    0.122197
     14          1           0       -0.155543   -2.272144   -0.128421
     15          1           0        2.321614    1.983541    0.058528
     16          1           0       -5.384602    2.650170    0.159250
     17          7           0       -1.706139   -0.073523   -0.080508
     18          6           0       -2.481551   -1.273136   -0.088433
     19          6           0       -2.944667   -1.783402   -1.293734
     20          6           0       -2.766544   -1.917349    1.108662
     21          6           0       -3.701351   -2.948009   -1.300137
     22          6           0       -3.520162   -3.083320    1.097398
     23          1           0       -2.395009   -1.501838    2.037856
     24          6           0       -3.988219   -3.597797   -0.105984
     25          1           0       -3.743671   -3.588706    2.028403
     26          1           0       -4.577491   -4.506068   -0.112703
     27          1           0       -1.484449    4.447303    0.150122
     28          1           0        2.288453   -2.308532   -0.098626
     29          6           0        3.992430   -0.184132    0.007962
     30          6           0        4.726226    0.825192   -0.621001
     31          6           0        4.691589   -1.205950    0.656202
     32          6           0        6.113732    0.812725   -0.602998
     33          1           0        4.207376    1.617876   -1.146400
     34          6           0        6.078943   -1.219346    0.672491
     35          1           0        4.144550   -1.987388    1.169499
     36          6           0        6.796965   -0.209867    0.043265
     37          1           0        6.662607    1.601446   -1.102673
     38          1           0        6.600609   -2.017391    1.186307
     39          8           0       -0.181462    2.278992   -0.000272
     40          1           0       -3.966486    4.690818    0.222608
     41          1           0        7.879607   -0.219656    0.057089
     42          1           0       -4.065169   -3.347789   -2.238146
     43          1           0       -2.710320   -1.264197   -2.215361
 ---------------------------------------------------------------------
                    Distance matrix (angstroms):
                    1          2          3          4          5
     1  C    0.000000
     2  C    1.389815   0.000000
     3  C    2.419367   1.390721   0.000000
     4  C    2.757327   2.389186   1.400644   0.000000
     5  C    2.388966   2.763761   2.420919   1.376391   0.000000
     6  C    1.390162   2.422132   2.825347   2.416174   1.399782
     7  C    4.969475   4.154077   2.765406   2.360895   3.599979
     8  C    4.828530   3.705834   2.410900   2.767695   4.143333
     9  C    6.111205   4.890630   3.703804   4.157191   5.531659
    10  H    6.376718   5.052457   4.071068   4.812798   6.178176
    11  C    7.242874   6.112881   4.828561   4.974566   6.301669
    12  C    7.330286   6.387083   5.011637   4.762015   5.958951
    13  C    6.298811   5.530911   4.143405   3.602791   4.689925
    14  H    2.141750   1.081635   2.140780   3.374216   3.845307
    15  H    3.383969   3.846072   3.384902   2.112638   1.083023
    16  H    8.209334   7.021527   5.791638   6.031867   7.370116
    17  N    3.712593   2.447373   1.394742   2.412573   3.681933
    18  C    4.260826   2.871172   2.447636   3.723704   4.868109
    19  C    4.900778   3.574787   3.340551   4.585895   5.672554
    20  C    4.725986   3.421781   3.247247   4.502858   5.551218
    21  C    5.840300   4.561171   4.573650   5.888822   6.918927
    22  C    5.692015   4.440126   4.504705   5.823348   6.818306
    23  H    4.672546   3.502765   3.253415   4.324685   5.309450
    24  C    6.187766   4.925760   5.047448   6.411631   7.417225
    25  H    6.311815   5.156871   5.293918   6.565152   7.498973
    26  H    7.094546   5.890507   6.104520   7.478581   8.451549
    27  H    6.659615   6.086094   4.737446   3.902924   4.742515
    28  H    1.082575   2.132922   3.388131   3.839539   3.378490
    29  C    2.505218   3.785061   4.306265   3.771636   2.504017
    30  C    3.709106   4.877066   5.161440   4.345929   2.995653
    31  C    3.003206   4.367567   5.166838   4.869872   3.711262
    32  C    4.877375   6.137938   6.519660   5.720443   4.357794
    33  H    3.989866   4.945264   4.970339   3.984945   2.728441
    34  C    4.364288   5.741091   6.523787   6.128023   4.877603
    35  H    2.739827   4.011441   4.979505   4.943756   3.994399
    36  C    5.148454   6.507962   7.111132   6.492259   5.145208
    37  H    5.803790   7.003311   7.264934   6.352151   5.015433
    38  H    5.024158   6.376082   7.271694   6.996501   5.805533
    39  O    4.128759   3.663247   2.421595   1.372646   2.344132
    40  H    8.344362   7.444221   6.061900   5.712440   6.835641
    41  H    6.206933   7.575136   8.193905   7.558979   6.203331
    42  H    6.547694   5.340878   5.397512   6.667678   7.660538
    43  H    4.980940   3.763341   3.416125   4.476020   5.531448
                    6          7          8          9         10
     6  C    0.000000
     7  C    4.775507   0.000000
     8  C    5.031517   1.400729   0.000000
     9  C    6.406554   2.395393   1.391291   0.000000
    10  H    6.881999   3.378594   2.140782   1.081737   0.000000
    11  C    7.350662   2.764026   2.419237   1.392188   2.146969
    12  C    7.173877   2.402275   2.803421   2.408875   3.386279
    13  C    5.973218   1.378647   2.420802   2.771033   3.852761
    14  H    3.395318   4.814036   4.077805   5.056861   4.984982
    15  H    2.167407   3.890530   4.728987   6.079205   6.844994
    16  H    8.388005   3.846286   3.391580   2.139568   2.458597
    17  N    4.219558   2.412851   1.397457   2.447053   2.686829
    18  C    5.113253   3.724371   2.449934   2.868291   2.524049
    19  C    5.831055   4.544683   3.283006   3.460600   2.928801
    20  C    5.670595   4.545119   3.308219   3.528349   3.026734
    21  C    6.924727   5.855753   4.530425   4.466992   3.681601
    22  C    6.788082   5.856440   4.549315   4.521301   3.762079
    23  H    5.481197   4.402265   3.359715   3.690332   3.402366
    24  C    7.346928   6.411338   5.047674   4.917819   4.042389
    25  H    7.413117   6.617028   5.360546   5.283699   4.528236
    26  H    8.308437   7.477941   6.104220   5.881399   4.940303
    27  H    6.111882   2.119818   3.388718   3.853536   4.935263
    28  H    2.147550   6.025557   5.788604   7.015785   7.175340
    29  C    1.480937   6.089656   6.472518   7.856165   8.358725
    30  C    2.504605   6.491700   7.098821   8.486835   9.101732
    31  C    2.502799   7.203240   7.447978   8.801002   9.203634
    32  C    3.781176   7.842656   8.479664   9.868074  10.483502
    33  H    2.715175   5.925347   6.659226   8.023118   8.712732
    34  C    3.779850   8.441231   8.774049  10.139539  10.572008
    35  H    2.711382   7.237761   7.303532   8.601366   8.899223
    36  C    4.285808   8.728383   9.237496  10.626442  11.159084
    37  H    4.644479   8.327492   9.077156  10.450554  11.126159
    38  H    4.642675   9.311508   9.562441  10.903437  11.274279
    39  O    3.643068   1.373536   2.423436   3.669258   4.555999
    40  H    8.105043   3.379778   3.885234   3.393951   4.285290
    41  H    5.368582   9.771773  10.310616  11.700251  12.240659
    42  H    7.633954   6.615602   5.331740   5.200824   4.409085
    43  H    5.771283   4.400856   3.315013   3.574365   3.246576
                   11         12         13         14         15
    11  C    0.000000
    12  C    1.383446   0.000000
    13  C    2.396225   1.392596   0.000000
    14  H    6.383130   6.866962   6.182058   0.000000
    15  H    6.653607   6.090143   4.731770   4.927688   0.000000
    16  H    1.082332   2.145189   3.382865   7.187140   7.735652
    17  N    3.714004   4.200364   3.683876   2.690832   4.524780
    18  C    4.260381   5.094071   4.870254   2.531784   5.804992
    19  C    4.778162   5.710127   5.606339   3.062031   6.614544
    20  C    4.845396   5.753646   5.621065   2.910941   6.496851
    21  C    5.732410   6.817296   6.862952   3.795058   7.902042
    22  C    5.790508   6.855324   6.875845   3.671689   7.802479
    23  H    4.887777   5.649816   5.437273   3.209569   6.189680
    24  C    6.181313   7.325800   7.417383   4.055523   8.425698
    25  H    6.470966   7.534808   7.590833   4.388609   8.468650
    26  H    7.086304   8.286627   8.450976   4.954219   9.473225
    27  H    3.388274   2.164151   1.082878   6.855257   4.534824
    28  H    8.206258   8.365751   7.366563   2.444448   4.295077
    29  C    8.744312   8.460759   7.189817   4.645866   2.737333
    30  C    9.229406   8.769141   7.428325   5.802396   2.754213
    31  C    9.772196   9.580895   8.351964   5.024648   4.018314
    32  C   10.591873  10.086921   8.728112   7.003246   4.023504
    33  H    8.660327   8.109823   6.756488   5.933262   2.267523
    34  C   11.068161  10.800309   9.526818   6.373277   4.975234
    35  H    9.657733   9.600578   8.455230   4.500720   4.508395
    36  C   11.445885  11.034932   9.700527   7.253953   4.983978
    37  H   11.079463  10.473333   9.097499   7.901964   4.509834
    38  H   11.879487  11.671385  10.427175   6.887597   5.965663
    39  O    4.136473   3.633655   2.348021   4.553014   2.521138
    40  H    2.148948   1.081840   2.146721   7.945398   6.848100
    41  H   12.500926  12.056166  10.708824   8.295225   5.978743
    42  H    6.378293   7.473075   7.569793   4.570900   8.630689
    43  H    4.768589   5.570508   5.409682   3.449371   6.406148
                   16         17         18         19         20
    16  H    0.000000
    17  N    4.583348   0.000000
    18  C    4.886858   1.428425   0.000000
    19  C    5.265074   2.435068   1.388380   0.000000
    20  C    5.349565   2.436858   1.388981   2.412711   0.000000
    21  C    6.025177   3.705541   2.400279   1.388856   2.781805
    22  C    6.101571   3.706349   2.400349   2.781815   1.388364
    23  H    5.450321   2.646147   2.140303   3.388347   1.083554
    24  C    6.407599   4.198696   2.770272   2.406612   2.406608
    25  H    6.716395   4.577724   3.381687   3.864469   2.143393
    26  H    7.206742   5.281397   3.852973   3.387308   3.387142
    27  H    4.294294   4.532130   5.811587   6.560384   6.562878
    28  H    9.139529   4.577375   4.881095   5.393477   5.211868
    29  C    9.797188   5.700329   6.565642   7.237084   7.063944
    30  C   10.303794   6.517296   7.525866   8.130186   8.164243
    31  C   10.800289   6.538812   7.211999   7.902411   7.505635
    32  C   11.669144   7.887256   8.859711   9.448364   9.446819
    33  H    9.735317   6.242325   7.363354   7.920992   8.137486
    34  C   12.109890   7.904898   8.594414   9.252553   8.883698
    35  H   10.645764   6.281398   6.782165   7.507738   6.911717
    36  C   12.513346   8.505098   9.340168   9.958061   9.772987
    37  H   12.158434   8.595711   9.638855  10.187905  10.304407
    38  H   12.902955   8.624703   9.201332   9.864971   9.368009
    39  O    5.218801   2.804533   4.232705   5.080491   5.051897
    40  H    2.485822   5.282044   6.153903   6.727476   6.774424
    41  H   13.571499   9.587847  10.415594  11.019752  10.831828
    42  H    6.592717   4.576160   3.381316   2.143536   3.864416
    43  H    5.302153   2.642666   2.139214   1.083461   3.388052
                   21         22         23         24         25
    21  C    0.000000
    22  C    2.408176   0.000000
    23  H    3.865247   2.156737   0.000000
    24  C    1.389431   1.389925   3.395204   0.000000
    25  H    3.389906   1.082655   2.484753   2.148370   0.000000
    26  H    2.145966   2.146276   4.291099   1.082702   2.474095
    27  H    7.855479   7.858228   6.307530   8.429596   8.556253
    28  H    6.142500   5.980868   5.210578   6.407720   6.523007
    29  C    8.279155   8.125958   6.830534   8.680832   8.690257
    30  C    9.258635   9.286134   7.949627   9.786196   9.911659
    31  C    8.792239   8.435166   7.226091   9.035537   8.872095
    32  C   10.533992  10.530072   9.204889  11.033999  11.111492
    33  H    9.133395   9.319373   7.966404   9.770030  10.020330
    34  C   10.125892   9.787633   8.587892  10.373563  10.194906
    35  H    8.281308   7.743002   6.614804   8.388218   8.094811
    36  C   10.932373  10.761554   9.494207  11.305775  11.245547
    37  H   11.320254  11.422615  10.076393  11.893932  12.042921
    38  H   10.638554  10.177137   9.050529  10.783829  10.496775
    39  O    6.434346   6.411411   4.832021   7.002801   7.157844
    40  H    7.793634   7.835923   6.641811   8.295154   8.477090
    41  H   11.975164  11.799896  10.542066  12.340329  12.261206
    42  H    1.082612   3.390108   4.947844   2.148148   4.285422
    43  H    2.157545   3.865155   4.271504   3.395318   4.947796
                   26         27         28         29         30
    26  H    0.000000
    27  H    9.476225   0.000000
    28  H    7.209060   7.741962   0.000000
    29  C    9.598814   7.174023   2.725431   0.000000
    30  C   10.734983   7.230961   4.004477   1.397421   0.000000
    31  C    9.869034   8.388017   2.749639   1.397552   2.399580
    32  C   11.951243   8.456341   4.962801   2.422172   1.387679
    33  H   10.758490   6.487180   4.494082   2.150811   1.083327
    34  C   11.179385   9.465130   4.018552   2.422148   2.771841
    35  H    9.168522   8.609878   2.270764   2.150358   3.384500
    36  C   12.159766   9.501709   4.975059   2.804875   2.408434
    37  H   12.830494   8.720259   5.952248   3.398771   2.141063
    38  H   11.525227  10.403562   4.508936   3.398813   3.854861
    39  O    8.085465   2.534160   5.211097   4.846486   5.155991
    40  H    9.223257   2.495007   9.392463   9.335714   9.550811
    41  H   13.175031  10.463016   5.970649   3.887650   3.390476
    42  H    2.474185   8.551456   6.784255   8.943077   9.864966
    43  H    4.291530   6.302341   5.528014   7.143988   7.887316
                   31         32         33         34         35
    31  C    0.000000
    32  C    2.771845   0.000000
    33  H    3.384942   2.139567   0.000000
    34  C    1.387514   2.399457   3.854991   0.000000
    35  H    1.083222   3.854874   4.285471   2.139809   0.000000
    36  C    2.408419   1.389301   3.385546   1.389435   3.385748
    37  H    3.854870   1.083060   2.455675   3.383598   4.937925
    38  H    2.140982   3.383522   4.938041   1.083060   2.456300
    39  O    6.026807   6.491740   4.583948   7.203031   6.187467
    40  H   10.484376  10.831991   8.839071  11.663751  10.549120
    41  H    3.390453   2.149381   4.279041   2.149533   4.279367
    42  H    9.468133  11.117266   9.710033  10.765922   8.992342
    43  H    7.939617   9.207454   7.569910   9.251640   7.679162
                   36         37         38         39         40
    36  C    0.000000
    37  H    2.147576   0.000000
    38  H    2.147613   4.282436   0.000000
    39  O    7.409100   6.965317   8.115625   0.000000
    40  H   11.827965  11.148014  12.553576   4.493661   0.000000
    41  H    1.082775   2.478417   2.478471   8.439631  12.824589
    42  H   11.534182  11.868842  11.280765   7.193881   8.407393
    43  H    9.828605   9.864165   9.941431   4.884253   6.556207
                   41         42         43
    41  H    0.000000
    42  H   12.559100   0.000000
    43  H   10.881252   2.485456   0.000000
 Symmetry turned off by external request.
 Stoichiometry    C24H17NO
 Framework group  C1[X(C24H17NO)]
 Deg. of freedom   123
 Full point group                 C1      NOp   1
 Rotational constants (GHZ):      0.3555708      0.1183113      0.0924799
 Leave Link  202 at Fri Mar 26 23:15:21 2021, MaxMem=  5242880000 cpu:         0.1
 (Enter /opt/nce/packages/global/g09/l301.exe)
 Standard basis: def2TZVP (5D, 7F)
 Ernie: Thresh=  0.10000D-02 Tol=  0.10000D-05 Strict=F.
   908 basis functions,  1462 primitive gaussians,  1038 cartesian basis functions
    88 alpha electrons       88 beta electrons
       nuclear repulsion energy      2065.3094705495 Hartrees.
 IExCor= 4336 DFT=T Ex+Corr=M062X ExCW=0 ScaHFX=  0.540000
 ScaDFX=  1.000000  1.000000  1.000000  1.000000 ScalE2=  1.000000  1.000000
 IRadAn=      5 IRanWt=     -1 IRanGd=            0 ICorTp=0 IEmpDi=  4
 NAtoms=   43 NActive=   43 NUniq=   43 SFac= 1.00D+00 NAtFMM=   60 NAOKFM=F Big=F
 Integral buffers will be    131072 words long.
 Raffenetti 2 integral format.
 Two-electron integral symmetry is turned off.
 ------------------------------------------------------------------------------
 Polarizable Continuum Model (PCM)
 =================================
 Model                : PCM (using non-symmetric T matrix).
 Atomic radii         : SMD-Coulomb.
 Polarization charges : Total charges.
 Charge compensation  : None.
 Solution method      : On-the-fly selection.
 Cavity type          : VdW (van der Waals Surface) (Alpha=1.000).
 Cavity algorithm     : GePol (No added spheres)
                        Default sphere list used, NSphG=   43.
                        Lebedev-Laikov grids with approx.  5.0 points / Ang**2.
                        Smoothing algorithm: York/Karplus (Gamma=1.0000).
                        Polarization charges: spherical gaussians, with
                                              point-specific exponents (IZeta= 3).
                        Self-potential: point-specific (ISelfS= 7).
                        Self-field    : sphere-specific E.n sum rule (ISelfD= 2).
 1st derivatives      : Analytical E(r).r(x)/FMM algorithm (CHGder, D1EAlg=3).
                        Cavity 1st derivative terms included.
 Solvent              : n,n-DiMethylAcetamide, Eps=  37.781000 Eps(inf)=   2.067844
 ------------------------------------------------------------------------------
 GePol: Number of generator spheres                  =      43
 GePol: Total number of spheres                      =      43
 GePol: Number of exposed spheres                    =      43 (100.00%)
 GePol: Number of points                             =    3308
 GePol: Average weight of points                     =       0.11
 GePol: Minimum weight of points                     =   0.62D-09
 GePol: Maximum weight of points                     =    0.17992
 GePol: Number of points with low weight             =     202
 GePol: Fraction of low-weight points (<1% of avg)   =       6.11%
 GePol: Cavity surface area                          =    360.053 Ang**2
 GePol: Cavity volume                                =    354.051 Ang**3
 ------------------------------------------------------------------------------
 Atomic radii for non-electrostatic terms: SMD-CDS.
 ------------------------------------------------------------------------------
 PCM non-electrostatic energy =        -0.0065784404 Hartrees.
 Nuclear repulsion after PCM non-electrostatic terms =     2065.3028921091 Hartrees.
 Leave Link  301 at Fri Mar 26 23:15:22 2021, MaxMem=  5242880000 cpu:         2.7
 (Enter /opt/nce/packages/global/g09/l302.exe)
 NPDir=0 NMtPBC=     1 NCelOv=     1 NCel=       1 NClECP=     1 NCelD=      1
         NCelK=      1 NCelE2=     1 NClLst=     1 CellRange=     0.0.
 One-electron integrals computed using PRISM.
   1 Symmetry operations used in ECPInt.
 ECPInt:  NShTT=   62835 NPrTT=  194376 LenC2=   51205 LenP2D=  110396.
 LDataN:  DoStor=T MaxTD1= 6 Len=  172
 NBasis=   908 RedAO= T EigKep=  4.62D-06  NBF=   908
 NBsUse=   908 1.00D-06 EigRej= -1.00D+00 NBFU=   908
 Precomputing XC quadrature grid using
 IXCGrd= 4 IRadAn=           5 IRanWt=          -1 IRanGd=           0 AccXCQ= 0.00D+00.
 Generated NRdTot=       0 NPtTot=           0 NUsed=           0 NTot=          32
 NSgBfM=  1001  1001  1001  1001  1001 MxSgAt=    43 MxSgA2=    43.
 Leave Link  302 at Fri Mar 26 23:15:24 2021, MaxMem=  5242880000 cpu:        22.8
 (Enter /opt/nce/packages/global/g09/l303.exe)
 DipDrv:  MaxL=1.
 Leave Link  303 at Fri Mar 26 23:15:24 2021, MaxMem=  5242880000 cpu:         2.2
 (Enter /opt/nce/packages/global/g09/l401.exe)
 ExpMin= 9.52D-02 ExpMax= 2.70D+04 ExpMxC= 9.22D+02 IAcc=3 IRadAn=         5 AccDes= 0.00D+00
 Harris functional with IExCor= 1009 and IRadAn=       5 diagonalized for initial guess.
 HarFok:  IExCor= 1009 AccDes= 0.00D+00 IRadAn=         5 IDoV= 1 UseB2=F ITyADJ=14
 ICtDFT=  3500011 ScaDFX=  1.000000  1.000000  1.000000  1.000000
 FoFCou: FMM=F IPFlag=           0 FMFlag=      100000 FMFlg1=           0
         NFxFlg=           0 DoJE=T BraDBF=F KetDBF=T FulRan=T
         wScrn=  0.000000 ICntrl=     500 IOpCl=  0 I1Cent=   200000004 NGrid=           0
         NMat0=    1 NMatS0=      1 NMatT0=    0 NMatD0=    1 NMtDS0=    0 NMtDT0=    0
 Symmetry not used in FoFCou.
 Harris En= -1054.25949685582    
 JPrj=0 DoOrth=F DoCkMO=F.
 Leave Link  401 at Fri Mar 26 23:15:32 2021, MaxMem=  5242880000 cpu:        94.7
 (Enter /opt/nce/packages/global/g09/l502.exe)
 Closed shell SCF:
 Using DIIS extrapolation, IDIIS=  1040.
 Two-electron integral symmetry not used.
 IVT=     3269652 IEndB=     3269652 NGot=  5242880000 MDV=  5240705471
 LenX=  5240705471 LenY=  5239626989
 Requested convergence on RMS density matrix=1.00D-08 within 128 cycles.
 Requested convergence on MAX density matrix=1.00D-06.
 Requested convergence on             energy=1.00D-06.
 No special actions if energy rises.
 Fock matrices will be formed incrementally for  20 cycles.

 Cycle   1  Pass 1  IDiag  1:
 FoFJK:  IHMeth= 1 ICntrl=       0 DoSepK=F KAlg= 0 I1Cent=   0 FoldK=F
 IRaf= 710000000 NMat=   1 IRICut=       1 DoRegI=T DoRafI=F ISym2E= 0.
 FoFCou: FMM=F IPFlag=           0 FMFlag=      100000 FMFlg1=           0
         NFxFlg=           0 DoJE=F BraDBF=F KetDBF=F FulRan=T
         wScrn=  0.000000 ICntrl=       0 IOpCl=  0 I1Cent=           0 NGrid=           0
         NMat0=    1 NMatS0=      1 NMatT0=    0 NMatD0=    1 NMtDS0=    0 NMtDT0=    0
 Symmetry not used in FoFCou.
 Inv3:  Mode=1 IEnd=    32828592.
 Iteration    1 A*A^-1 deviation from unit magnitude is 6.66D-15 for   3301.
 Iteration    1 A*A^-1 deviation from orthogonality  is 2.45D-15 for   1965    370.
 Iteration    1 A^-1*A deviation from unit magnitude is 7.11D-15 for   3301.
 Iteration    1 A^-1*A deviation from orthogonality  is 2.21D-10 for   1727   1685.
 Iteration    2 A*A^-1 deviation from unit magnitude is 2.66D-15 for    445.
 Iteration    2 A*A^-1 deviation from orthogonality  is 2.89D-15 for   2872    445.
 Iteration    2 A^-1*A deviation from unit magnitude is 8.88D-16 for    114.
 Iteration    2 A^-1*A deviation from orthogonality  is 4.44D-16 for   2710    802.
 E= -1054.12297965923    
 DIIS: error= 2.28D-02 at cycle   1 NSaved=   1.
 NSaved= 1 IEnMin= 1 EnMin= -1054.12297965923     IErMin= 1 ErrMin= 2.28D-02
 ErrMax= 2.28D-02  0.00D+00 EMaxC= 1.00D-01 BMatC= 7.32D-01 BMatP= 7.32D-01
 IDIUse=3 WtCom= 7.72D-01 WtEn= 2.28D-01
 Coeff-Com:  0.100D+01
 Coeff-En:   0.100D+01
 Coeff:      0.100D+01
 Gap=     0.266 Goal=   None    Shift=    0.000
 GapD=    0.266 DampG=1.000 DampE=0.500 DampFc=0.5000 IDamp=-1.
 Damping current iteration by 5.00D-01
 RMSDP=2.05D-03 MaxDP=6.40D-02              OVMax= 2.34D-01

 Cycle   2  Pass 1  IDiag  1:
 RMSU=  9.92D-04    CP:  9.54D-01
 E= -1054.43712897606     Delta-E=       -0.314149316832 Rises=F Damp=T
 DIIS: error= 6.18D-03 at cycle   2 NSaved=   2.
 NSaved= 2 IEnMin= 2 EnMin= -1054.43712897606     IErMin= 2 ErrMin= 6.18D-03
 ErrMax= 6.18D-03  0.00D+00 EMaxC= 1.00D-01 BMatC= 7.37D-02 BMatP= 7.32D-01
 IDIUse=3 WtCom= 9.38D-01 WtEn= 6.18D-02
 Coeff-Com: -0.145D+00 0.115D+01
 Coeff-En:   0.000D+00 0.100D+01
 Coeff:     -0.136D+00 0.114D+01
 Gap=     0.238 Goal=   None    Shift=    0.000
 RMSDP=1.16D-03 MaxDP=6.90D-02 DE=-3.14D-01 OVMax= 1.92D-01

 Cycle   3  Pass 1  IDiag  1:
 RMSU=  9.52D-04    CP:  9.22D-01  1.64D+00
 E= -1054.70892398189     Delta-E=       -0.271795005830 Rises=F Damp=F
 DIIS: error= 5.46D-03 at cycle   3 NSaved=   3.
 NSaved= 3 IEnMin= 3 EnMin= -1054.70892398189     IErMin= 3 ErrMin= 5.46D-03
 ErrMax= 5.46D-03  0.00D+00 EMaxC= 1.00D-01 BMatC= 4.09D-02 BMatP= 7.37D-02
 IDIUse=3 WtCom= 9.45D-01 WtEn= 5.46D-02
 Coeff-Com: -0.142D+00 0.540D+00 0.602D+00
 Coeff-En:   0.000D+00 0.000D+00 0.100D+01
 Coeff:     -0.135D+00 0.511D+00 0.624D+00
 Gap=     0.224 Goal=   None    Shift=    0.000
 RMSDP=5.00D-04 MaxDP=5.09D-02 DE=-2.72D-01 OVMax= 9.63D-02

 Cycle   4  Pass 1  IDiag  1:
 RMSU=  4.31D-04    CP:  9.11D-01  1.60D+00  7.45D-01
 E= -1054.74525894735     Delta-E=       -0.036334965462 Rises=F Damp=F
 DIIS: error= 1.86D-03 at cycle   4 NSaved=   4.
 NSaved= 4 IEnMin= 4 EnMin= -1054.74525894735     IErMin= 4 ErrMin= 1.86D-03
 ErrMax= 1.86D-03  0.00D+00 EMaxC= 1.00D-01 BMatC= 5.22D-03 BMatP= 4.09D-02
 IDIUse=3 WtCom= 9.81D-01 WtEn= 1.86D-02
 Coeff-Com: -0.428D-01 0.109D+00 0.308D+00 0.625D+00
 Coeff-En:   0.000D+00 0.000D+00 0.601D-01 0.940D+00
 Coeff:     -0.420D-01 0.107D+00 0.303D+00 0.631D+00
 Gap=     0.216 Goal=   None    Shift=    0.000
 RMSDP=1.42D-04 MaxDP=1.30D-02 DE=-3.63D-02 OVMax= 1.85D-02

 Cycle   5  Pass 1  IDiag  1:
 RMSU=  6.28D-05    CP:  9.12D-01  1.62D+00  8.00D-01  7.35D-01
 E= -1054.75008567288     Delta-E=       -0.004826725533 Rises=F Damp=F
 DIIS: error= 4.12D-04 at cycle   5 NSaved=   5.
 NSaved= 5 IEnMin= 5 EnMin= -1054.75008567288     IErMin= 5 ErrMin= 4.12D-04
 ErrMax= 4.12D-04  0.00D+00 EMaxC= 1.00D-01 BMatC= 1.13D-04 BMatP= 5.22D-03
 IDIUse=3 WtCom= 9.96D-01 WtEn= 4.12D-03
 Coeff-Com: -0.830D-02 0.147D-01 0.856D-01 0.215D+00 0.693D+00
 Coeff-En:   0.000D+00 0.000D+00 0.000D+00 0.000D+00 0.100D+01
 Coeff:     -0.826D-02 0.146D-01 0.852D-01 0.214D+00 0.694D+00
 Gap=     0.217 Goal=   None    Shift=    0.000
 RMSDP=3.19D-05 MaxDP=3.20D-03 DE=-4.83D-03 OVMax= 4.80D-03

 Cycle   6  Pass 1  IDiag  1:
 RMSU=  2.34D-05    CP:  9.13D-01  1.62D+00  8.08D-01  6.92D-01  1.09D+00
 E= -1054.75019579384     Delta-E=       -0.000110120951 Rises=F Damp=F
 DIIS: error= 1.56D-04 at cycle   6 NSaved=   6.
 NSaved= 6 IEnMin= 6 EnMin= -1054.75019579384     IErMin= 6 ErrMin= 1.56D-04
 ErrMax= 1.56D-04  0.00D+00 EMaxC= 1.00D-01 BMatC= 2.15D-05 BMatP= 1.13D-04
 IDIUse=3 WtCom= 9.98D-01 WtEn= 1.56D-03
 Coeff-Com:  0.636D-03-0.363D-02 0.956D-02 0.228D-01 0.297D+00 0.674D+00
 Coeff-En:   0.000D+00 0.000D+00 0.000D+00 0.000D+00 0.000D+00 0.100D+01
 Coeff:      0.635D-03-0.362D-02 0.954D-02 0.227D-01 0.296D+00 0.674D+00
 Gap=     0.217 Goal=   None    Shift=    0.000
 RMSDP=8.03D-06 MaxDP=3.61D-04 DE=-1.10D-04 OVMax= 2.59D-03

 Cycle   7  Pass 1  IDiag  1:
 RMSU=  6.69D-06    CP:  9.13D-01  1.62D+00  8.08D-01  6.94D-01  1.16D+00
                    CP:  1.01D+00
 E= -1054.75022157148     Delta-E=       -0.000025777647 Rises=F Damp=F
 DIIS: error= 5.74D-05 at cycle   7 NSaved=   7.
 NSaved= 7 IEnMin= 7 EnMin= -1054.75022157148     IErMin= 7 ErrMin= 5.74D-05
 ErrMax= 5.74D-05  0.00D+00 EMaxC= 1.00D-01 BMatC= 2.41D-06 BMatP= 2.15D-05
 IDIUse=1 WtCom= 1.00D+00 WtEn= 0.00D+00
 Coeff-Com:  0.182D-02-0.412D-02-0.978D-02-0.326D-01-0.220D-01 0.206D+00
 Coeff-Com:  0.861D+00
 Coeff:      0.182D-02-0.412D-02-0.978D-02-0.326D-01-0.220D-01 0.206D+00
 Coeff:      0.861D+00
 Gap=     0.217 Goal=   None    Shift=    0.000
 RMSDP=7.20D-06 MaxDP=6.53D-04 DE=-2.58D-05 OVMax= 1.47D-03

 Cycle   8  Pass 1  IDiag  1:
 RMSU=  3.07D-06    CP:  9.13D-01  1.62D+00  8.10D-01  6.85D-01  1.21D+00
                    CP:  1.16D+00  1.23D+00
 E= -1054.75022574865     Delta-E=       -0.000004177168 Rises=F Damp=F
 DIIS: error= 1.49D-05 at cycle   8 NSaved=   8.
 NSaved= 8 IEnMin= 8 EnMin= -1054.75022574865     IErMin= 8 ErrMin= 1.49D-05
 ErrMax= 1.49D-05  0.00D+00 EMaxC= 1.00D-01 BMatC= 3.63D-07 BMatP= 2.41D-06
 IDIUse=1 WtCom= 1.00D+00 WtEn= 0.00D+00
 Coeff-Com:  0.768D-03-0.151D-02-0.474D-02-0.170D-01-0.400D-01 0.202D-01
 Coeff-Com:  0.355D+00 0.688D+00
 Coeff:      0.768D-03-0.151D-02-0.474D-02-0.170D-01-0.400D-01 0.202D-01
 Coeff:      0.355D+00 0.688D+00
 Gap=     0.217 Goal=   None    Shift=    0.000
 RMSDP=1.94D-06 MaxDP=1.42D-04 DE=-4.18D-06 OVMax= 4.94D-04

 Cycle   9  Pass 1  IDiag  1:
 RMSU=  1.06D-06    CP:  9.13D-01  1.62D+00  8.10D-01  6.82D-01  1.22D+00
                    CP:  1.18D+00  1.33D+00  1.15D+00
 E= -1054.75022639163     Delta-E=       -0.000000642985 Rises=F Damp=F
 DIIS: error= 8.30D-06 at cycle   9 NSaved=   9.
 NSaved= 9 IEnMin= 9 EnMin= -1054.75022639163     IErMin= 9 ErrMin= 8.30D-06
 ErrMax= 8.30D-06  0.00D+00 EMaxC= 1.00D-01 BMatC= 3.84D-08 BMatP= 3.63D-07
 IDIUse=1 WtCom= 1.00D+00 WtEn= 0.00D+00
 Coeff-Com: -0.166D-03 0.426D-03 0.106D-02 0.206D-02-0.414D-02-0.311D-01
 Coeff-Com: -0.955D-01 0.138D+00 0.989D+00
 Coeff:     -0.166D-03 0.426D-03 0.106D-02 0.206D-02-0.414D-02-0.311D-01
 Coeff:     -0.955D-01 0.138D+00 0.989D+00
 Gap=     0.217 Goal=   None    Shift=    0.000
 RMSDP=1.42D-06 MaxDP=1.26D-04 DE=-6.43D-07 OVMax= 3.21D-04

 Cycle  10  Pass 1  IDiag  1:
 RMSU=  4.30D-07    CP:  9.13D-01  1.62D+00  8.11D-01  6.81D-01  1.22D+00
                    CP:  1.20D+00  1.39D+00  1.38D+00  1.32D+00
 E= -1054.75022650735     Delta-E=       -0.000000115714 Rises=F Damp=F
 DIIS: error= 2.53D-06 at cycle  10 NSaved=  10.
 NSaved=10 IEnMin=10 EnMin= -1054.75022650735     IErMin=10 ErrMin= 2.53D-06
 ErrMax= 2.53D-06  0.00D+00 EMaxC= 1.00D-01 BMatC= 7.92D-09 BMatP= 3.84D-08
 IDIUse=1 WtCom= 1.00D+00 WtEn= 0.00D+00
 Coeff-Com: -0.151D-03 0.340D-03 0.103D-02 0.280D-02 0.288D-02-0.154D-01
 Coeff-Com: -0.826D-01-0.118D-01 0.449D+00 0.654D+00
 Coeff:     -0.151D-03 0.340D-03 0.103D-02 0.280D-02 0.288D-02-0.154D-01
 Coeff:     -0.826D-01-0.118D-01 0.449D+00 0.654D+00
 Gap=     0.217 Goal=   None    Shift=    0.000
 RMSDP=2.38D-07 MaxDP=1.52D-05 DE=-1.16D-07 OVMax= 6.62D-05

 Cycle  11  Pass 1  IDiag  1:
 RMSU=  1.47D-07    CP:  9.13D-01  1.62D+00  8.11D-01  6.81D-01  1.22D+00
                    CP:  1.20D+00  1.40D+00  1.41D+00  1.45D+00  1.08D+00
 E= -1054.75022651971     Delta-E=       -0.000000012362 Rises=F Damp=F
 DIIS: error= 8.83D-07 at cycle  11 NSaved=  11.
 NSaved=11 IEnMin=11 EnMin= -1054.75022651971     IErMin=11 ErrMin= 8.83D-07
 ErrMax= 8.83D-07  0.00D+00 EMaxC= 1.00D-01 BMatC= 6.52D-10 BMatP= 7.92D-09
 IDIUse=1 WtCom= 1.00D+00 WtEn= 0.00D+00
 Coeff-Com: -0.104D-04 0.176D-04 0.803D-04 0.369D-03 0.136D-02 0.107D-02
 Coeff-Com: -0.676D-02-0.282D-01-0.497D-01 0.180D+00 0.902D+00
 Coeff:     -0.104D-04 0.176D-04 0.803D-04 0.369D-03 0.136D-02 0.107D-02
 Coeff:     -0.676D-02-0.282D-01-0.497D-01 0.180D+00 0.902D+00
 Gap=     0.217 Goal=   None    Shift=    0.000
 RMSDP=1.23D-07 MaxDP=6.99D-06 DE=-1.24D-08 OVMax= 2.98D-05

 Cycle  12  Pass 1  IDiag  1:
 RMSU=  5.12D-08    CP:  9.13D-01  1.62D+00  8.11D-01  6.80D-01  1.22D+00
                    CP:  1.20D+00  1.40D+00  1.42D+00  1.50D+00  1.19D+00
                    CP:  1.14D+00
 E= -1054.75022652151     Delta-E=       -0.000000001797 Rises=F Damp=F
 DIIS: error= 2.54D-07 at cycle  12 NSaved=  12.
 NSaved=12 IEnMin=12 EnMin= -1054.75022652151     IErMin=12 ErrMin= 2.54D-07
 ErrMax= 2.54D-07  0.00D+00 EMaxC= 1.00D-01 BMatC= 9.34D-11 BMatP= 6.52D-10
 IDIUse=1 WtCom= 1.00D+00 WtEn= 0.00D+00
 Coeff-Com:  0.103D-04-0.252D-04-0.700D-04-0.126D-03 0.226D-03 0.191D-02
 Coeff-Com:  0.532D-02-0.832D-02-0.589D-01-0.230D-03 0.318D+00 0.742D+00
 Coeff:      0.103D-04-0.252D-04-0.700D-04-0.126D-03 0.226D-03 0.191D-02
 Coeff:      0.532D-02-0.832D-02-0.589D-01-0.230D-03 0.318D+00 0.742D+00
 Gap=     0.217 Goal=   None    Shift=    0.000
 RMSDP=3.11D-08 MaxDP=2.71D-06 DE=-1.80D-09 OVMax= 5.93D-06

 Cycle  13  Pass 1  IDiag  1:
 RMSU=  1.58D-08    CP:  9.13D-01  1.62D+00  8.11D-01  6.81D-01  1.22D+00
                    CP:  1.20D+00  1.40D+00  1.42D+00  1.51D+00  1.21D+00
                    CP:  1.25D+00  1.13D+00
 E= -1054.75022652169     Delta-E=       -0.000000000180 Rises=F Damp=F
 DIIS: error= 1.05D-07 at cycle  13 NSaved=  13.
 NSaved=13 IEnMin=13 EnMin= -1054.75022652169     IErMin=13 ErrMin= 1.05D-07
 ErrMax= 1.05D-07  0.00D+00 EMaxC= 1.00D-01 BMatC= 1.67D-11 BMatP= 9.34D-11
 IDIUse=1 WtCom= 1.00D+00 WtEn= 0.00D+00
 Coeff-Com:  0.504D-05-0.114D-04-0.396D-04-0.977D-04-0.105D-03 0.608D-03
 Coeff-Com:  0.302D-02 0.105D-02-0.159D-01-0.282D-01-0.190D-01 0.304D+00
 Coeff-Com:  0.755D+00
 Coeff:      0.504D-05-0.114D-04-0.396D-04-0.977D-04-0.105D-03 0.608D-03
 Coeff:      0.302D-02 0.105D-02-0.159D-01-0.282D-01-0.190D-01 0.304D+00
 Coeff:      0.755D+00
 Gap=     0.217 Goal=   None    Shift=    0.000
 RMSDP=9.58D-09 MaxDP=4.60D-07 DE=-1.80D-10 OVMax= 2.18D-06

 Error on total polarization charges =  0.06704
 SCF Done:  E(RM062X) =  -1054.75022652     A.U. after   13 cycles
            NFock= 13  Conv=0.96D-08     -V/T= 2.0049
 KE= 1.049599446247D+03 PE=-6.581063919105D+03 EE= 2.411411354227D+03
 SMD-CDS (non-electrostatic) energy       (kcal/mol) =      -4.13
 (included in total energy above)
 Leave Link  502 at Fri Mar 26 23:35:50 2021, MaxMem=  5242880000 cpu:     14533.2
 (Enter /opt/nce/packages/global/g09/l601.exe)
 Copying SCF densities to generalized density rwf, IOpCl= 0 IROHF=0.

 **********************************************************************

            Population analysis using the SCF density.

 **********************************************************************

 Alpha  occ. eigenvalues --  -19.67670 -14.78955 -10.60986 -10.60865 -10.59565
 Alpha  occ. eigenvalues --  -10.59521 -10.58491 -10.55274 -10.55038 -10.54635
 Alpha  occ. eigenvalues --  -10.54626 -10.54520 -10.54490 -10.54391 -10.54253
 Alpha  occ. eigenvalues --  -10.54246 -10.54138 -10.54135 -10.53958 -10.53928
 Alpha  occ. eigenvalues --  -10.53921 -10.53849 -10.53837 -10.53806 -10.53726
 Alpha  occ. eigenvalues --  -10.53644  -1.22240  -1.09262  -0.98539  -0.97053
 Alpha  occ. eigenvalues --   -0.96501  -0.94369  -0.88171  -0.87190  -0.86178
 Alpha  occ. eigenvalues --   -0.85099  -0.84399  -0.83877  -0.82782  -0.79447
 Alpha  occ. eigenvalues --   -0.74091  -0.73845  -0.69912  -0.69901  -0.68902
 Alpha  occ. eigenvalues --   -0.67543  -0.67268  -0.65373  -0.63722  -0.61509
 Alpha  occ. eigenvalues --   -0.59350  -0.57980  -0.56994  -0.55877  -0.55004
 Alpha  occ. eigenvalues --   -0.54491  -0.53502  -0.53172  -0.51963  -0.51142
 Alpha  occ. eigenvalues --   -0.50685  -0.50364  -0.50067  -0.49727  -0.49216
 Alpha  occ. eigenvalues --   -0.48373  -0.46630  -0.45790  -0.45552  -0.44807
 Alpha  occ. eigenvalues --   -0.44629  -0.44255  -0.42906  -0.42455  -0.41947
 Alpha  occ. eigenvalues --   -0.41142  -0.40167  -0.39699  -0.39243  -0.38878
 Alpha  occ. eigenvalues --   -0.33754  -0.32423  -0.31576  -0.31471  -0.31098
 Alpha  occ. eigenvalues --   -0.29774  -0.28528  -0.22680
 Alpha virt. eigenvalues --   -0.00989   0.00555   0.01200   0.01802   0.02355
 Alpha virt. eigenvalues --    0.03005   0.03453   0.07425   0.08219   0.08868
 Alpha virt. eigenvalues --    0.09489   0.10195   0.10322   0.11091   0.11575
 Alpha virt. eigenvalues --    0.11802   0.12857   0.13248   0.13654   0.14342
 Alpha virt. eigenvalues --    0.14498   0.14612   0.14748   0.15072   0.15543
 Alpha virt. eigenvalues --    0.15949   0.16148   0.17502   0.18260   0.18356
 Alpha virt. eigenvalues --    0.19320   0.20242   0.20574   0.20904   0.20993
 Alpha virt. eigenvalues --    0.21917   0.22465   0.22935   0.23103   0.23575
 Alpha virt. eigenvalues --    0.23952   0.24333   0.24422   0.24613   0.24869
 Alpha virt. eigenvalues --    0.24993   0.25222   0.25249   0.26154   0.26397
 Alpha virt. eigenvalues --    0.26572   0.26850   0.27191   0.27723   0.27833
 Alpha virt. eigenvalues --    0.27903   0.28443   0.29071   0.29686   0.30105
 Alpha virt. eigenvalues --    0.30792   0.30984   0.31197   0.31428   0.31991
 Alpha virt. eigenvalues --    0.32238   0.32684   0.32832   0.33975   0.34426
 Alpha virt. eigenvalues --    0.34721   0.35048   0.35506   0.35939   0.36764
 Alpha virt. eigenvalues --    0.37029   0.37574   0.37783   0.37858   0.38027
 Alpha virt. eigenvalues --    0.38608   0.38709   0.39344   0.39532   0.39813
 Alpha virt. eigenvalues --    0.40492   0.41061   0.41244   0.41405   0.41795
 Alpha virt. eigenvalues --    0.42150   0.42348   0.42784   0.43335   0.43411
 Alpha virt. eigenvalues --    0.43672   0.44246   0.44646   0.44735   0.45191
 Alpha virt. eigenvalues --    0.45356   0.46129   0.46269   0.46401   0.46639
 Alpha virt. eigenvalues --    0.47467   0.47535   0.48118   0.48355   0.48770
 Alpha virt. eigenvalues --    0.49261   0.49544   0.50060   0.50191   0.50792
 Alpha virt. eigenvalues --    0.50904   0.51618   0.52423   0.52713   0.52967
 Alpha virt. eigenvalues --    0.53526   0.53619   0.53878   0.54102   0.54337
 Alpha virt. eigenvalues --    0.55180   0.55769   0.56093   0.56189   0.56985
 Alpha virt. eigenvalues --    0.57695   0.58369   0.59078   0.59640   0.60267
 Alpha virt. eigenvalues --    0.60518   0.61390   0.61830   0.62869   0.63491
 Alpha virt. eigenvalues --    0.64467   0.65106   0.65980   0.67016   0.67339
 Alpha virt. eigenvalues --    0.67551   0.68406   0.68581   0.68821   0.69208
 Alpha virt. eigenvalues --    0.70006   0.70592   0.70879   0.71701   0.71971
 Alpha virt. eigenvalues --    0.72901   0.73178   0.73632   0.74116   0.74301
 Alpha virt. eigenvalues --    0.74859   0.74966   0.75049   0.75413   0.75801
 Alpha virt. eigenvalues --    0.76045   0.76789   0.76969   0.77644   0.78078
 Alpha virt. eigenvalues --    0.78252   0.78578   0.78760   0.79501   0.79688
 Alpha virt. eigenvalues --    0.80214   0.80764   0.81570   0.81879   0.82834
 Alpha virt. eigenvalues --    0.83276   0.83871   0.84798   0.84897   0.85404
 Alpha virt. eigenvalues --    0.86083   0.86300   0.87278   0.87924   0.88768
 Alpha virt. eigenvalues --    0.89080   0.89890   0.90290   0.90774   0.91121
 Alpha virt. eigenvalues --    0.91424   0.92018   0.92530   0.93249   0.93602
 Alpha virt. eigenvalues --    0.94117   0.94362   0.94792   0.95567   0.95997
 Alpha virt. eigenvalues --    0.96480   0.97247   0.97417   0.98206   0.98609
 Alpha virt. eigenvalues --    0.99958   1.00420   1.01069   1.01975   1.03813
 Alpha virt. eigenvalues --    1.04195   1.04358   1.05298   1.06392   1.07305
 Alpha virt. eigenvalues --    1.07640   1.08007   1.08237   1.08654   1.10180
 Alpha virt. eigenvalues --    1.11260   1.11835   1.12914   1.13550   1.14035
 Alpha virt. eigenvalues --    1.15170   1.16334   1.16462   1.17070   1.17610
 Alpha virt. eigenvalues --    1.18230   1.18760   1.19567   1.20674   1.21173
 Alpha virt. eigenvalues --    1.21496   1.22087   1.23419   1.24405   1.24772
 Alpha virt. eigenvalues --    1.24971   1.25368   1.26353   1.27264   1.27687
 Alpha virt. eigenvalues --    1.27850   1.28315   1.28886   1.29180   1.29862
 Alpha virt. eigenvalues --    1.30274   1.31192   1.31559   1.32037   1.32456
 Alpha virt. eigenvalues --    1.33527   1.34452   1.34893   1.35803   1.36017
 Alpha virt. eigenvalues --    1.36770   1.37463   1.38001   1.38393   1.38955
 Alpha virt. eigenvalues --    1.39966   1.41708   1.42008   1.43827   1.44515
 Alpha virt. eigenvalues --    1.45170   1.45799   1.46500   1.47137   1.47564
 Alpha virt. eigenvalues --    1.48484   1.48943   1.50015   1.50369   1.50618
 Alpha virt. eigenvalues --    1.51716   1.51729   1.52289   1.52805   1.53286
 Alpha virt. eigenvalues --    1.54470   1.54799   1.55543   1.55615   1.56278
 Alpha virt. eigenvalues --    1.56798   1.57290   1.57998   1.58339   1.58989
 Alpha virt. eigenvalues --    1.59847   1.60362   1.61037   1.61517   1.62146
 Alpha virt. eigenvalues --    1.63084   1.63660   1.64213   1.64625   1.64907
 Alpha virt. eigenvalues --    1.66020   1.67225   1.67992   1.68578   1.69586
 Alpha virt. eigenvalues --    1.70106   1.70580   1.71043   1.71381   1.71770
 Alpha virt. eigenvalues --    1.72521   1.72926   1.73309   1.73916   1.74663
 Alpha virt. eigenvalues --    1.74701   1.75286   1.75908   1.76223   1.76883
 Alpha virt. eigenvalues --    1.77258   1.77604   1.77790   1.78182   1.78733
 Alpha virt. eigenvalues --    1.79361   1.79556   1.81049   1.81548   1.81876
 Alpha virt. eigenvalues --    1.84095   1.84403   1.85095   1.86864   1.87795
 Alpha virt. eigenvalues --    1.88332   1.90467   1.90978   1.91181   1.92635
 Alpha virt. eigenvalues --    1.92859   1.93514   1.94521   1.95123   1.95823
 Alpha virt. eigenvalues --    1.96997   1.97464   1.98110   1.98885   2.00545
 Alpha virt. eigenvalues --    2.01043   2.02925   2.03530   2.03833   2.05128
 Alpha virt. eigenvalues --    2.05733   2.07050   2.07682   2.07991   2.08049
 Alpha virt. eigenvalues --    2.09272   2.10115   2.10529   2.11827   2.12778
 Alpha virt. eigenvalues --    2.12970   2.13281   2.13449   2.14580   2.15403
 Alpha virt. eigenvalues --    2.16637   2.17721   2.18149   2.19696   2.20768
 Alpha virt. eigenvalues --    2.21271   2.21381   2.21580   2.22657   2.24256
 Alpha virt. eigenvalues --    2.24359   2.25060   2.25550   2.25979   2.26532
 Alpha virt. eigenvalues --    2.26939   2.27768   2.28106   2.28686   2.30094
 Alpha virt. eigenvalues --    2.30946   2.32257   2.33777   2.35608   2.36771
 Alpha virt. eigenvalues --    2.38060   2.38578   2.40664   2.41027   2.41347
 Alpha virt. eigenvalues --    2.42063   2.44471   2.45352   2.47876   2.48163
 Alpha virt. eigenvalues --    2.48846   2.49051   2.50106   2.50733   2.51195
 Alpha virt. eigenvalues --    2.52629   2.54203   2.54311   2.54890   2.55566
 Alpha virt. eigenvalues --    2.56302   2.56877   2.58019   2.59923   2.61066
 Alpha virt. eigenvalues --    2.61242   2.61670   2.62036   2.62547   2.63292
 Alpha virt. eigenvalues --    2.63922   2.64302   2.64461   2.65225   2.65474
 Alpha virt. eigenvalues --    2.66228   2.66637   2.67595   2.67898   2.68545
 Alpha virt. eigenvalues --    2.69001   2.69169   2.69512   2.69921   2.70626
 Alpha virt. eigenvalues --    2.70712   2.70962   2.71377   2.71749   2.72118
 Alpha virt. eigenvalues --    2.72216   2.72782   2.72893   2.73590   2.74120
 Alpha virt. eigenvalues --    2.74567   2.74647   2.75365   2.75773   2.76129
 Alpha virt. eigenvalues --    2.76457   2.76593   2.77451   2.77844   2.78716
 Alpha virt. eigenvalues --    2.78800   2.79451   2.79756   2.80197   2.80443
 Alpha virt. eigenvalues --    2.80839   2.81509   2.82047   2.82469   2.83653
 Alpha virt. eigenvalues --    2.84069   2.84371   2.84986   2.85246   2.85973
 Alpha virt. eigenvalues --    2.86397   2.86644   2.87137   2.87660   2.88203
 Alpha virt. eigenvalues --    2.88316   2.88636   2.89168   2.89897   2.90723
 Alpha virt. eigenvalues --    2.91211   2.91604   2.92091   2.92580   2.93009
 Alpha virt. eigenvalues --    2.94607   2.94862   2.95840   2.96349   2.97384
 Alpha virt. eigenvalues --    2.98623   2.99353   3.00676   3.01689   3.01735
 Alpha virt. eigenvalues --    3.02534   3.02922   3.03521   3.04375   3.04795
 Alpha virt. eigenvalues --    3.05943   3.06301   3.06538   3.07091   3.08785
 Alpha virt. eigenvalues --    3.09283   3.10184   3.11379   3.12079   3.12281
 Alpha virt. eigenvalues --    3.12546   3.12722   3.13057   3.14247   3.14489
 Alpha virt. eigenvalues --    3.14681   3.15375   3.15438   3.15718   3.15983
 Alpha virt. eigenvalues --    3.16242   3.17227   3.17678   3.18064   3.18484
 Alpha virt. eigenvalues --    3.18920   3.19460   3.19752   3.20434   3.20730
 Alpha virt. eigenvalues --    3.21246   3.22126   3.22756   3.23628   3.23777
 Alpha virt. eigenvalues --    3.24402   3.24665   3.25313   3.25825   3.26273
 Alpha virt. eigenvalues --    3.27116   3.27584   3.28059   3.28538   3.29031
 Alpha virt. eigenvalues --    3.29464   3.30255   3.30866   3.31260   3.32353
 Alpha virt. eigenvalues --    3.32781   3.32884   3.32977   3.34396   3.34535
 Alpha virt. eigenvalues --    3.34728   3.36229   3.36478   3.37382   3.37640
 Alpha virt. eigenvalues --    3.38107   3.38934   3.38964   3.39049   3.39533
 Alpha virt. eigenvalues --    3.40281   3.40522   3.40799   3.41234   3.41743
 Alpha virt. eigenvalues --    3.42293   3.42520   3.42677   3.43735   3.44195
 Alpha virt. eigenvalues --    3.44904   3.45592   3.46269   3.46423   3.47026
 Alpha virt. eigenvalues --    3.47454   3.47942   3.48910   3.49413   3.49678
 Alpha virt. eigenvalues --    3.50188   3.50914   3.51302   3.51521   3.51761
 Alpha virt. eigenvalues --    3.52375   3.53009   3.53387   3.53557   3.54300
 Alpha virt. eigenvalues --    3.54643   3.54851   3.55671   3.56923   3.57608
 Alpha virt. eigenvalues --    3.58211   3.58567   3.60144   3.60651   3.61085
 Alpha virt. eigenvalues --    3.63018   3.63040   3.63902   3.64292   3.65770
 Alpha virt. eigenvalues --    3.66763   3.67727   3.68356   3.69239   3.69687
 Alpha virt. eigenvalues --    3.72376   3.72397   3.73834   3.75863   3.75959
 Alpha virt. eigenvalues --    3.77232   3.78324   3.79520   3.80827   3.81920
 Alpha virt. eigenvalues --    3.82275   3.84120   3.86315   3.87018   3.88026
 Alpha virt. eigenvalues --    3.88545   3.89761   3.91659   3.92909   3.94179
 Alpha virt. eigenvalues --    3.95595   3.95857   3.98147   3.98685   3.99724
 Alpha virt. eigenvalues --    3.99930   4.00981   4.01584   4.03420   4.05374
 Alpha virt. eigenvalues --    4.05591   4.05906   4.07020   4.07920   4.08791
 Alpha virt. eigenvalues --    4.09278   4.10512   4.11200   4.11486   4.12993
 Alpha virt. eigenvalues --    4.13495   4.13961   4.14366   4.15704   4.15829
 Alpha virt. eigenvalues --    4.16273   4.16919   4.17371   4.17857   4.17973
 Alpha virt. eigenvalues --    4.18302   4.19098   4.19806   4.19851   4.20208
 Alpha virt. eigenvalues --    4.21173   4.21580   4.21853   4.22846   4.23418
 Alpha virt. eigenvalues --    4.24034   4.24198   4.24968   4.26315   4.26536
 Alpha virt. eigenvalues --    4.27510   4.28777   4.29814   4.30974   4.32262
 Alpha virt. eigenvalues --    4.32418   4.33175   4.34961   4.37524   4.38541
 Alpha virt. eigenvalues --    4.40523   4.43463   4.46216   4.46774   4.47888
[...]
     7  C    0.002174   0.002733  -0.000404  -0.000491   0.000889   0.000080
     8  C    0.006808   0.006672  -0.002709  -0.004581   0.003581   0.001048
     9  C   -0.014799  -0.021502   0.000282  -0.002893   0.000196  -0.000435
    10  H   -0.004761  -0.005131   0.000455  -0.000438   0.000194   0.000397
    11  C   -0.000785   0.000064   0.000015   0.000202  -0.000073  -0.000109
    12  C   -0.000008   0.000035  -0.000004   0.000037  -0.000059   0.000002
    13  C    0.000143  -0.000230   0.000028  -0.000033   0.000059  -0.000000
    14  H   -0.003828  -0.005704   0.000570  -0.000669   0.000215   0.000427
    15  H   -0.000004  -0.000008   0.000000   0.000000  -0.000001  -0.000000
    16  H    0.000017   0.000034  -0.000003  -0.000008   0.000005  -0.000001
    17  N   -0.017401  -0.025502   0.014023   0.020657  -0.009514   0.000638
    18  C    0.421208   0.480496  -0.106318  -0.062204  -0.032133  -0.076621
    19  C    4.983473  -0.008628   0.501967  -0.066893   0.009294  -0.039030
    20  C   -0.008628   5.042625  -0.037842   0.413605   0.420482  -0.029391
    21  C    0.501967  -0.037842   4.985799  -0.049702  -0.001976   0.485432
    22  C   -0.066893   0.413605  -0.049702   5.091165  -0.035317   0.457433
    23  H    0.009294   0.420482  -0.001976  -0.035317   0.438050   0.006240
    24  C   -0.039030  -0.029391   0.485432   0.457433   0.006240   5.010531
    25  H   -0.000530  -0.032888   0.004109   0.418629  -0.003551  -0.034160
    26  H    0.002876   0.004396  -0.031896  -0.032577  -0.000115   0.419126
    27  H   -0.000002  -0.000005   0.000000   0.000000  -0.000000  -0.000000
    28  H   -0.000018   0.000039  -0.000005   0.000000   0.000003  -0.000003
    29  C    0.000012   0.000006  -0.000000  -0.000001   0.000001   0.000000
    30  C   -0.000001   0.000001  -0.000000   0.000000  -0.000000  -0.000000
    31  C    0.000001  -0.000004   0.000000  -0.000000   0.000001   0.000000
    32  C    0.000000  -0.000000   0.000000  -0.000000   0.000000   0.000000
    33  H    0.000000  -0.000000   0.000000  -0.000000   0.000000   0.000000
    34  C   -0.000000   0.000000  -0.000000   0.000000  -0.000000  -0.000000
    35  H    0.000000  -0.000000   0.000000  -0.000000   0.000000   0.000000
    36  C    0.000000  -0.000000   0.000000  -0.000000  -0.000000   0.000000
    37  H   -0.000000  -0.000000   0.000000   0.000000   0.000000  -0.000000
    38  H   -0.000000  -0.000000  -0.000000  -0.000000   0.000000  -0.000000
    39  O    0.000326   0.000325  -0.000014   0.000004  -0.000049   0.000002
    40  H    0.000002   0.000001  -0.000000  -0.000000  -0.000000   0.000000
    41  H    0.000000   0.000000  -0.000000  -0.000000  -0.000000   0.000000
    42  H   -0.034836  -0.001956   0.420891   0.005956   0.000022  -0.039189
    43  H    0.423546   0.007618  -0.028520  -0.003067  -0.000077   0.007027
              25         26         27         28         29         30
     1  C   -0.000008  -0.000001   0.000014   0.395791  -0.100593   0.013111
     2  C   -0.000033  -0.000002  -0.000054  -0.007294   0.018961  -0.002386
     3  C   -0.000009   0.000007   0.000679   0.007600  -0.011406   0.001562
     4  C   -0.000000   0.000000  -0.000046  -0.001740   0.009532   0.004126
     5  C    0.000000   0.000000   0.000484   0.007863  -0.072627  -0.008559
     6  C    0.000000   0.000000  -0.000026  -0.042055   0.281616  -0.061395
     7  C   -0.000001   0.000000  -0.054154  -0.000017   0.000093  -0.000015
     8  C   -0.000005   0.000008   0.015938   0.000038  -0.000023   0.000005
     9  C   -0.000021  -0.000002  -0.003235  -0.000001   0.000000   0.000000
    10  H    0.000008   0.000001   0.000033   0.000000   0.000000  -0.000000
    11  C   -0.000004  -0.000000   0.006444  -0.000000   0.000000  -0.000000
    12  C    0.000000   0.000000  -0.027223   0.000000  -0.000001   0.000000
    13  C    0.000000  -0.000000   0.417558  -0.000000   0.000008  -0.000001
    14  H    0.000009   0.000001   0.000000  -0.002847  -0.000149   0.000005
    15  H    0.000000  -0.000000   0.000193  -0.000106  -0.004557   0.001573
    16  H    0.000000   0.000000  -0.000147  -0.000000   0.000000  -0.000000
    17  N   -0.000250   0.000014  -0.000134  -0.000133  -0.000132   0.000007
    18  C    0.006974   0.000133   0.000075   0.000398  -0.000087   0.000007
    19  C   -0.000530   0.002876  -0.000002  -0.000018   0.000012  -0.000001
    20  C   -0.032888   0.004396  -0.000005   0.000039   0.000006   0.000001
    21  C    0.004109  -0.031896   0.000000  -0.000005  -0.000000  -0.000000
    22  C    0.418629  -0.032577   0.000000   0.000000  -0.000001   0.000000
    23  H   -0.003551  -0.000115  -0.000000   0.000003   0.000001  -0.000000
    24  C   -0.034160   0.419126  -0.000000  -0.000003   0.000000  -0.000000
    25  H    0.458397  -0.003329  -0.000000   0.000000  -0.000000   0.000000
    26  H   -0.003329   0.458378  -0.000000   0.000000   0.000000  -0.000000
    27  H   -0.000000  -0.000000   0.454047  -0.000000   0.000001  -0.000000
    28  H    0.000000   0.000000  -0.000000   0.447050  -0.001325   0.000368
    29  C   -0.000000   0.000000   0.000001  -0.001325   5.086928   0.461760
    30  C    0.000000  -0.000000  -0.000000   0.000368   0.461760   5.098355
    31  C   -0.000000   0.000000   0.000000   0.001464   0.483185  -0.062398
    32  C    0.000000   0.000000   0.000000  -0.000084  -0.074134   0.502309
    33  H    0.000000   0.000000   0.000000   0.000046  -0.040539   0.406899
    34  C   -0.000000  -0.000000  -0.000000   0.000263  -0.076566  -0.024571
    35  H   -0.000000   0.000000   0.000000  -0.001683  -0.041967   0.004791
    36  C   -0.000000   0.000000   0.000000  -0.000028  -0.027597  -0.062781
    37  H    0.000000  -0.000000   0.000000   0.000001   0.005640  -0.034341
    38  H    0.000000   0.000000   0.000000   0.000043   0.005657  -0.000990
    39  O   -0.000000   0.000000   0.006313   0.000012  -0.000246  -0.000050
    40  H    0.000000   0.000000  -0.004657   0.000000   0.000000   0.000000
    41  H   -0.000000   0.000000   0.000000  -0.000000  -0.000362   0.004888
    42  H   -0.000171  -0.003517  -0.000000   0.000000  -0.000000   0.000000
    43  H    0.000041  -0.000126  -0.000000   0.000002   0.000001  -0.000000
              31         32         33         34         35         36
     1  C   -0.005414  -0.000964   0.001198   0.001335   0.001401   0.000237
     2  C    0.001723   0.000115  -0.000280  -0.000124   0.000356  -0.000033
     3  C    0.001029  -0.000057   0.000228  -0.000006   0.000081   0.000009
     4  C   -0.003138  -0.000147  -0.000410   0.000210  -0.000097  -0.000075
     5  C    0.017966   0.001120   0.002694  -0.001783   0.000616   0.000410
     6  C   -0.090863   0.003213   0.001067   0.008159   0.004301  -0.003596
     7  C    0.000003   0.000000  -0.000008  -0.000000  -0.000000  -0.000000
     8  C    0.000004   0.000000   0.000003  -0.000000   0.000000   0.000000
     9  C    0.000000   0.000000   0.000000  -0.000000   0.000000  -0.000000
    10  H    0.000000   0.000000   0.000000  -0.000000   0.000000   0.000000
    11  C   -0.000000  -0.000000  -0.000000  -0.000000  -0.000000   0.000000
    12  C   -0.000000  -0.000000  -0.000000   0.000000   0.000000  -0.000000
    13  C    0.000000  -0.000000  -0.000000  -0.000000  -0.000000   0.000000
    14  H    0.000020  -0.000000   0.000000  -0.000002   0.000021   0.000000
    15  H    0.000705   0.000325  -0.000800  -0.000148   0.000037   0.000020
    16  H    0.000000   0.000000  -0.000000  -0.000000  -0.000000   0.000000
    17  N   -0.000008  -0.000000   0.000001   0.000000   0.000001   0.000000
    18  C    0.000009  -0.000000   0.000001  -0.000000   0.000002  -0.000000
    19  C    0.000001   0.000000   0.000000  -0.000000   0.000000   0.000000
    20  C   -0.000004  -0.000000  -0.000000   0.000000  -0.000000  -0.000000
    21  C    0.000000   0.000000   0.000000  -0.000000   0.000000   0.000000
    22  C   -0.000000  -0.000000  -0.000000   0.000000  -0.000000  -0.000000
    23  H    0.000001   0.000000   0.000000  -0.000000   0.000000  -0.000000
    24  C    0.000000   0.000000   0.000000  -0.000000   0.000000   0.000000
    25  H   -0.000000   0.000000   0.000000  -0.000000  -0.000000  -0.000000
    26  H    0.000000   0.000000   0.000000  -0.000000   0.000000   0.000000
    27  H    0.000000   0.000000   0.000000  -0.000000   0.000000   0.000000
    28  H    0.001464  -0.000084   0.000046   0.000263  -0.001683  -0.000028
    29  C    0.483185  -0.074134  -0.040539  -0.076566  -0.041967  -0.027597
    30  C   -0.062398   0.502309   0.406899  -0.024571   0.004791  -0.062781
    31  C    5.106986  -0.025748   0.004922   0.496319   0.407219  -0.060117
    32  C   -0.025748   4.971008  -0.018053  -0.066485  -0.000706   0.509202
    33  H    0.004922  -0.018053   0.449203  -0.000761  -0.000157   0.002931
    34  C    0.496319  -0.066485  -0.000761   4.974774  -0.017659   0.507883
    35  H    0.407219  -0.000706  -0.000157  -0.017659   0.448397   0.002897
    36  C   -0.060117   0.509202   0.002931   0.507883   0.002897   4.968010
    37  H   -0.001008   0.420000  -0.003257   0.004499   0.000044  -0.032576
    38  H   -0.034108   0.004491   0.000045   0.419786  -0.003291  -0.032674
    39  O   -0.000001  -0.000000   0.000029   0.000000   0.000001   0.000000
    40  H    0.000000  -0.000000  -0.000000  -0.000000   0.000000  -0.000000
    41  H    0.004947  -0.034721  -0.000176  -0.034656  -0.000178   0.420710
    42  H   -0.000000  -0.000000  -0.000000   0.000000   0.000000  -0.000000
    43  H    0.000000   0.000000   0.000000  -0.000000  -0.000000   0.000000
              37         38         39         40         41         42
     1  C    0.000022   0.000047   0.000196  -0.000000  -0.000005  -0.000001
     2  C   -0.000001   0.000000   0.005989   0.000001   0.000000   0.000018
     3  C    0.000001   0.000001  -0.071415  -0.000020  -0.000000   0.000001
     4  C    0.000004  -0.000001   0.296046   0.000043   0.000000   0.000001
     5  C    0.000032   0.000028  -0.054288  -0.000002  -0.000008  -0.000000
     6  C   -0.000094  -0.000148   0.004277   0.000000   0.000071  -0.000000
     7  C    0.000000  -0.000000   0.297235   0.011202   0.000000   0.000001
     8  C   -0.000000   0.000000  -0.075291  -0.003787  -0.000000   0.000001
     9  C    0.000000   0.000000   0.005740   0.009046  -0.000000   0.000015
    10  H    0.000000   0.000000  -0.000069  -0.000151  -0.000000   0.000001
    11  C   -0.000000  -0.000000  -0.000013  -0.042263   0.000000  -0.000003
    12  C   -0.000000   0.000000   0.003953   0.431063  -0.000000   0.000000
    13  C    0.000000  -0.000000  -0.048742  -0.044277   0.000000  -0.000000
    14  H    0.000000  -0.000000  -0.000075   0.000000   0.000000  -0.000001
    15  H    0.000036   0.000001   0.007538  -0.000000  -0.000001  -0.000000
    16  H   -0.000000  -0.000000   0.000013  -0.003597   0.000000  -0.000000
    17  N    0.000000   0.000000  -0.001132   0.000018  -0.000000  -0.000447
    18  C    0.000000   0.000000  -0.003595  -0.000020  -0.000000   0.010722
    19  C   -0.000000  -0.000000   0.000326   0.000002   0.000000  -0.034836
    20  C   -0.000000  -0.000000   0.000325   0.000001   0.000000  -0.001956
    21  C    0.000000  -0.000000  -0.000014  -0.000000  -0.000000   0.420891
    22  C    0.000000  -0.000000   0.000004  -0.000000  -0.000000   0.005956
    23  H    0.000000   0.000000  -0.000049  -0.000000  -0.000000   0.000022
    24  C   -0.000000  -0.000000   0.000002   0.000000   0.000000  -0.039189
    25  H    0.000000   0.000000  -0.000000   0.000000  -0.000000  -0.000171
    26  H   -0.000000   0.000000   0.000000   0.000000   0.000000  -0.003517
    27  H    0.000000   0.000000   0.006313  -0.004657   0.000000  -0.000000
    28  H    0.000001   0.000043   0.000012   0.000000  -0.000000   0.000000
    29  C    0.005640   0.005657  -0.000246   0.000000  -0.000362  -0.000000
    30  C   -0.034341  -0.000990  -0.000050   0.000000   0.004888   0.000000
    31  C   -0.001008  -0.034108  -0.000001   0.000000   0.004947  -0.000000
    32  C    0.420000   0.004491  -0.000000  -0.000000  -0.034721  -0.000000
    33  H   -0.003257   0.000045   0.000029  -0.000000  -0.000176  -0.000000
    34  C    0.004499   0.419786   0.000000  -0.000000  -0.034656   0.000000
    35  H    0.000044  -0.003291   0.000001   0.000000  -0.000178   0.000000
    36  C   -0.032576  -0.032674   0.000000  -0.000000   0.420710  -0.000000
    37  H    0.462172  -0.000178   0.000000   0.000000  -0.003531   0.000000
    38  H   -0.000178   0.462367   0.000000   0.000000  -0.003522   0.000000
    39  O    0.000000   0.000000   7.912666  -0.000124   0.000000  -0.000000
    40  H    0.000000   0.000000  -0.000124   0.464347   0.000000  -0.000000
    41  H   -0.003531  -0.003522   0.000000   0.000000   0.463755  -0.000000
    42  H    0.000000   0.000000  -0.000000  -0.000000  -0.000000   0.460995
    43  H    0.000000   0.000000   0.000037  -0.000000  -0.000000  -0.004289
              43
     1  C   -0.000115
     2  C   -0.000339
     3  C    0.000962
     4  C    0.000174
     5  C    0.000067
     6  C    0.000009
     7  C    0.000158
     8  C    0.001017
     9  C   -0.000522
    10  H    0.000165
    11  C   -0.000006
    12  C    0.000001
    13  C    0.000017
    14  H    0.000130
    15  H   -0.000000
    16  H    0.000003
    17  N    0.003261
    18  C   -0.042207
    19  C    0.423546
    20  C    0.007618
    21  C   -0.028520
    22  C   -0.003067
    23  H   -0.000077
    24  C    0.007027
    25  H    0.000041
    26  H   -0.000126
    27  H   -0.000000
    28  H    0.000002
    29  C    0.000001
    30  C   -0.000000
    31  C    0.000000
    32  C    0.000000
    33  H    0.000000
    34  C   -0.000000
    35  H   -0.000000
    36  C    0.000000
    37  H    0.000000
    38  H    0.000000
    39  O    0.000037
    40  H   -0.000000
    41  H   -0.000000
    42  H   -0.004289
    43  H    0.448021
 Mulliken charges:
               1
     1  C   -0.267366
     2  C   -0.204442
     3  C    0.051465
     4  C    0.189888
     5  C   -0.319936
     6  C    0.123326
     7  C    0.195267
     8  C    0.090063
     9  C   -0.199795
    10  H    0.211192
    11  C   -0.215186
    12  C   -0.193474
    13  C   -0.270382
    14  H    0.213532
    15  H    0.200813
    16  H    0.183487
    17  N   -0.114524
    18  C   -0.056700
    19  C   -0.154777
    20  C   -0.204653
    21  C   -0.151082
    22  C   -0.141099
    23  H    0.198962
    24  C   -0.170098
    25  H    0.186791
    26  H    0.186624
    27  H    0.187905
    28  H    0.196358
    29  C    0.098912
    30  C   -0.242280
    31  C   -0.243694
    32  C   -0.190683
    33  H    0.195174
    34  C   -0.190468
    35  H    0.195573
    36  C   -0.192833
    37  H    0.182534
    38  H    0.182445
    39  O   -0.285598
    40  H    0.183175
    41  H    0.182788
    42  H    0.185786
    43  H    0.187010
 Sum of Mulliken charges =  -0.00000
 Mulliken charges with hydrogens summed into heavy atoms:
               1
     1  C   -0.071007
     2  C    0.009090
     3  C    0.051465
     4  C    0.189888
     5  C   -0.119124
     6  C    0.123326
     7  C    0.195267
     8  C    0.090063
     9  C    0.011397
    11  C   -0.031700
    12  C   -0.010299
    13  C   -0.082477
    17  N   -0.114524
    18  C   -0.056700
    19  C    0.032234
    20  C   -0.005691
    21  C    0.034704
    22  C    0.045692
    24  C    0.016526
    29  C    0.098912
    30  C   -0.047107
    31  C   -0.048121
    32  C   -0.008149
    34  C   -0.008023
    36  C   -0.010045
    39  O   -0.285598
 Electronic spatial extent (au):  <R**2>=          11068.0968
 Charge=              0.0000 electrons
 Dipole moment (field-independent basis, Debye):
    X=              2.0782    Y=             -2.6723    Z=             -0.4361  Tot=              3.4132
 Quadrupole moment (field-independent basis, Debye-Ang):
   XX=           -128.7549   YY=           -133.1748   ZZ=           -149.9852
   XY=             -8.5739   XZ=             -0.1148   YZ=              3.4122
 Traceless Quadrupole moment (field-independent basis, Debye-Ang):
   XX=              8.5501   YY=              4.1302   ZZ=            -12.6802
   XY=             -8.5739   XZ=             -0.1148   YZ=              3.4122
 Octapole moment (field-independent basis, Debye-Ang**2):
  XXX=            -39.1630  YYY=              1.6481  ZZZ=              5.0215  XYY=             41.2583
  XXY=            -26.6357  XXZ=             -4.8935  XZZ=             21.1517  YZZ=            -21.1916
  YYZ=            -10.0568  XYZ=            -30.9394
 Hexadecapole moment (field-independent basis, Debye-Ang**3):
 XXXX=         -10212.3874 YYYY=          -3309.3630 ZZZZ=           -504.6790 XXXY=            -83.9317
 XXXZ=              5.8490 YYYX=            -80.2434 YYYZ=             -2.5371 ZZZX=             20.1275
 ZZZY=             18.6971 XXYY=          -2157.6566 XXZZ=          -2020.9195 YYZZ=           -685.8292
 XXYZ=            107.9356 YYXZ=            -12.5382 ZZXY=            -87.7934
 N-N= 2.066970173087D+03 E-N=-6.584436352171D+03  KE= 1.049601568849D+03
 Leave Link  601 at Sat Mar 27 14:21:08 2021, MaxMem=  5242880000 cpu:         4.8
 (Enter /opt/nce/packages/global/g09/l9999.exe)
 1\1\GINC-CN035\SP\RM062X TD-FC\Gen\C24H17N1O1\PNG4RJV\27-Mar-2021\0\\#
 p m062x chkbasis geom=allcheck Guess=Read int=ultrafine scrf=(SMD,solv
 ent=n,n-dimethylacetamide) td=(NStates=30)\\Title\\0,1\C,0,1.771149195
 3,-1.3518917328,-0.0859214503\C,0,0.3831927735,-1.3397709468,-0.155087
 2192\C,0,-0.3174988175,-0.1398000183,-0.2072703218\C,0,0.4224047519,1.
 0484088512,-0.1921932786\C,0,1.7964994219,1.037425894,-0.1127042737\C,
 0,2.5027104019,-0.1696580681,-0.0608491354\C,0,-1.5486155257,2.3242998
 561,-0.055691879\C,0,-2.3331830191,1.1649173426,-0.0697848632\C,0,-3.7
 044916837,1.2965753933,0.1235984251\H,0,-4.331071832,0.4148950353,0.11
 27628774\C,0,-4.2752683307,2.5507364364,0.3214092754\C,0,-3.4852376546
 ,3.6867998862,0.3379875338\C,0,-2.1106597628,3.5659608934,0.1519319792
 \H,0,-0.1585278965,-2.2754994679,-0.1829426941\H,0,2.3120420893,1.9892
 61272,-0.0810909721\H,0,-5.3456236255,2.6260623174,0.4633982\N,0,-1.71
 12152709,-0.0702254778,-0.2916733579\C,0,-2.4839688642,-1.2715634117,-
 0.2150603144\C,0,-2.9726145816,-1.8431183682,-1.3805374829\C,0,-2.7420
 644035,-1.8521365086,1.0209711729\C,0,-3.7279307567,-3.0074257022,-1.3
 091716837\C,0,-3.495184433,-3.0157122547,1.0876561587\H,0,-2.350887813
 1,-1.3887477464,1.9192123765\C,0,-3.9886221918,-3.592965462,-0.0771707
 943\H,0,-3.6979877006,-3.471604708,2.0485078973\H,0,-4.5769759399,-4.5
 002739771,-0.0233971345\H,0,-1.4616465192,4.4327537752,0.1549692783\H,
 0,2.2827697249,-2.3058495854,-0.07186996\C,0,3.9820972948,-0.177461652
 3,0.0116243116\C,0,4.737294864,0.8063169218,-0.6320627347\C,0,4.657641
 2609,-1.1710378861,0.725335647\C,0,6.1232925331,0.7968714329,-0.564331
 6239\H,0,4.2370693296,1.5760895531,-1.2073254857\C,0,6.0435461685,-1.1
 813103289,0.7915188038\H,0,4.0928816498,-1.9317892002,1.2504290239\C,0
 ,6.7831710285,-0.1972361679,0.1473167475\H,0,6.6895025297,1.5653432843
 ,-1.0760976115\H,0,6.5470196523,-1.9568042723,1.3555865413\O,0,-0.1947
 631345,2.2717616364,-0.2865234247\H,0,-3.9236101671,4.66373602,0.49262
 13268\H,0,7.8646165391,-0.2046469636,0.2000753237\H,0,-4.111780423,-3.
 4558106221,-2.2167070775\H,0,-2.7594788619,-1.3722632723,-2.3324891271
 \\Version=ES64L-G09RevE.01\State=1-A\HF=-1054.7503288\RMSD=4.088e-09\P
 G=C01 [X(C24H17N1O1)]\\@


 The number of Unix installations has grown to 10,
  with more expected.
                  -- The Unix Programmer's Manual,
                     2nd Edition, June, 1972.
 Job cpu time:       1 days 18 hours 18 minutes 52.5 seconds.
 File lengths (MBytes):  RWF=   4095 Int=      0 D2E=      0 Chk=    736 Scr=      1
 Normal termination of Gaussian 09 at Sat Mar 27 14:21:09 2021.
