 Entering Gaussian System, Link 0=g09
 Input=/home/png4rjv/fotokatalizis/benchmark/OPCs/POZ_3_TPSS_def2TZVP.gjf
 Output=/home/png4rjv/fotokatalizis/benchmark/OPCs/POZ_3_TPSS_def2TZVP.log
 Initial command:
 /opt/nce/packages/global/g09/l1.exe "/home/png4rjv/fotokatalizis/benchmark/OPCs/POZ_3_TPSS_def2TZVP/Gau-724.inp" -scrdir="/home/png4rjv/fotokatalizis/benchmark/OPCs/POZ_3_TPSS_def2TZVP/"
 Default is to use a total of  12 processors:
                               12 via shared-memory
                                1 via Linda
 Entering Link 1 = /opt/nce/packages/global/g09/l1.exe PID=       725.
  
 Copyright (c) 1988,1990,1992,1993,1995,1998,2003,2009,2015,
            Gaussian, Inc.  All Rights Reserved.
  
 This is part of the Gaussian(R) 09 program.  It is based on
 the Gaussian(R) 03 system (copyright 2003, Gaussian, Inc.),
 the Gaussian(R) 98 system (copyright 1998, Gaussian, Inc.),
 the Gaussian(R) 94 system (copyright 1995, Gaussian, Inc.),
 the Gaussian 92(TM) system (copyright 1992, Gaussian, Inc.),
 the Gaussian 90(TM) system (copyright 1990, Gaussian, Inc.),
 the Gaussian 88(TM) system (copyright 1988, Gaussian, Inc.),
 the Gaussian 86(TM) system (copyright 1986, Carnegie Mellon
 University), and the Gaussian 82(TM) system (copyright 1983,
 Carnegie Mellon University). Gaussian is a federally registered
 trademark of Gaussian, Inc.
  
 This software contains proprietary and confidential information,
 including trade secrets, belonging to Gaussian, Inc.
  
 This software is provided under written license and may be
 used, copied, transmitted, or stored only in accord with that
 written license.
  
 The following legend is applicable only to US Government
 contracts under FAR:
  
                    RESTRICTED RIGHTS LEGEND
  
 Use, reproduction and disclosure by the US Government is
 subject to restrictions as set forth in subparagraphs (a)
 and (c) of the Commercial Computer Software - Restricted
 Rights clause in FAR 52.227-19.
  
 Gaussian, Inc.
 340 Quinnipiac St., Bldg. 40, Wallingford CT 06492
  
  
 ---------------------------------------------------------------
 Warning -- This program may not be used in any manner that
 competes with the business of Gaussian, Inc. or will provide
 assistance to any competitor of Gaussian, Inc.  The licensee
 of this program is prohibited from giving any competitor of
 Gaussian, Inc. access to this program.  By using this program,
 the user acknowledges that Gaussian, Inc. is engaged in the
 business of creating and licensing software in the field of
 computational chemistry and represents and warrants to the
 licensee that it is not a competitor of Gaussian, Inc. and that
 it will not use this program in any manner prohibited above.
 ---------------------------------------------------------------
  

 Cite this work as:
 Gaussian 09, Revision E.01,
 M. J. Frisch, G. W. Trucks, H. B. Schlegel, G. E. Scuseria, 
 M. A. Robb, J. R. Cheeseman, G. Scalmani, V. Barone, B. Mennucci, 
 G. A. Petersson, H. Nakatsuji, M. Caricato, X. Li, H. P. Hratchian, 
 A. F. Izmaylov, J. Bloino, G. Zheng, J. L. Sonnenberg, M. Hada, 
 M. Ehara, K. Toyota, R. Fukuda, J. Hasegawa, M. Ishida, T. Nakajima, 
 Y. Honda, O. Kitao, H. Nakai, T. Vreven, J. A. Montgomery, Jr., 
 J. E. Peralta, F. Ogliaro, M. Bearpark, J. J. Heyd, E. Brothers, 
 K. N. Kudin, V. N. Staroverov, T. Keith, R. Kobayashi, J. Normand, 
 K. Raghavachari, A. Rendell, J. C. Burant, S. S. Iyengar, J. Tomasi, 
 M. Cossi, N. Rega, J. M. Millam, M. Klene, J. E. Knox, J. B. Cross, 
 V. Bakken, C. Adamo, J. Jaramillo, R. Gomperts, R. E. Stratmann, 
 O. Yazyev, A. J. Austin, R. Cammi, C. Pomelli, J. W. Ochterski, 
 R. L. Martin, K. Morokuma, V. G. Zakrzewski, G. A. Voth, 
 P. Salvador, J. J. Dannenberg, S. Dapprich, A. D. Daniels, 
 O. Farkas, J. B. Foresman, J. V. Ortiz, J. Cioslowski, 
 and D. J. Fox, Gaussian, Inc., Wallingford CT, 2013.
 
 ******************************************
 Gaussian 09:  ES64L-G09RevE.01 30-Nov-2015
                31-Mar-2021 
 ******************************************
 %chk=cp.chk
 Default route:  MaxDisk=500GB
 ----------------------------------------------------------------------
 #p TPSSTPSS/def2TZVP opt freq=noraman nosymm int=ultrafine scrf=(SMD,s
 olvent=n,n-DiMethylAcetamide)
 ----------------------------------------------------------------------
 1/14=-1,18=20,19=15,26=4,38=1/1,3;
 2/9=110,12=2,15=1,17=6,18=5,40=1/2;
 3/5=44,7=101,11=2,16=1,25=1,30=1,70=32201,71=1,72=147,74=2523,75=-5/1,2,3;
 4//1;
 5/5=2,38=5,53=147/2;
 6/7=2,8=2,9=2,10=2,28=1/1;
 7/30=1/1,2,3,16;
 1/14=-1,18=20,19=15,26=4/3(2);
 2/9=110,15=1/2;
 99//99;
 2/9=110,15=1/2;
 3/5=44,7=101,11=2,16=1,25=1,30=1,70=32205,71=1,72=147,74=2523,75=-5/1,2,3;
 4/5=5,16=3,69=1/1;
 5/5=2,38=5,53=147/2;
 7/30=1/1,2,3,16;
 1/14=-1,18=20,19=15,26=4/3(-5);
 2/9=110,15=1/2;
 6/7=2,8=2,9=2,10=2,19=2,28=1/1;
 99/9=1/99;
 Leave Link    1 at Wed Mar 31 02:59:22 2021, MaxMem=           0 cpu:         0.9
 (Enter /opt/nce/packages/global/g09/l101.exe)
 -----
 Title
 -----
 Symbolic Z-matrix:
 Charge =  0 Multiplicity = 1
 C                     1.78593  -1.3638   -0.05219 
 C                     0.38864  -1.3474   -0.05746 
 C                    -0.31743  -0.13946  -0.01453 
 C                     0.42799   1.05747   0.03179 
 C                     1.814     1.03758   0.03655 
 C                     2.52902  -0.17658  -0.0047 
 C                    -1.55963   2.34505   0.08797 
 C                    -2.35197   1.17854   0.03739 
 C                    -3.7451    1.32042   0.04256 
 H                    -4.36958   0.42813   0.00372 
 C                    -4.33465   2.58939   0.09678 
 C                    -3.54105   3.73295   0.14678 
 C                    -2.14625   3.6032    0.14201 
 H                    -0.16458  -2.28509  -0.10493 
 H                     2.33039   1.99604   0.09959 
 H                    -5.42361   2.67191   0.09948 
 N                    -1.71756  -0.07321  -0.01536 
 C                    -2.49213  -1.27117  -0.0524 
 C                    -2.87065  -1.82039  -1.28238 
 C                    -2.87087  -1.8954    1.14131 
 C                    -3.62767  -2.99373  -1.31729 
 C                    -3.62811  -3.06841   1.10355 
 H                    -2.56588  -1.45168   2.09096 
 C                    -4.00676  -3.61812  -0.12509 
 H                    -3.92333  -3.5549    2.03607 
 H                    -4.5989   -4.53574  -0.15353 
 H                    -1.48825   4.47318   0.18007 
 H                     2.3004   -2.32406  -0.11434 
 C                     4.01086  -0.18705  -0.00371 
 C                     4.745     0.83472  -0.63453 
 C                     4.72818  -1.22044   0.62775 
 C                     6.14036   0.82337  -0.63513 
 H                     4.21406   1.63577  -1.15293 
 C                     6.12337  -1.23421   0.62492 
 H                     4.18345  -2.00983   1.14967 
 C                     6.83772  -0.21182  -0.0062 
 H                     6.68686   1.6248   -1.13856 
 H                     6.65676  -2.04419   1.12878 
 O                    -0.18695   2.28458   0.08491 
 H                    -3.99449   4.7251    0.18933 
 H                     7.93023  -0.22123  -0.00689 
 H                    -3.92251  -3.42182  -2.27814 
 H                    -2.56531  -1.31886  -2.20269 
 
 NAtoms=     43 NQM=       43 NQMF=       0 NMMI=      0 NMMIF=      0
                NMic=       0 NMicF=      0.
                    Isotopes and Nuclear Properties:
 (Nuclear quadrupole moments (NQMom) in fm**2, nuclear magnetic moments (NMagM)
  in nuclear magnetons)

  Atom         1           2           3           4           5           6           7           8           9          10
 IAtWgt=          12          12          12          12          12          12          12          12          12           1
 AtmWgt=  12.0000000  12.0000000  12.0000000  12.0000000  12.0000000  12.0000000  12.0000000  12.0000000  12.0000000   1.0078250
 NucSpn=           0           0           0           0           0           0           0           0           0           1
 AtZEff=   0.0000000   0.0000000   0.0000000   0.0000000   0.0000000   0.0000000   0.0000000   0.0000000   0.0000000   0.0000000
 NQMom=    0.0000000   0.0000000   0.0000000   0.0000000   0.0000000   0.0000000   0.0000000   0.0000000   0.0000000   0.0000000
 NMagM=    0.0000000   0.0000000   0.0000000   0.0000000   0.0000000   0.0000000   0.0000000   0.0000000   0.0000000   2.7928460
 AtZNuc=   6.0000000   6.0000000   6.0000000   6.0000000   6.0000000   6.0000000   6.0000000   6.0000000   6.0000000   1.0000000

  Atom        11          12          13          14          15          16          17          18          19          20
 IAtWgt=          12          12          12           1           1           1          14          12          12          12
 AtmWgt=  12.0000000  12.0000000  12.0000000   1.0078250   1.0078250   1.0078250  14.0030740  12.0000000  12.0000000  12.0000000
 NucSpn=           0           0           0           1           1           1           2           0           0           0
 AtZEff=   0.0000000   0.0000000   0.0000000   0.0000000   0.0000000   0.0000000   0.0000000   0.0000000   0.0000000   0.0000000
 NQMom=    0.0000000   0.0000000   0.0000000   0.0000000   0.0000000   0.0000000   2.0440000   0.0000000   0.0000000   0.0000000
 NMagM=    0.0000000   0.0000000   0.0000000   2.7928460   2.7928460   2.7928460   0.4037610   0.0000000   0.0000000   0.0000000
 AtZNuc=   6.0000000   6.0000000   6.0000000   1.0000000   1.0000000   1.0000000   7.0000000   6.0000000   6.0000000   6.0000000

  Atom        21          22          23          24          25          26          27          28          29          30
 IAtWgt=          12          12           1          12           1           1           1           1          12          12
 AtmWgt=  12.0000000  12.0000000   1.0078250  12.0000000   1.0078250   1.0078250   1.0078250   1.0078250  12.0000000  12.0000000
 NucSpn=           0           0           1           0           1           1           1           1           0           0
 AtZEff=   0.0000000   0.0000000   0.0000000   0.0000000   0.0000000   0.0000000   0.0000000   0.0000000   0.0000000   0.0000000
 NQMom=    0.0000000   0.0000000   0.0000000   0.0000000   0.0000000   0.0000000   0.0000000   0.0000000   0.0000000   0.0000000
 NMagM=    0.0000000   0.0000000   2.7928460   0.0000000   2.7928460   2.7928460   2.7928460   2.7928460   0.0000000   0.0000000
 AtZNuc=   6.0000000   6.0000000   1.0000000   6.0000000   1.0000000   1.0000000   1.0000000   1.0000000   6.0000000   6.0000000

  Atom        31          32          33          34          35          36          37          38          39          40
 IAtWgt=          12          12           1          12           1          12           1           1          16           1
 AtmWgt=  12.0000000  12.0000000   1.0078250  12.0000000   1.0078250  12.0000000   1.0078250   1.0078250  15.9949146   1.0078250
 NucSpn=           0           0           1           0           1           0           1           1           0           1
 AtZEff=   0.0000000   0.0000000   0.0000000   0.0000000   0.0000000   0.0000000   0.0000000   0.0000000   0.0000000   0.0000000
 NQMom=    0.0000000   0.0000000   0.0000000   0.0000000   0.0000000   0.0000000   0.0000000   0.0000000   0.0000000   0.0000000
 NMagM=    0.0000000   0.0000000   2.7928460   0.0000000   2.7928460   0.0000000   2.7928460   2.7928460   0.0000000   2.7928460
 AtZNuc=   6.0000000   6.0000000   1.0000000   6.0000000   1.0000000   6.0000000   1.0000000   1.0000000   8.0000000   1.0000000

  Atom        41          42          43
 IAtWgt=           1           1           1
 AtmWgt=   1.0078250   1.0078250   1.0078250
 NucSpn=           1           1           1
 AtZEff=   0.0000000   0.0000000   0.0000000
 NQMom=    0.0000000   0.0000000   0.0000000
 NMagM=    2.7928460   2.7928460   2.7928460
 AtZNuc=   1.0000000   1.0000000   1.0000000
 Leave Link  101 at Wed Mar 31 02:59:22 2021, MaxMem=  5242880000 cpu:         4.3
 (Enter /opt/nce/packages/global/g09/l103.exe)

 GradGradGradGradGradGradGradGradGradGradGradGradGradGradGradGradGradGrad
 Berny optimization.
 Initialization pass.
                           ----------------------------
                           !    Initial Parameters    !
                           ! (Angstroms and Degrees)  !
 --------------------------                            --------------------------
 ! Name  Definition              Value          Derivative Info.                !
 --------------------------------------------------------------------------------
 ! R1    R(1,2)                  1.3974         estimate D2E/DX2                !
 ! R2    R(1,6)                  1.4014         estimate D2E/DX2                !
 ! R3    R(1,28)                 1.0912         estimate D2E/DX2                !
 ! R4    R(2,3)                  1.3998         estimate D2E/DX2                !
 ! R5    R(2,14)                 1.0898         estimate D2E/DX2                !
 ! R6    R(3,4)                  1.4108         estimate D2E/DX2                !
 ! R7    R(3,17)                 1.4017         estimate D2E/DX2                !
 ! R8    R(4,5)                  1.3862         estimate D2E/DX2                !
 ! R9    R(4,39)                 1.3736         estimate D2E/DX2                !
 ! R10   R(5,6)                  1.4097         estimate D2E/DX2                !
 ! R11   R(5,15)                 1.0905         estimate D2E/DX2                !
 ! R12   R(6,29)                 1.4819         estimate D2E/DX2                !
 ! R13   R(7,8)                  1.4111         estimate D2E/DX2                !
 ! R14   R(7,13)                 1.3892         estimate D2E/DX2                !
 ! R15   R(7,39)                 1.374          estimate D2E/DX2                !
 ! R16   R(8,9)                  1.4003         estimate D2E/DX2                !
 ! R17   R(8,17)                 1.4043         estimate D2E/DX2                !
 ! R18   R(9,10)                 1.0898         estimate D2E/DX2                !
 ! R19   R(9,11)                 1.4003         estimate D2E/DX2                !
 ! R20   R(11,12)                1.3929         estimate D2E/DX2                !
 ! R21   R(11,16)                1.0921         estimate D2E/DX2                !
 ! R22   R(12,13)                1.4008         estimate D2E/DX2                !
 ! R23   R(12,40)                1.0917         estimate D2E/DX2                !
 ! R24   R(13,27)                1.0915         estimate D2E/DX2                !
 ! R25   R(17,18)                1.427          estimate D2E/DX2                !
 ! R26   R(18,19)                1.3992         estimate D2E/DX2                !
 ! R27   R(18,20)                1.3993         estimate D2E/DX2                !
 ! R28   R(19,21)                1.3968         estimate D2E/DX2                !
 ! R29   R(19,43)                1.0917         estimate D2E/DX2                !
 ! R30   R(20,22)                1.3967         estimate D2E/DX2                !
 ! R31   R(20,23)                1.0917         estimate D2E/DX2                !
 ! R32   R(21,24)                1.3982         estimate D2E/DX2                !
 ! R33   R(21,42)                1.0924         estimate D2E/DX2                !
 ! R34   R(22,24)                1.3983         estimate D2E/DX2                !
 ! R35   R(22,25)                1.0924         estimate D2E/DX2                !
 ! R36   R(24,26)                1.0925         estimate D2E/DX2                !
 ! R37   R(29,30)                1.4074         estimate D2E/DX2                !
 ! R38   R(29,31)                1.4075         estimate D2E/DX2                !
 ! R39   R(30,32)                1.3954         estimate D2E/DX2                !
 ! R40   R(30,33)                1.0919         estimate D2E/DX2                !
 ! R41   R(31,34)                1.3953         estimate D2E/DX2                !
 ! R42   R(31,35)                1.0919         estimate D2E/DX2                !
 ! R43   R(32,36)                1.3977         estimate D2E/DX2                !
 ! R44   R(32,37)                1.0929         estimate D2E/DX2                !
 ! R45   R(34,36)                1.3978         estimate D2E/DX2                !
 ! R46   R(34,38)                1.0929         estimate D2E/DX2                !
 ! R47   R(36,41)                1.0925         estimate D2E/DX2                !
 ! A1    A(2,1,6)              121.3582         estimate D2E/DX2                !
 ! A2    A(2,1,28)             118.7876         estimate D2E/DX2                !
 ! A3    A(6,1,28)             119.8324         estimate D2E/DX2                !
 ! A4    A(1,2,3)              120.9558         estimate D2E/DX2                !
 ! A5    A(1,2,14)             119.8468         estimate D2E/DX2                !
 ! A6    A(3,2,14)             119.195          estimate D2E/DX2                !
 ! A7    A(2,3,4)              117.8137         estimate D2E/DX2                !
 ! A8    A(2,3,17)             122.9977         estimate D2E/DX2                !
 ! A9    A(4,3,17)             119.1887         estimate D2E/DX2                !
 ! A10   A(3,4,5)              121.0803         estimate D2E/DX2                !
 ! A11   A(3,4,39)             121.5099         estimate D2E/DX2                !
 ! A12   A(5,4,39)             117.4077         estimate D2E/DX2                !
 ! A13   A(4,5,6)              121.2941         estimate D2E/DX2                !
 ! A14   A(4,5,15)             117.4555         estimate D2E/DX2                !
 ! A15   A(6,5,15)             121.2317         estimate D2E/DX2                !
 ! A16   A(1,6,5)              117.4979         estimate D2E/DX2                !
 ! A17   A(1,6,29)             121.6187         estimate D2E/DX2                !
 ! A18   A(5,6,29)             120.8828         estimate D2E/DX2                !
 ! A19   A(8,7,13)             120.8618         estimate D2E/DX2                !
 ! A20   A(8,7,39)             121.6356         estimate D2E/DX2                !
 ! A21   A(13,7,39)            117.5025         estimate D2E/DX2                !
 ! A22   A(7,8,9)              118.3418         estimate D2E/DX2                !
 ! A23   A(7,8,17)             118.9827         estimate D2E/DX2                !
 ! A24   A(9,8,17)             122.6755         estimate D2E/DX2                !
 ! A25   A(8,9,10)             119.1421         estimate D2E/DX2                !
 ! A26   A(8,9,11)             120.7185         estimate D2E/DX2                !
 ! A27   A(10,9,11)            120.1394         estimate D2E/DX2                !
 ! A28   A(9,11,12)            120.3665         estimate D2E/DX2                !
 ! A29   A(9,11,16)            119.2352         estimate D2E/DX2                !
 ! A30   A(12,11,16)           120.3983         estimate D2E/DX2                !
 ! A31   A(11,12,13)           119.4157         estimate D2E/DX2                !
 ! A32   A(11,12,40)           120.7237         estimate D2E/DX2                !
 ! A33   A(13,12,40)           119.8605         estimate D2E/DX2                !
 ! A34   A(7,13,12)            120.2957         estimate D2E/DX2                !
 ! A35   A(7,13,27)            117.9474         estimate D2E/DX2                !
 ! A36   A(12,13,27)           121.7569         estimate D2E/DX2                !
 ! A37   A(3,17,8)             119.5615         estimate D2E/DX2                !
 ! A38   A(3,17,18)            120.1665         estimate D2E/DX2                !
 ! A39   A(8,17,18)            120.2672         estimate D2E/DX2                !
 ! A40   A(17,18,19)           119.9445         estimate D2E/DX2                !
 ! A41   A(17,18,20)           119.9506         estimate D2E/DX2                !
 ! A42   A(19,18,20)           120.1048         estimate D2E/DX2                !
 ! A43   A(18,19,21)           119.8882         estimate D2E/DX2                !
 ! A44   A(18,19,43)           119.0177         estimate D2E/DX2                !
 ! A45   A(21,19,43)           121.0941         estimate D2E/DX2                !
 ! A46   A(18,20,22)           119.8896         estimate D2E/DX2                !
 ! A47   A(18,20,23)           119.023          estimate D2E/DX2                !
 ! A48   A(22,20,23)           121.0874         estimate D2E/DX2                !
 ! A49   A(19,21,24)           120.0508         estimate D2E/DX2                !
 ! A50   A(19,21,42)           119.8303         estimate D2E/DX2                !
 ! A51   A(24,21,42)           120.1189         estimate D2E/DX2                !
 ! A52   A(20,22,24)           120.0495         estimate D2E/DX2                !
 ! A53   A(20,22,25)           119.8307         estimate D2E/DX2                !
 ! A54   A(24,22,25)           120.1198         estimate D2E/DX2                !
 ! A55   A(21,24,22)           120.0171         estimate D2E/DX2                !
 ! A56   A(21,24,26)           119.991          estimate D2E/DX2                !
 ! A57   A(22,24,26)           119.9919         estimate D2E/DX2                !
 ! A58   A(6,29,30)            121.0755         estimate D2E/DX2                !
 ! A59   A(6,29,31)            121.004          estimate D2E/DX2                !
 ! A60   A(30,29,31)           117.9205         estimate D2E/DX2                !
 ! A61   A(29,30,32)           121.0564         estimate D2E/DX2                !
 ! A62   A(29,30,33)           119.455          estimate D2E/DX2                !
 ! A63   A(32,30,33)           119.4711         estimate D2E/DX2                !
 ! A64   A(29,31,34)           121.0598         estimate D2E/DX2                !
 ! A65   A(29,31,35)           119.4046         estimate D2E/DX2                !
 ! A66   A(34,31,35)           119.517          estimate D2E/DX2                !
 ! A67   A(30,32,36)           120.3154         estimate D2E/DX2                !
 ! A68   A(30,32,37)           119.6219         estimate D2E/DX2                !
 ! A69   A(36,32,37)           120.0605         estimate D2E/DX2                !
 ! A70   A(31,34,36)           120.3125         estimate D2E/DX2                !
 ! A71   A(31,34,38)           119.6301         estimate D2E/DX2                !
 ! A72   A(36,34,38)           120.0542         estimate D2E/DX2                !
 ! A73   A(32,36,34)           119.335          estimate D2E/DX2                !
 ! A74   A(32,36,41)           120.3326         estimate D2E/DX2                !
 ! A75   A(34,36,41)           120.3324         estimate D2E/DX2                !
 ! A76   A(4,39,7)             119.1203         estimate D2E/DX2                !
 ! D1    D(6,1,2,3)             -0.0361         estimate D2E/DX2                !
 ! D2    D(6,1,2,14)           179.3878         estimate D2E/DX2                !
 ! D3    D(28,1,2,3)          -178.3341         estimate D2E/DX2                !
 ! D4    D(28,1,2,14)            1.0898         estimate D2E/DX2                !
 ! D5    D(2,1,6,5)             -0.0516         estimate D2E/DX2                !
 ! D6    D(2,1,6,29)          -179.7798         estimate D2E/DX2                !
 ! D7    D(28,1,6,5)           178.2289         estimate D2E/DX2                !
 ! D8    D(28,1,6,29)           -1.4994         estimate D2E/DX2                !
 ! D9    D(1,2,3,4)              0.1064         estimate D2E/DX2                !
 ! D10   D(1,2,3,17)          -179.8757         estimate D2E/DX2                !
 ! D11   D(14,2,3,4)          -179.3212         estimate D2E/DX2                !
 ! D12   D(14,2,3,17)            0.6967         estimate D2E/DX2                !
 ! D13   D(2,3,4,5)             -0.0907         estimate D2E/DX2                !
 ! D14   D(2,3,4,39)          -179.5479         estimate D2E/DX2                !
 ! D15   D(17,3,4,5)           179.8921         estimate D2E/DX2                !
 ! D16   D(17,3,4,39)            0.4348         estimate D2E/DX2                !
 ! D17   D(2,3,17,8)           179.6234         estimate D2E/DX2                !
 ! D18   D(2,3,17,18)            0.4169         estimate D2E/DX2                !
 ! D19   D(4,3,17,8)            -0.3584         estimate D2E/DX2                !
 ! D20   D(4,3,17,18)         -179.5649         estimate D2E/DX2                !
 ! D21   D(3,4,5,6)              0.0039         estimate D2E/DX2                !
 ! D22   D(3,4,5,15)          -178.4452         estimate D2E/DX2                !
 ! D23   D(39,4,5,6)           179.4826         estimate D2E/DX2                !
 ! D24   D(39,4,5,15)            1.0336         estimate D2E/DX2                !
 ! D25   D(3,4,39,7)            -0.241          estimate D2E/DX2                !
 ! D26   D(5,4,39,7)          -179.7174         estimate D2E/DX2                !
 ! D27   D(4,5,6,1)              0.0674         estimate D2E/DX2                !
 ! D28   D(4,5,6,29)           179.7978         estimate D2E/DX2                !
 ! D29   D(15,5,6,1)           178.4579         estimate D2E/DX2                !
 ! D30   D(15,5,6,29)           -1.8117         estimate D2E/DX2                !
 ! D31   D(1,6,29,30)          146.1616         estimate D2E/DX2                !
 ! D32   D(1,6,29,31)          -33.7908         estimate D2E/DX2                !
 ! D33   D(5,6,29,30)          -33.5576         estimate D2E/DX2                !
 ! D34   D(5,6,29,31)          146.4901         estimate D2E/DX2                !
 ! D35   D(13,7,8,9)             0.0216         estimate D2E/DX2                !
 ! D36   D(13,7,8,17)         -179.9533         estimate D2E/DX2                !
 ! D37   D(39,7,8,9)          -179.9326         estimate D2E/DX2                !
 ! D38   D(39,7,8,17)            0.0925         estimate D2E/DX2                !
 ! D39   D(8,7,13,12)           -0.0161         estimate D2E/DX2                !
 ! D40   D(8,7,13,27)          179.9817         estimate D2E/DX2                !
 ! D41   D(39,7,13,12)         179.9399         estimate D2E/DX2                !
 ! D42   D(39,7,13,27)          -0.0623         estimate D2E/DX2                !
 ! D43   D(8,7,39,4)            -0.0252         estimate D2E/DX2                !
 ! D44   D(13,7,39,4)         -179.9809         estimate D2E/DX2                !
 ! D45   D(7,8,9,10)           179.9916         estimate D2E/DX2                !
 ! D46   D(7,8,9,11)            -0.0082         estimate D2E/DX2                !
 ! D47   D(17,8,9,10)           -0.0344         estimate D2E/DX2                !
 ! D48   D(17,8,9,11)          179.9658         estimate D2E/DX2                !
 ! D49   D(7,8,17,3)             0.1042         estimate D2E/DX2                !
 ! D50   D(7,8,17,18)          179.3099         estimate D2E/DX2                !
 ! D51   D(9,8,17,3)          -179.8696         estimate D2E/DX2                !
 ! D52   D(9,8,17,18)           -0.6639         estimate D2E/DX2                !
 ! D53   D(8,9,11,12)           -0.0109         estimate D2E/DX2                !
 ! D54   D(8,9,11,16)          179.9928         estimate D2E/DX2                !
 ! D55   D(10,9,11,12)         179.9894         estimate D2E/DX2                !
 ! D56   D(10,9,11,16)          -0.0069         estimate D2E/DX2                !
 ! D57   D(9,11,12,13)           0.0166         estimate D2E/DX2                !
 ! D58   D(9,11,12,40)        -179.9906         estimate D2E/DX2                !
 ! D59   D(16,11,12,13)       -179.9871         estimate D2E/DX2                !
 ! D60   D(16,11,12,40)          0.0057         estimate D2E/DX2                !
 ! D61   D(11,12,13,7)          -0.0032         estimate D2E/DX2                !
 ! D62   D(11,12,13,27)        179.9991         estimate D2E/DX2                !
 ! D63   D(40,12,13,7)        -179.9961         estimate D2E/DX2                !
 ! D64   D(40,12,13,27)          0.0061         estimate D2E/DX2                !
 ! D65   D(3,17,18,19)         -90.1034         estimate D2E/DX2                !
 ! D66   D(3,17,18,20)          89.8385         estimate D2E/DX2                !
 ! D67   D(8,17,18,19)          90.6957         estimate D2E/DX2                !
 ! D68   D(8,17,18,20)         -89.3624         estimate D2E/DX2                !
 ! D69   D(17,18,19,21)        179.9361         estimate D2E/DX2                !
 ! D70   D(17,18,19,43)         -0.0443         estimate D2E/DX2                !
 ! D71   D(20,18,19,21)         -0.0057         estimate D2E/DX2                !
 ! D72   D(20,18,19,43)       -179.9861         estimate D2E/DX2                !
 ! D73   D(17,18,20,22)       -179.951          estimate D2E/DX2                !
 ! D74   D(17,18,20,23)          0.0552         estimate D2E/DX2                !
 ! D75   D(19,18,20,22)         -0.0091         estimate D2E/DX2                !
 ! D76   D(19,18,20,23)        179.997          estimate D2E/DX2                !
 ! D77   D(18,19,21,24)          0.0147         estimate D2E/DX2                !
 ! D78   D(18,19,21,42)       -179.9882         estimate D2E/DX2                !
 ! D79   D(43,19,21,24)        179.9947         estimate D2E/DX2                !
 ! D80   D(43,19,21,42)         -0.0082         estimate D2E/DX2                !
 ! D81   D(18,20,22,24)          0.015          estimate D2E/DX2                !
 ! D82   D(18,20,22,25)       -179.995          estimate D2E/DX2                !
 ! D83   D(23,20,22,24)       -179.9913         estimate D2E/DX2                !
 ! D84   D(23,20,22,25)         -0.0014         estimate D2E/DX2                !
 ! D85   D(19,21,24,22)         -0.0088         estimate D2E/DX2                !
 ! D86   D(19,21,24,26)        179.9956         estimate D2E/DX2                !
 ! D87   D(42,21,24,22)        179.9941         estimate D2E/DX2                !
 ! D88   D(42,21,24,26)         -0.0015         estimate D2E/DX2                !
 ! D89   D(20,22,24,21)         -0.006          estimate D2E/DX2                !
 ! D90   D(20,22,24,26)        179.9895         estimate D2E/DX2                !
 ! D91   D(25,22,24,21)       -179.996          estimate D2E/DX2                !
 ! D92   D(25,22,24,26)         -0.0004         estimate D2E/DX2                !
 ! D93   D(6,29,30,32)        -179.8998         estimate D2E/DX2                !
 ! D94   D(6,29,30,33)          -1.4335         estimate D2E/DX2                !
 ! D95   D(31,29,30,32)          0.0541         estimate D2E/DX2                !
 ! D96   D(31,29,30,33)        178.5203         estimate D2E/DX2                !
 ! D97   D(6,29,31,34)         179.7486         estimate D2E/DX2                !
 ! D98   D(6,29,31,35)          -1.8262         estimate D2E/DX2                !
 ! D99   D(30,29,31,34)         -0.2052         estimate D2E/DX2                !
 ! D100  D(30,29,31,35)        178.22           estimate D2E/DX2                !
 ! D101  D(29,30,32,36)          0.095          estimate D2E/DX2                !
 ! D102  D(29,30,32,37)        179.5477         estimate D2E/DX2                !
 ! D103  D(33,30,32,36)       -178.371          estimate D2E/DX2                !
 ! D104  D(33,30,32,37)          1.0816         estimate D2E/DX2                !
 ! D105  D(29,31,34,36)          0.2084         estimate D2E/DX2                !
 ! D106  D(29,31,34,38)        179.5541         estimate D2E/DX2                !
 ! D107  D(35,31,34,36)       -178.2151         estimate D2E/DX2                !
 ! D108  D(35,31,34,38)          1.1306         estimate D2E/DX2                !
 ! D109  D(30,32,36,34)         -0.0951         estimate D2E/DX2                !
 ! D110  D(30,32,36,41)        179.9721         estimate D2E/DX2                !
 ! D111  D(37,32,36,34)       -179.5453         estimate D2E/DX2                !
 ! D112  D(37,32,36,41)          0.5219         estimate D2E/DX2                !
 ! D113  D(31,34,36,32)         -0.0549         estimate D2E/DX2                !
 ! D114  D(31,34,36,41)        179.878          estimate D2E/DX2                !
 ! D115  D(38,34,36,32)       -179.3978         estimate D2E/DX2                !
 ! D116  D(38,34,36,41)          0.5351         estimate D2E/DX2                !
 --------------------------------------------------------------------------------
 Trust Radius=3.00D-01 FncErr=1.00D-07 GrdErr=1.00D-06
 Number of steps in this run=    249 maximum allowed number of steps=    258.
 GradGradGradGradGradGradGradGradGradGradGradGradGradGradGradGradGradGrad

 Leave Link  103 at Wed Mar 31 02:59:22 2021, MaxMem=  5242880000 cpu:         0.2
 (Enter /opt/nce/packages/global/g09/l202.exe)
                          Input orientation:                          
 ---------------------------------------------------------------------
 Center     Atomic      Atomic             Coordinates (Angstroms)
 Number     Number       Type             X           Y           Z
 ---------------------------------------------------------------------
      1          6           0        1.785933   -1.363801   -0.052190
      2          6           0        0.388642   -1.347400   -0.057455
      3          6           0       -0.317433   -0.139456   -0.014525
      4          6           0        0.427985    1.057471    0.031785
      5          6           0        1.813996    1.037582    0.036545
      6          6           0        2.529015   -0.176578   -0.004696
      7          6           0       -1.559629    2.345046    0.087970
      8          6           0       -2.351967    1.178536    0.037393
      9          6           0       -3.745098    1.320423    0.042555
     10          1           0       -4.369580    0.428127    0.003716
     11          6           0       -4.334654    2.589388    0.096781
     12          6           0       -3.541048    3.732954    0.146776
     13          6           0       -2.146249    3.603197    0.142013
     14          1           0       -0.164580   -2.285090   -0.104932
     15          1           0        2.330393    1.996039    0.099585
     16          1           0       -5.423615    2.671912    0.099475
     17          7           0       -1.717556   -0.073207   -0.015355
     18          6           0       -2.492131   -1.271173   -0.052397
     19          6           0       -2.870646   -1.820389   -1.282383
     20          6           0       -2.870868   -1.895395    1.141310
     21          6           0       -3.627666   -2.993731   -1.317290
     22          6           0       -3.628108   -3.068412    1.103551
     23          1           0       -2.565880   -1.451680    2.090957
     24          6           0       -4.006764   -3.618116   -0.125087
     25          1           0       -3.923330   -3.554899    2.036068
     26          1           0       -4.598904   -4.535735   -0.153526
     27          1           0       -1.488252    4.473175    0.180065
     28          1           0        2.300401   -2.324059   -0.114336
     29          6           0        4.010864   -0.187051   -0.003706
     30          6           0        4.745003    0.834719   -0.634527
     31          6           0        4.728176   -1.220441    0.627745
     32          6           0        6.140355    0.823366   -0.635133
     33          1           0        4.214065    1.635766   -1.152930
     34          6           0        6.123372   -1.234209    0.624922
     35          1           0        4.183453   -2.009825    1.149670
     36          6           0        6.837718   -0.211821   -0.006196
     37          1           0        6.686858    1.624795   -1.138560
     38          1           0        6.656756   -2.044190    1.128779
     39          8           0       -0.186951    2.284584    0.084910
     40          1           0       -3.994493    4.725097    0.189334
     41          1           0        7.930226   -0.221229   -0.006892
     42          1           0       -3.922512   -3.421820   -2.278139
     43          1           0       -2.565305   -1.318859   -2.202691
 ---------------------------------------------------------------------
                    Distance matrix (angstroms):
                    1          2          3          4          5
     1  C    0.000000
     2  C    1.397397   0.000000
     3  C    2.434048   1.399826   0.000000
     4  C    2.777343   2.406848   1.410825   0.000000
     5  C    2.403186   2.780038   2.435368   1.386162   0.000000
     6  C    1.401401   2.440247   2.846707   2.436911   1.409659
     7  C    4.996797   4.177447   2.779623   2.368885   3.618488
     8  C    4.857337   3.728309   2.424691   2.782593   4.168347
     9  C    6.148686   4.920883   3.726042   4.181373   5.566288
    10  H    6.411277   5.079066   4.091745   4.838749   6.213624
    11  C    7.287762   6.150741   4.857679   5.003371   6.341737
    12  C    7.375176   6.426054   5.041158   4.787970   5.996139
    13  C    6.338047   5.565417   4.168516   3.622092   4.719856
    14  H    2.157790   1.089757   2.152971   3.397431   3.869745
    15  H    3.407051   3.869579   3.403578   2.122419   1.090541
    16  H    8.263629   7.068368   5.830084   6.070603   7.420108
    17  N    3.733822   2.461993   1.401690   2.425696   3.702486
    18  C    4.279067   2.881786   2.451842   3.735873   4.886818
    19  C    4.837931   3.513848   3.309365   4.570567   5.643885
    20  C    4.836613   3.515927   3.307462   4.564307   5.636560
    21  C    5.793462   4.519770   4.560891   5.889019   6.906232
    22  C    5.792519   4.521515   4.559545   5.884172   6.900303
    23  H    4.851709   3.654552   3.348209   4.415796   5.440620
    24  C    6.216316   4.947759   5.071929   6.446140   7.455394
    25  H    6.461998   5.277215   5.373330   6.650192   7.616159
    26  H    7.130048   5.920331   6.138207   7.522493   8.498428
    27  H    6.696605   6.120314   4.762882   3.919309   4.767467
    28  H    1.091162   2.147538   3.411086   3.868079   3.399998
    29  C    2.517421   3.803918   4.328572   3.793035   2.515467
    30  C    3.732118   4.906377   5.192464   4.373812   3.013684
    31  C    3.023187   4.395131   5.199924   4.902621   3.733715
    32  C    4.907597   6.174799   6.558598   5.755932   4.383426
    33  H    4.013086   4.973249   4.998185   4.009037   2.744632
    34  C    4.391885   5.776295   6.564400   6.167742   4.906928
    35  H    2.758608   4.036898   5.011148   4.976094   4.017470
    36  C    5.181670   6.548492   7.155522   6.534311   5.176931
    37  H    5.842172   7.047713   7.310002   6.392578   5.046828
    38  H    5.057918   6.417314   7.319458   7.044238   5.843169
    39  O    4.149913   3.680066   2.429585   1.373599   2.358207
    40  H    8.399187   7.493197   6.101328   5.747575   6.881835
    41  H    6.249789   7.625373   8.248068   7.610531   6.244579
    42  H    6.463485   5.274534   5.375356   6.657824   7.625717
    43  H    4.853859   3.650843   3.351416   4.427145   5.453922
                    6          7          8          9         10
     6  C    0.000000
     7  C    4.804600   0.000000
     8  C    5.065776   1.411065   0.000000
     9  C    6.450406   2.414164   1.400347   0.000000
    10  H    6.925052   3.402573   2.152907   1.089807   0.000000
    11  C    7.400731   2.785775   2.434148   1.400282   2.163546
    12  C    7.221707   2.419869   2.819739   2.423387   3.410105
    13  C    6.013844   1.389240   2.435620   2.788775   3.878582
    14  H    3.422181   4.839580   4.098978   5.083462   5.005535
    15  H    2.184168   3.905664   4.753596   6.113207   6.881655
    16  H    8.448022   3.877804   3.415999   2.155732   2.480873
    17  N    4.247842   2.425606   1.404322   2.460993   2.699061
    18  C    5.139292   3.737152   2.455358   2.880158   2.532900
    19  C    5.787136   4.576842   3.317286   3.519208   2.992771
    20  C    5.781557   4.561821   3.307105   3.508992   2.989818
    21  C    6.896664   5.895258   4.568412   4.524919   3.742273
    22  C    6.892103   5.883497   4.560899   4.516777   3.739679
    23  H    5.654697   4.409039   3.343788   3.642947   3.338201
    24  C    7.387495   6.449276   5.076674   4.948307   4.064518
    25  H    7.563764   6.647670   5.373015   5.270164   4.493783
    26  H    8.356532   7.525999   6.143132   5.921319   4.971644
    27  H    6.147583   2.131316   3.408960   3.879705   4.969463
    28  H    2.162397   6.061460   5.825437   7.060802   7.216447
    29  C    1.481886   6.119666   6.507852   7.901238   8.402996
    30  C    2.515951   6.523149   7.136993   8.530895   9.145944
    31  C    2.515142   7.248486   7.498802   8.865371   9.266949
    32  C    3.799884   7.882141   8.526310   9.921114  10.536749
    33  H    2.728081   5.947979   6.688700   8.054620   8.745009
    34  C    3.799264   8.492814   8.831642  10.210387  10.641959
    35  H    2.725898   7.285266   7.356257   8.670535   8.967229
    36  C    4.308847   8.778489   9.294369  10.693276  11.225558
    37  H    4.671001   8.368255   9.125917  10.503018  11.179518
    38  H    4.670223   9.373242   9.629859  10.986313  11.355977
    39  O    3.666309   1.374012   2.431644   3.686707   4.576834
    40  H    8.162121   3.406388   3.911403   3.416950   4.317302
    41  H    5.401396   9.831181  10.377129  11.776771  12.316940
    42  H    7.571152   6.666216   5.384383   5.282610   4.497646
    43  H    5.664635   4.436520   3.361617   3.660444   3.342993
                   11         12         13         14         15
    11  C    0.000000
    12  C    1.392858   0.000000
    13  C    2.412254   1.400830   0.000000
    14  H    6.418001   6.905125   6.217710   0.000000
    15  H    6.691407   6.123146   4.756583   4.959313   0.000000
    16  H    1.092087   2.161505   3.407379   7.229876   7.783408
    17  N    3.735129   4.223538   3.704658   2.704105   4.547624
    18  C    4.280313   5.116755   4.890492   2.539347   5.827050
    19  C    4.846808   5.773348   5.654108   2.987496   6.597406
    20  C    4.831872   5.754698   5.635440   3.004825   6.578873
    21  C    5.802641   6.884714   6.916908   3.736971   7.899608
    22  C    5.789948   6.868885   6.901509   3.751007   7.884183
    23  H    4.841026   5.622386   5.433807   3.358979   6.310770
    24  C    6.220116   7.370823   7.461918   4.066908   8.469284
    25  H    6.456182   7.538459   7.614709   4.508270   8.583235
    26  H    7.134414   8.341490   8.505591   4.973027   9.525927
    27  H    3.414322   2.182431   1.091453   6.892567   4.552442
    28  H    8.258964   8.418914   7.414228   2.465307   4.325495
    29  C    8.795816   8.510021   7.231684   4.674008   2.756907
    30  C    9.276521   8.812993   7.467050   5.841035   2.778116
    31  C    9.845385   9.651296   8.411964   5.060569   4.046487
    32  C   10.648021  10.139361   8.774920   7.049526   4.053490
    33  H    8.692052   8.138133   6.782423   5.970255   2.290592
    34  C   11.147607  10.876688   9.592723   6.416804   5.009708
    35  H    9.737530   9.677460   8.519772   4.533783   4.536899
    36  C   11.518649  11.104208   9.761557   7.303449   5.020141
    37  H   11.132396  10.521715   9.142085   7.955991   4.544184
    38  H   11.972726  11.761587  10.505217   6.936188   6.008336
    39  O    4.158904   3.653980   2.362382   4.573670   2.533869
    40  H    2.164608   1.091683   2.162615   7.993594   6.889122
    41  H   12.583227  12.134632  10.778857   8.354341   6.023765
    42  H    6.476475   7.564160   7.639575   4.487431   8.608460
    43  H    4.867501   5.656225   5.468078   3.331317   6.344831
                   16         17         18         19         20
    16  H    0.000000
    17  N    4.613430   0.000000
    18  C    4.915748   1.427046   0.000000
    19  C    5.348640   2.446962   1.399206   0.000000
    20  C    5.335001   2.447115   1.399297   2.424853   0.000000
    21  C    6.110005   3.724650   2.420041   1.396792   2.797105
    22  C    6.097814   3.724703   2.420068   2.797140   1.396713
    23  H    5.397839   2.656387   2.152205   3.407088   1.091664
    24  C    6.451538   4.221243   2.794197   2.421140   2.421113
    25  H    6.691369   4.603906   3.409607   3.889574   2.159218
    26  H    7.259086   5.313701   3.886655   3.410909   3.410880
    27  H    4.328756   4.556354   5.836039   6.607474   6.587435
    28  H    9.201406   4.606529   4.907216   5.325199   5.338766
    29  C    9.858687   5.729563   6.592923   7.187349   7.182460
    30  C   10.359287   6.555332   7.559746   8.091194   8.283031
    31  C   10.885235   6.578540   7.252448   7.858156   7.646227
    32  C   11.733805   7.933141   8.902050   9.413103   9.578599
    33  H    9.773791   6.276846   7.391518   7.883838   8.241900
    34  C   12.201098   7.952234   8.642165   9.212697   9.033282
    35  H   10.738591   6.318994   6.823049   7.463986   7.055254
    36  C   12.596324   8.556402   9.389912   9.923128   9.920072
    37  H   12.218541   8.647484   9.686084  10.160505  10.437417
    38  H   13.009091   8.678878   9.257152   9.830319   9.528794
    39  O    5.250989   2.812825   4.239825   5.091416   5.078545
    40  H    2.503205   5.315079   6.186338   6.802380   6.782308
    41  H   13.664064   9.648921  10.475208  10.992863  10.990215
    42  H    6.711179   4.603828   3.409575   2.159290   3.889545
    43  H    5.421822   2.656081   2.152067   1.091665   3.407067
                   21         22         23         24         25
    21  C    0.000000
    22  C    2.421993   0.000000
    23  H    3.888632   2.171893   0.000000
    24  C    1.398185   1.398251   3.417666   0.000000
    25  H    3.412819   1.092435   2.503840   2.163689   0.000000
    26  H    2.162273   2.162342   4.322301   1.092457   2.492541
    27  H    7.910363   7.893500   6.317966   8.479682   8.592108
    28  H    6.085847   6.097912   5.413414   6.438558   6.698808
    29  C    8.243185   8.239063   7.017155   8.721772   8.857455
    30  C    9.231727   9.400231   8.130492   9.832634  10.076747
    31  C    8.760583   8.571398   7.442964   9.089267   9.070922
    32  C   10.509510  10.657947   9.402443  11.088324  11.295232
    33  H    9.107799   9.419165   8.125440   9.810289  10.165132
    34  C   10.097071   9.934020   8.814741  10.433848  10.407361
    35  H    8.250306   7.883097   6.837473   8.443415   8.300174
    36  C   10.907899  10.905281   9.714060  11.367487  11.451950
    37  H   11.302749  11.552133  10.271691  11.952774  12.226348
    38  H   10.613869  10.335768   9.291602  10.851732  10.725840
    39  O    6.454866   6.444669   4.862427   7.033984   7.201882
    40  H    7.873042   7.855496   6.618888   8.349145   8.483739
    41  H   11.957792  11.955527  10.774192  12.411468  12.481740
    42  H    1.092440   3.412828   4.981054   2.163623   4.316259
    43  H    2.172036   3.888666   4.295702   3.417722   4.981083
                   26         27         28         29         30
    26  H    0.000000
    27  H    9.536661   0.000000
    28  H    7.245237   7.787359   0.000000
    29  C    9.646844   7.210531   2.739475   0.000000
    30  C   10.788037   7.263291   4.027972   1.407448   0.000000
    31  C    9.929551   8.441662   2.768167   1.407537   2.411907
    32  C   12.011811   8.495958   4.992270   2.440159   1.395398
    33  H   10.805307   6.507241   4.518960   2.164409   1.091931
    34  C   11.246033   9.524125   4.043437   2.440165   2.786858
    35  H    9.230836   8.668198   2.289615   2.163924   3.404428
    36  C   12.227602   9.555399   5.006045   2.826964   2.422705
    37  H   12.895381   8.756967   5.990283   3.425146   2.156170
    38  H   11.599223  10.474601   4.538886   3.425235   3.879712
    39  O    8.126434   2.548013   5.240821   4.872215   5.190748
    40  H    9.286866   2.518888   9.455607   9.394264   9.601697
    41  H   13.252002  10.525213   6.010688   3.919512   3.413883
    42  H    2.492447   8.619706   6.679204   8.864267   9.795172
    43  H    4.322371   6.354937   5.389504   7.025847   7.780594
                   31         32         33         34         35
    31  C    0.000000
    32  C    2.786801   0.000000
    33  H    3.404854   2.153764   0.000000
    34  C    1.395267   2.412808   3.878526   0.000000
    35  H    1.091905   3.878396   4.311988   2.154118   0.000000
    36  C    2.422677   1.397673   3.407658   1.397812   3.407927
    37  H    3.879644   1.092883   2.472859   3.406067   4.971267
    38  H    2.156158   3.406014   4.971419   1.092904   2.473630
    39  O    6.061216   6.533638   4.617592   7.245253   6.219011
    40  H   10.565348  10.891207   8.872771  11.750500  10.637679
    41  H    3.413841   2.165526   4.309488   2.165650   4.309875
    42  H    9.387472  11.044563   9.646199  10.683314   8.913488
    43  H    7.824060   9.101367   7.469382   9.137596   7.567132
                   36         37         38         39         40
    36  C    0.000000
    37  H    2.162907   0.000000
    38  H    2.162982   4.313141   0.000000
    39  O    7.455623   7.012949   8.164819   0.000000
    40  H   11.905805  11.201180  12.655232   4.523758   0.000000
    41  H    1.092549   2.496886   2.496930   8.495651  12.911374
    42  H   11.456368  11.803631  11.199369   7.218134   8.512688
    43  H    9.719412   9.767292   9.832152   4.886153   6.655356
                   41         42         43
    41  H    0.000000
    42  H   12.485581   0.000000
    43  H   10.778798   2.504026   0.000000
 Symmetry turned off by external request.
 Stoichiometry    C24H17NO
 Framework group  C1[X(C24H17NO)]
 Deg. of freedom   123
 Full point group                 C1      NOp   1
 Rotational constants (GHZ):      0.3514864      0.1169876      0.0914309
 Leave Link  202 at Wed Mar 31 02:59:22 2021, MaxMem=  5242880000 cpu:         0.1
 (Enter /opt/nce/packages/global/g09/l301.exe)
 Standard basis: def2TZVP (5D, 7F)
 Ernie: Thresh=  0.10000D-02 Tol=  0.10000D-05 Strict=F.
   908 basis functions,  1462 primitive gaussians,  1038 cartesian basis functions
    88 alpha electrons       88 beta electrons
       nuclear repulsion energy      2053.5537558956 Hartrees.
 IExCor= 2523 DFT=T Ex=TPSS Corr=TPSS ExCW=0 ScaHFX=  0.000000
 ScaDFX=  1.000000  1.000000  1.000000  1.000000 ScalE2=  1.000000  1.000000
 IRadAn=      5 IRanWt=     -1 IRanGd=            0 ICorTp=0 IEmpDi=  4
 NAtoms=   43 NActive=   43 NUniq=   43 SFac= 1.00D+00 NAtFMM=   60 NAOKFM=F Big=F
 Integral buffers will be    131072 words long.
 Raffenetti 2 integral format.
 Two-electron integral symmetry is turned off.
 ------------------------------------------------------------------------------
 Polarizable Continuum Model (PCM)
 =================================
 Model                : PCM (using non-symmetric T matrix).
 Atomic radii         : SMD-Coulomb.
 Polarization charges : Total charges.
 Charge compensation  : None.
 Solution method      : On-the-fly selection.
 Cavity type          : VdW (van der Waals Surface) (Alpha=1.000).
 Cavity algorithm     : GePol (No added spheres)
                        Default sphere list used, NSphG=   43.
                        Lebedev-Laikov grids with approx.  5.0 points / Ang**2.
                        Smoothing algorithm: York/Karplus (Gamma=1.0000).
                        Polarization charges: spherical gaussians, with
                                              point-specific exponents (IZeta= 3).
                        Self-potential: point-specific (ISelfS= 7).
                        Self-field    : sphere-specific E.n sum rule (ISelfD= 2).
 1st derivatives      : Analytical E(r).r(x)/FMM algorithm (CHGder, D1EAlg=3).
                        Cavity 1st derivative terms included.
 Solvent              : n,n-DiMethylAcetamide, Eps=  37.781000 Eps(inf)=   2.067844
 ------------------------------------------------------------------------------
 GePol: Number of generator spheres                  =      43
 GePol: Total number of spheres                      =      43
 GePol: Number of exposed spheres                    =      43 (100.00%)
 GePol: Number of points                             =    3372
 GePol: Average weight of points                     =       0.11
 GePol: Minimum weight of points                     =   0.29D-09
 GePol: Maximum weight of points                     =    0.17992
 GePol: Number of points with low weight             =     213
 GePol: Fraction of low-weight points (<1% of avg)   =       6.32%
 GePol: Cavity surface area                          =    362.523 Ang**2
 GePol: Cavity volume                                =    356.156 Ang**3
 ------------------------------------------------------------------------------
 Atomic radii for non-electrostatic terms: SMD-CDS.
 ------------------------------------------------------------------------------
 PCM non-electrostatic energy =        -0.0064083268 Hartrees.
 Nuclear repulsion after PCM non-electrostatic terms =     2053.5473475688 Hartrees.
 Leave Link  301 at Wed Mar 31 02:59:22 2021, MaxMem=  5242880000 cpu:         1.8
 (Enter /opt/nce/packages/global/g09/l302.exe)
 NPDir=0 NMtPBC=     1 NCelOv=     1 NCel=       1 NClECP=     1 NCelD=      1
         NCelK=      1 NCelE2=     1 NClLst=     1 CellRange=     0.0.
 One-electron integrals computed using PRISM.
   1 Symmetry operations used in ECPInt.
 ECPInt:  NShTT=   62835 NPrTT=  194376 LenC2=   51049 LenP2D=  109949.
 LDataN:  DoStor=T MaxTD1= 6 Len=  172
 NBasis=   908 RedAO= T EigKep=  5.07D-06  NBF=   908
 NBsUse=   908 1.00D-06 EigRej= -1.00D+00 NBFU=   908
 Precomputing XC quadrature grid using
 IXCGrd= 4 IRadAn=           5 IRanWt=          -1 IRanGd=           0 AccXCQ= 0.00D+00.
 Generated NRdTot=       0 NPtTot=           0 NUsed=           0 NTot=          32
 NSgBfM=   998   998   999   999  1001 MxSgAt=    43 MxSgA2=    43.
 Leave Link  302 at Wed Mar 31 02:59:24 2021, MaxMem=  5242880000 cpu:        21.3
 (Enter /opt/nce/packages/global/g09/l303.exe)
 DipDrv:  MaxL=1.
 Leave Link  303 at Wed Mar 31 02:59:24 2021, MaxMem=  5242880000 cpu:         2.2
 (Enter /opt/nce/packages/global/g09/l401.exe)
 ExpMin= 9.52D-02 ExpMax= 2.70D+04 ExpMxC= 9.22D+02 IAcc=3 IRadAn=         5 AccDes= 0.00D+00
 Harris functional with IExCor= 1009 and IRadAn=       5 diagonalized for initial guess.
 HarFok:  IExCor= 1009 AccDes= 0.00D+00 IRadAn=         5 IDoV= 1 UseB2=F ITyADJ=14
 ICtDFT=  3500011 ScaDFX=  1.000000  1.000000  1.000000  1.000000
 FoFCou: FMM=F IPFlag=           0 FMFlag=      100000 FMFlg1=           0
         NFxFlg=           0 DoJE=T BraDBF=F KetDBF=T FulRan=T
         wScrn=  0.000000 ICntrl=     500 IOpCl=  0 I1Cent=   200000004 NGrid=           0
         NMat0=    1 NMatS0=      1 NMatT0=    0 NMatD0=    1 NMtDS0=    0 NMtDT0=    0
 Symmetry not used in FoFCou.
 Harris En= -1054.22952523168    
 JPrj=0 DoOrth=F DoCkMO=F.
 Leave Link  401 at Wed Mar 31 02:59:32 2021, MaxMem=  5242880000 cpu:        93.9
 (Enter /opt/nce/packages/global/g09/l502.exe)
 Closed shell SCF:
 Using DIIS extrapolation, IDIIS=  1040.
 Two-electron integral symmetry not used.
 IVT=     3269652 IEndB=     3269652 NGot=  5242880000 MDV=  5240705471
 LenX=  5240705471 LenY=  5239626989
 Requested convergence on RMS density matrix=1.00D-08 within 128 cycles.
 Requested convergence on MAX density matrix=1.00D-06.
 Requested convergence on             energy=1.00D-06.
 No special actions if energy rises.
 Fock matrices will be formed incrementally for  20 cycles.

 Cycle   1  Pass 1  IDiag  1:
 FoFJK:  IHMeth= 1 ICntrl=     500 DoSepK=F KAlg= 0 I1Cent=   0 FoldK=F
 IRaf= 700000000 NMat=   1 IRICut=       1 DoRegI=T DoRafI=F ISym2E= 0.
 FoFCou: FMM=F IPFlag=           0 FMFlag=      100000 FMFlg1=           0
         NFxFlg=           0 DoJE=T BraDBF=F KetDBF=F FulRan=T
         wScrn=  0.000000 ICntrl=     500 IOpCl=  0 I1Cent=           0 NGrid=           0
         NMat0=    1 NMatS0=      1 NMatT0=    0 NMatD0=    1 NMtDS0=    0 NMtDT0=    0
 Symmetry not used in FoFCou.
 Inv3:  Mode=1 IEnd=    34111152.
 Iteration    1 A*A^-1 deviation from unit magnitude is 5.55D-15 for   3368.
 Iteration    1 A*A^-1 deviation from orthogonality  is 5.55D-15 for   3371    567.
 Iteration    1 A^-1*A deviation from unit magnitude is 5.11D-15 for   3368.
 Iteration    1 A^-1*A deviation from orthogonality  is 1.73D-09 for   2302   2281.
 Iteration    2 A*A^-1 deviation from unit magnitude is 2.22D-15 for    199.
 Iteration    2 A*A^-1 deviation from orthogonality  is 3.39D-15 for   1686    404.
 Iteration    2 A^-1*A deviation from unit magnitude is 8.88D-16 for    499.
 Iteration    2 A^-1*A deviation from orthogonality  is 2.98D-16 for   2082    572.
 E= -1054.85451156813    
 DIIS: error= 1.94D-02 at cycle   1 NSaved=   1.
 NSaved= 1 IEnMin= 1 EnMin= -1054.85451156813     IErMin= 1 ErrMin= 1.94D-02
 ErrMax= 1.94D-02  0.00D+00 EMaxC= 1.00D-01 BMatC= 5.24D-01 BMatP= 5.24D-01
 IDIUse=3 WtCom= 8.06D-01 WtEn= 1.94D-01
 Coeff-Com:  0.100D+01
 Coeff-En:   0.100D+01
 Coeff:      0.100D+01
 Gap=     0.143 Goal=   None    Shift=    0.000
 GapD=    0.143 DampG=1.000 DampE=0.500 DampFc=0.5000 IDamp=-1.
 Damping current iteration by 5.00D-01
 RMSDP=2.82D-03 MaxDP=2.50D-01              OVMax= 2.98D-01

 Cycle   2  Pass 1  IDiag  1:
 RMSU=  1.41D-03    CP:  9.92D-01
 E= -1054.98483276157     Delta-E=       -0.130321193437 Rises=F Damp=T
 DIIS: error= 9.37D-03 at cycle   2 NSaved=   2.
 NSaved= 2 IEnMin= 2 EnMin= -1054.98483276157     IErMin= 2 ErrMin= 9.37D-03
 ErrMax= 9.37D-03  0.00D+00 EMaxC= 1.00D-01 BMatC= 9.35D-02 BMatP= 5.24D-01
 IDIUse=3 WtCom= 9.06D-01 WtEn= 9.37D-02
 Coeff-Com:  0.181D+00 0.819D+00
 Coeff-En:   0.352D+00 0.648D+00
 Coeff:      0.197D+00 0.803D+00
 Gap=     0.131 Goal=   None    Shift=    0.000
 RMSDP=1.96D-03 MaxDP=2.11D-01 DE=-1.30D-01 OVMax= 4.80D-01

 Cycle   3  Pass 1  IDiag  1:
 RMSU=  1.79D-03    CP:  1.02D+00  1.56D+00
 E= -1055.18301115147     Delta-E=       -0.198178389904 Rises=F Damp=F
 DIIS: error= 1.21D-02 at cycle   3 NSaved=   3.
 NSaved= 3 IEnMin= 3 EnMin= -1055.18301115147     IErMin= 2 ErrMin= 9.37D-03
 ErrMax= 1.21D-02  0.00D+00 EMaxC= 1.00D-01 BMatC= 1.49D-01 BMatP= 9.35D-02
 IDIUse=2 WtCom= 0.00D+00 WtEn= 1.00D+00
 Coeff-En:   0.000D+00 0.193D+00 0.807D+00
 Coeff:      0.000D+00 0.193D+00 0.807D+00
 Gap=     0.138 Goal=   None    Shift=    0.000
 RMSDP=2.69D-03 MaxDP=3.23D-01 DE=-1.98D-01 OVMax= 3.42D-01

 Cycle   4  Pass 1  IDiag  1:
 RMSU=  8.22D-04    CP:  9.60D-01  6.25D-01 -2.15D-01
 E= -1054.79820816768     Delta-E=        0.384802983795 Rises=F Damp=F
 DIIS: error= 2.32D-02 at cycle   4 NSaved=   4.
 NSaved= 4 IEnMin= 3 EnMin= -1055.18301115147     IErMin= 2 ErrMin= 9.37D-03
 ErrMax= 2.32D-02  0.00D+00 EMaxC= 1.00D-01 BMatC= 5.04D-01 BMatP= 9.35D-02
 IDIUse=2 WtCom= 0.00D+00 WtEn= 1.00D+00
 Coeff-En:   0.000D+00 0.000D+00 0.697D+00 0.303D+00
 Coeff:      0.000D+00 0.000D+00 0.697D+00 0.303D+00
 Gap=     0.126 Goal=   None    Shift=    0.000
 RMSDP=8.03D-04 MaxDP=6.96D-02 DE= 3.85D-01 OVMax= 2.20D-01

 Cycle   5  Pass 1  IDiag  1:
 RMSU=  2.59D-04    CP:  9.78D-01  8.04D-01  1.36D-01  5.95D-01
 E= -1055.32724601509     Delta-E=       -0.529037847409 Rises=F Damp=F
 DIIS: error= 4.83D-03 at cycle   5 NSaved=   5.
 NSaved= 5 IEnMin= 5 EnMin= -1055.32724601509     IErMin= 5 ErrMin= 4.83D-03
 ErrMax= 4.83D-03  0.00D+00 EMaxC= 1.00D-01 BMatC= 2.50D-02 BMatP= 9.35D-02
 IDIUse=3 WtCom= 9.52D-01 WtEn= 4.83D-02
 Coeff-Com:  0.224D-02 0.824D-02 0.271D+00-0.181D-01 0.737D+00
 Coeff-En:   0.000D+00 0.000D+00 0.204D+00 0.000D+00 0.796D+00
 Coeff:      0.213D-02 0.784D-02 0.267D+00-0.172D-01 0.740D+00
 Gap=     0.095 Goal=   None    Shift=    0.000
 RMSDP=5.47D-04 MaxDP=6.98D-02 DE=-5.29D-01 OVMax= 8.48D-02

 Cycle   6  Pass 1  IDiag  1:
 RMSU=  8.76D-05    CP:  9.90D-01  1.02D+00  3.72D-01  4.29D-01  8.71D-01
 E= -1055.35259043466     Delta-E=       -0.025344419578 Rises=F Damp=F
 DIIS: error= 2.04D-03 at cycle   6 NSaved=   6.
 NSaved= 6 IEnMin= 6 EnMin= -1055.35259043466     IErMin= 6 ErrMin= 2.04D-03
 ErrMax= 2.04D-03  0.00D+00 EMaxC= 1.00D-01 BMatC= 2.14D-03 BMatP= 2.50D-02
 IDIUse=3 WtCom= 9.80D-01 WtEn= 2.04D-02
 Coeff-Com: -0.363D-02 0.722D-02 0.121D+00-0.579D-01 0.535D+00 0.399D+00
 Coeff-En:   0.000D+00 0.000D+00 0.000D+00 0.000D+00 0.000D+00 0.100D+01
 Coeff:     -0.356D-02 0.707D-02 0.118D+00-0.567D-01 0.524D+00 0.411D+00
 Gap=     0.094 Goal=   None    Shift=    0.000
 RMSDP=1.17D-04 MaxDP=1.57D-02 DE=-2.53D-02 OVMax= 1.63D-02

 Cycle   7  Pass 1  IDiag  1:
 RMSU=  2.50D-05    CP:  9.87D-01  9.71D-01  3.31D-01  4.41D-01  9.80D-01
                    CP:  4.47D-01
 E= -1055.35485874666     Delta-E=       -0.002268311999 Rises=F Damp=F
 DIIS: error= 2.33D-04 at cycle   7 NSaved=   7.
 NSaved= 7 IEnMin= 7 EnMin= -1055.35485874666     IErMin= 7 ErrMin= 2.33D-04
 ErrMax= 2.33D-04  0.00D+00 EMaxC= 1.00D-01 BMatC= 7.62D-05 BMatP= 2.14D-03
 IDIUse=3 WtCom= 9.98D-01 WtEn= 2.33D-03
 Coeff-Com: -0.208D-02 0.484D-02 0.587D-01-0.319D-01 0.269D+00 0.247D+00
 Coeff-Com:  0.454D+00
 Coeff-En:   0.000D+00 0.000D+00 0.000D+00 0.000D+00 0.000D+00 0.000D+00
 Coeff-En:   0.100D+01
 Coeff:     -0.208D-02 0.483D-02 0.586D-01-0.318D-01 0.269D+00 0.246D+00
 Coeff:      0.455D+00
 Gap=     0.095 Goal=   None    Shift=    0.000
 RMSDP=2.47D-05 MaxDP=3.18D-03 DE=-2.27D-03 OVMax= 3.71D-03

 Cycle   8  Pass 1  IDiag  1:
 RMSU=  8.03D-06    CP:  9.88D-01  9.80D-01  3.40D-01  4.39D-01  9.65D-01
                    CP:  5.11D-01  6.68D-01
 E= -1055.35492789059     Delta-E=       -0.000069143925 Rises=F Damp=F
 DIIS: error= 6.73D-05 at cycle   8 NSaved=   8.
 NSaved= 8 IEnMin= 8 EnMin= -1055.35492789059     IErMin= 8 ErrMin= 6.73D-05
 ErrMax= 6.73D-05  0.00D+00 EMaxC= 1.00D-01 BMatC= 7.33D-06 BMatP= 7.62D-05
 IDIUse=1 WtCom= 1.00D+00 WtEn= 0.00D+00
 Coeff-Com: -0.384D-03 0.130D-02 0.110D-01-0.704D-02 0.489D-01 0.644D-01
 Coeff-Com:  0.268D+00 0.614D+00
 Coeff:     -0.384D-03 0.130D-02 0.110D-01-0.704D-02 0.489D-01 0.644D-01
 Coeff:      0.268D+00 0.614D+00
 Gap=     0.095 Goal=   None    Shift=    0.000
 RMSDP=7.20D-06 MaxDP=9.12D-04 DE=-6.91D-05 OVMax= 1.21D-03

 Cycle   9  Pass 1  IDiag  1:
 RMSU=  2.46D-06    CP:  9.88D-01  9.78D-01  3.37D-01  4.39D-01  9.71D-01
                    CP:  5.02D-01  7.55D-01  7.73D-01
 E= -1055.35493322912     Delta-E=       -0.000005338535 Rises=F Damp=F
 DIIS: error= 2.95D-05 at cycle   9 NSaved=   9.
 NSaved= 9 IEnMin= 9 EnMin= -1055.35493322912     IErMin= 9 ErrMin= 2.95D-05
 ErrMax= 2.95D-05  0.00D+00 EMaxC= 1.00D-01 BMatC= 1.28D-06 BMatP= 7.33D-06
 IDIUse=1 WtCom= 1.00D+00 WtEn= 0.00D+00
 Coeff-Com: -0.394D-04 0.301D-03 0.271D-02-0.177D-02 0.943D-02 0.212D-01
 Coeff-Com:  0.137D+00 0.398D+00 0.433D+00
 Coeff:     -0.394D-04 0.301D-03 0.271D-02-0.177D-02 0.943D-02 0.212D-01
 Coeff:      0.137D+00 0.398D+00 0.433D+00
 Gap=     0.095 Goal=   None    Shift=    0.000
 RMSDP=4.34D-06 MaxDP=5.59D-04 DE=-5.34D-06 OVMax= 4.74D-04

 Cycle  10  Pass 1  IDiag  1:
 RMSU=  9.78D-07    CP:  9.88D-01  9.79D-01  3.39D-01  4.38D-01  9.68D-01
                    CP:  5.08D-01  7.44D-01  8.03D-01  5.90D-01
 E= -1055.35493446153     Delta-E=       -0.000001232411 Rises=F Damp=F
 DIIS: error= 8.08D-06 at cycle  10 NSaved=  10.
 NSaved=10 IEnMin=10 EnMin= -1055.35493446153     IErMin=10 ErrMin= 8.08D-06
 ErrMax= 8.08D-06  0.00D+00 EMaxC= 1.00D-01 BMatC= 1.07D-07 BMatP= 1.28D-06
 IDIUse=1 WtCom= 1.00D+00 WtEn= 0.00D+00
 Coeff-Com:  0.418D-04-0.755D-04 0.362D-03-0.144D-03-0.435D-03 0.464D-02
 Coeff-Com:  0.477D-01 0.154D+00 0.263D+00 0.530D+00
 Coeff:      0.418D-04-0.755D-04 0.362D-03-0.144D-03-0.435D-03 0.464D-02
 Coeff:      0.477D-01 0.154D+00 0.263D+00 0.530D+00
 Gap=     0.095 Goal=   None    Shift=    0.000
 RMSDP=6.75D-07 MaxDP=7.57D-05 DE=-1.23D-06 OVMax= 1.13D-04

 Cycle  11  Pass 1  IDiag  1:
 RMSU=  3.02D-07    CP:  9.88D-01  9.79D-01  3.39D-01  4.39D-01  9.68D-01
                    CP:  5.07D-01  7.51D-01  8.03D-01  6.62D-01  7.66D-01
 E= -1055.35493455854     Delta-E=       -0.000000097002 Rises=F Damp=F
 DIIS: error= 2.85D-06 at cycle  11 NSaved=  11.
 NSaved=11 IEnMin=11 EnMin= -1055.35493455854     IErMin=11 ErrMin= 2.85D-06
 ErrMax= 2.85D-06  0.00D+00 EMaxC= 1.00D-01 BMatC= 1.30D-08 BMatP= 1.07D-07
 IDIUse=1 WtCom= 1.00D+00 WtEn= 0.00D+00
 Coeff-Com:  0.314D-04-0.695D-04 0.129D-04 0.421D-04-0.110D-02 0.134D-02
 Coeff-Com:  0.202D-01 0.685D-01 0.137D+00 0.346D+00 0.428D+00
 Coeff:      0.314D-04-0.695D-04 0.129D-04 0.421D-04-0.110D-02 0.134D-02
 Coeff:      0.202D-01 0.685D-01 0.137D+00 0.346D+00 0.428D+00
 Gap=     0.095 Goal=   None    Shift=    0.000
 RMSDP=1.60D-07 MaxDP=1.47D-05 DE=-9.70D-08 OVMax= 3.34D-05

 Cycle  12  Pass 1  IDiag  1:
 RMSU=  9.14D-08    CP:  9.88D-01  9.79D-01  3.39D-01  4.39D-01  9.68D-01
                    CP:  5.07D-01  7.50D-01  8.06D-01  6.59D-01  7.91D-01
                    CP:  7.55D-01
 E= -1055.35493457142     Delta-E=       -0.000000012883 Rises=F Damp=F
 DIIS: error= 7.40D-07 at cycle  12 NSaved=  12.
 NSaved=12 IEnMin=12 EnMin= -1055.35493457142     IErMin=12 ErrMin= 7.40D-07
 ErrMax= 7.40D-07  0.00D+00 EMaxC= 1.00D-01 BMatC= 4.84D-10 BMatP= 1.30D-08
 IDIUse=1 WtCom= 1.00D+00 WtEn= 0.00D+00
 Coeff-Com:  0.136D-04-0.322D-04-0.154D-04 0.336D-04-0.504D-03 0.282D-03
 Coeff-Com:  0.583D-02 0.202D-01 0.449D-01 0.127D+00 0.212D+00 0.590D+00
 Coeff:      0.136D-04-0.322D-04-0.154D-04 0.336D-04-0.504D-03 0.282D-03
 Coeff:      0.583D-02 0.202D-01 0.449D-01 0.127D+00 0.212D+00 0.590D+00
 Gap=     0.095 Goal=   None    Shift=    0.000
 RMSDP=3.53D-08 MaxDP=1.75D-06 DE=-1.29D-08 OVMax= 8.24D-06

 Cycle  13  Pass 1  IDiag  1:
 RMSU=  2.65D-08    CP:  9.88D-01  9.79D-01  3.39D-01  4.39D-01  9.68D-01
                    CP:  5.07D-01  7.51D-01  8.06D-01  6.64D-01  7.96D-01
                    CP:  7.84D-01  8.67D-01
 E= -1055.35493457188     Delta-E=       -0.000000000459 Rises=F Damp=F
 DIIS: error= 2.39D-07 at cycle  13 NSaved=  13.
 NSaved=13 IEnMin=13 EnMin= -1055.35493457188     IErMin=13 ErrMin= 2.39D-07
 ErrMax= 2.39D-07  0.00D+00 EMaxC= 1.00D-01 BMatC= 9.65D-11 BMatP= 4.84D-10
 IDIUse=1 WtCom= 1.00D+00 WtEn= 0.00D+00
 Coeff-Com:  0.388D-05-0.901D-05-0.134D-04 0.135D-04-0.158D-03-0.126D-04
 Coeff-Com:  0.724D-03 0.259D-02 0.810D-02 0.291D-01 0.699D-01 0.366D+00
 Coeff-Com:  0.523D+00
 Coeff:      0.388D-05-0.901D-05-0.134D-04 0.135D-04-0.158D-03-0.126D-04
 Coeff:      0.724D-03 0.259D-02 0.810D-02 0.291D-01 0.699D-01 0.366D+00
 Coeff:      0.523D+00
 Gap=     0.095 Goal=   None    Shift=    0.000
 RMSDP=2.36D-08 MaxDP=2.42D-06 DE=-4.59D-10 OVMax= 3.48D-06

 Cycle  14  Pass 1  IDiag  1:
 RMSU=  8.45D-09    CP:  9.88D-01  9.79D-01  3.39D-01  4.39D-01  9.68D-01
                    CP:  5.07D-01  7.51D-01  8.07D-01  6.64D-01  8.01D-01
                    CP:  7.88D-01  9.04D-01  6.92D-01
 E= -1055.35493457197     Delta-E=       -0.000000000093 Rises=F Damp=F
 DIIS: error= 6.29D-08 at cycle  14 NSaved=  14.
 NSaved=14 IEnMin=14 EnMin= -1055.35493457197     IErMin=14 ErrMin= 6.29D-08
 ErrMax= 6.29D-08  0.00D+00 EMaxC= 1.00D-01 BMatC= 3.96D-12 BMatP= 9.65D-11
 IDIUse=1 WtCom= 1.00D+00 WtEn= 0.00D+00
 Coeff-Com:  0.830D-06-0.186D-05-0.519D-05 0.367D-05-0.353D-04-0.189D-04
 Coeff-Com: -0.371D-04-0.114D-03 0.764D-03 0.478D-02 0.175D-01 0.128D+00
 Coeff-Com:  0.243D+00 0.606D+00
 Coeff:      0.830D-06-0.186D-05-0.519D-05 0.367D-05-0.353D-04-0.189D-04
 Coeff:     -0.371D-04-0.114D-03 0.764D-03 0.478D-02 0.175D-01 0.128D+00
 Coeff:      0.243D+00 0.606D+00
 Gap=     0.095 Goal=   None    Shift=    0.000
 RMSDP=3.10D-09 MaxDP=1.75D-07 DE=-9.32D-11 OVMax= 8.51D-07

 Error on total polarization charges =  0.06602
 SCF Done:  E(RTPSS-TPSS) =  -1055.35493457     A.U. after   14 cycles
            NFock= 14  Conv=0.31D-08     -V/T= 2.0048
 KE= 1.050346131911D+03 PE=-6.559643294952D+03 EE= 2.400394880900D+03
 SMD-CDS (non-electrostatic) energy       (kcal/mol) =      -4.02
 (included in total energy above)
 Leave Link  502 at Wed Mar 31 03:10:18 2021, MaxMem=  5242880000 cpu:      7675.4
 (Enter /opt/nce/packages/global/g09/l601.exe)
 Copying SCF densities to generalized density rwf, IOpCl= 0 IROHF=0.

 **********************************************************************

            Population analysis using the SCF density.

 **********************************************************************

 Alpha  occ. eigenvalues --  -18.93456 -14.14540 -10.05297 -10.05227 -10.03869
 Alpha  occ. eigenvalues --  -10.03839 -10.03096  -9.99880  -9.99629  -9.99531
 Alpha  occ. eigenvalues --   -9.99529  -9.99408  -9.99397  -9.99339  -9.98964
 Alpha  occ. eigenvalues --   -9.98926  -9.98914  -9.98885  -9.98721  -9.98718
 Alpha  occ. eigenvalues --   -9.98691  -9.98646  -9.98641  -9.98591  -9.98562
 Alpha  occ. eigenvalues --   -9.98490  -1.02715  -0.91351  -0.81194  -0.79973
 Alpha  occ. eigenvalues --   -0.79450  -0.77584  -0.72166  -0.71342  -0.70518
 Alpha  occ. eigenvalues --   -0.69534  -0.68797  -0.68392  -0.67415  -0.64571
 Alpha  occ. eigenvalues --   -0.60067  -0.59781  -0.56341  -0.56310  -0.55429
 Alpha  occ. eigenvalues --   -0.54250  -0.53950  -0.52567  -0.50931  -0.49087
 Alpha  occ. eigenvalues --   -0.47011  -0.45740  -0.45195  -0.43106  -0.43081
 Alpha  occ. eigenvalues --   -0.42725  -0.41953  -0.40884  -0.40485  -0.39855
 Alpha  occ. eigenvalues --   -0.39435  -0.39165  -0.38971  -0.38547  -0.38199
 Alpha  occ. eigenvalues --   -0.37343  -0.35332  -0.34605  -0.34171  -0.33967
 Alpha  occ. eigenvalues --   -0.33811  -0.33305  -0.32700  -0.32449  -0.31917
 Alpha  occ. eigenvalues --   -0.30986  -0.30279  -0.29856  -0.29221  -0.28926
 Alpha  occ. eigenvalues --   -0.25137  -0.24106  -0.23631  -0.23440  -0.23028
 Alpha  occ. eigenvalues --   -0.21874  -0.20623  -0.15554
 Alpha virt. eigenvalues --   -0.06091  -0.04788  -0.04673  -0.03739  -0.03253
 Alpha virt. eigenvalues --   -0.03006  -0.02286   0.01148   0.04113   0.04301
 Alpha virt. eigenvalues --    0.05024   0.06012   0.06313   0.06991   0.07657
 Alpha virt. eigenvalues --    0.07806   0.08618   0.08804   0.09373   0.09470
 Alpha virt. eigenvalues --    0.09998   0.10397   0.10733   0.10767   0.10834
 Alpha virt. eigenvalues --    0.11651   0.12011   0.12206   0.12394   0.13400
 Alpha virt. eigenvalues --    0.13733   0.14168   0.14328   0.16257   0.16735
 Alpha virt. eigenvalues --    0.17331   0.18070   0.18658   0.18785   0.18867
 Alpha virt. eigenvalues --    0.18965   0.19339   0.19717   0.19794   0.20135
 Alpha virt. eigenvalues --    0.20276   0.20445   0.20768   0.21162   0.21443
 Alpha virt. eigenvalues --    0.21559   0.22102   0.22450   0.22609   0.22855
 Alpha virt. eigenvalues --    0.23203   0.23351   0.23857   0.24119   0.24871
 Alpha virt. eigenvalues --    0.25590   0.25910   0.26088   0.26202   0.26679
 Alpha virt. eigenvalues --    0.26823   0.27179   0.27550   0.28191   0.29116
 Alpha virt. eigenvalues --    0.29450   0.29718   0.30101   0.30399   0.30867
 Alpha virt. eigenvalues --    0.30980   0.31379   0.31840   0.32192   0.32764
 Alpha virt. eigenvalues --    0.33211   0.33279   0.33834   0.34019   0.34450
 Alpha virt. eigenvalues --    0.34591   0.34655   0.35145   0.35419   0.35834
 Alpha virt. eigenvalues --    0.36045   0.36608   0.37303   0.37687   0.38188
 Alpha virt. eigenvalues --    0.38570   0.39443   0.40073   0.40270   0.40664
 Alpha virt. eigenvalues --    0.40909   0.40959   0.41250   0.41483   0.41838
 Alpha virt. eigenvalues --    0.42305   0.42540   0.42772   0.43001   0.43542
 Alpha virt. eigenvalues --    0.43949   0.44475   0.44873   0.45031   0.45263
 Alpha virt. eigenvalues --    0.45599   0.45938   0.46425   0.46581   0.46860
 Alpha virt. eigenvalues --    0.47472   0.47768   0.47844   0.48615   0.48790
 Alpha virt. eigenvalues --    0.49110   0.49526   0.49991   0.50768   0.51979
 Alpha virt. eigenvalues --    0.52446   0.52768   0.53786   0.53823   0.54190
 Alpha virt. eigenvalues --    0.54914   0.55682   0.56231   0.56970   0.57476
 Alpha virt. eigenvalues --    0.59076   0.59310   0.60478   0.61258   0.61630
 Alpha virt. eigenvalues --    0.61842   0.62410   0.62946   0.63053   0.63209
 Alpha virt. eigenvalues --    0.64325   0.64716   0.64965   0.65084   0.65522
 Alpha virt. eigenvalues --    0.65771   0.65880   0.65976   0.66544   0.66924
 Alpha virt. eigenvalues --    0.67226   0.67970   0.68287   0.69166   0.69458
 Alpha virt. eigenvalues --    0.69708   0.70441   0.70988   0.71484   0.71671
 Alpha virt. eigenvalues --    0.71971   0.72498   0.73288   0.73529   0.74014
 Alpha virt. eigenvalues --    0.74230   0.74413   0.75344   0.75893   0.76322
 Alpha virt. eigenvalues --    0.76902   0.77071   0.77314   0.78245   0.79421
 Alpha virt. eigenvalues --    0.79773   0.80208   0.80836   0.82121   0.82637
 Alpha virt. eigenvalues --    0.82744   0.83432   0.83711   0.84427   0.84600
 Alpha virt. eigenvalues --    0.85197   0.86060   0.86435   0.86836   0.87853
 Alpha virt. eigenvalues --    0.88334   0.88721   0.88907   0.89321   0.90118
 Alpha virt. eigenvalues --    0.90322   0.90729   0.91639   0.92223   0.92678
 Alpha virt. eigenvalues --    0.93746   0.94348   0.95656   0.96660   0.97955
 Alpha virt. eigenvalues --    0.98303   0.98898   0.99448   1.00437   1.00856
 Alpha virt. eigenvalues --    1.01487   1.02186   1.02327   1.03266   1.04055
 Alpha virt. eigenvalues --    1.05008   1.05459   1.06215   1.07424   1.07908
 Alpha virt. eigenvalues --    1.08688   1.10119   1.10693   1.10989   1.11572
 Alpha virt. eigenvalues --    1.11611   1.12145   1.13465   1.13487   1.15142
 Alpha virt. eigenvalues --    1.15466   1.16051   1.16898   1.17364   1.18486
 Alpha virt. eigenvalues --    1.18643   1.19032   1.19961   1.20819   1.21019
 Alpha virt. eigenvalues --    1.21827   1.22179   1.22508   1.22919   1.23038
 Alpha virt. eigenvalues --    1.24056   1.24195   1.25015   1.25549   1.25710
 Alpha virt. eigenvalues --    1.26950   1.27470   1.28502   1.28827   1.29198
 Alpha virt. eigenvalues --    1.30206   1.31107   1.31568   1.32262   1.32891
 Alpha virt. eigenvalues --    1.33748   1.34782   1.35698   1.36680   1.37157
 Alpha virt. eigenvalues --    1.37538   1.38570   1.38858   1.39641   1.40857
 Alpha virt. eigenvalues --    1.41468   1.41919   1.43057   1.43267   1.44211
 Alpha virt. eigenvalues --    1.44735   1.45080   1.45849   1.45969   1.46609
 Alpha virt. eigenvalues --    1.46928   1.47116   1.47383   1.48032   1.48518
 Alpha virt. eigenvalues --    1.49184   1.50299   1.50946   1.51852   1.52520
 Alpha virt. eigenvalues --    1.53146   1.53783   1.53989   1.54954   1.55522
 Alpha virt. eigenvalues --    1.56547   1.57398   1.57659   1.58578   1.58823
 Alpha virt. eigenvalues --    1.59997   1.60878   1.61656   1.62168   1.62508
 Alpha virt. eigenvalues --    1.63135   1.63668   1.63790   1.64252   1.64707
 Alpha virt. eigenvalues --    1.65404   1.65806   1.66428   1.66781   1.67147
 Alpha virt. eigenvalues --    1.67579   1.67870   1.68464   1.68910   1.69436
 Alpha virt. eigenvalues --    1.70110   1.70343   1.70835   1.71407   1.72005
 Alpha virt. eigenvalues --    1.72414   1.72803   1.74038   1.74741   1.75135
 Alpha virt. eigenvalues --    1.77057   1.77943   1.78482   1.80992   1.81438
 Alpha virt. eigenvalues --    1.82250   1.83263   1.83749   1.84644   1.86038
 Alpha virt. eigenvalues --    1.86673   1.87374   1.89231   1.90123   1.90672
 Alpha virt. eigenvalues --    1.91242   1.91478   1.92054   1.92567   1.94281
 Alpha virt. eigenvalues --    1.94879   1.97531   1.97834   1.98081   1.99766
 Alpha virt. eigenvalues --    2.00123   2.01565   2.02142   2.02574   2.02694
 Alpha virt. eigenvalues --    2.03178   2.03881   2.05361   2.06247   2.06761
 Alpha virt. eigenvalues --    2.07108   2.07470   2.08378   2.08724   2.09601
 Alpha virt. eigenvalues --    2.10030   2.10812   2.11931   2.13443   2.13882
 Alpha virt. eigenvalues --    2.14296   2.14377   2.14878   2.15347   2.17928
 Alpha virt. eigenvalues --    2.18875   2.19243   2.19459   2.20248   2.20709
 Alpha virt. eigenvalues --    2.21208   2.22877   2.23926   2.24409   2.24531
 Alpha virt. eigenvalues --    2.25345   2.28334   2.29066   2.29191   2.29565
 Alpha virt. eigenvalues --    2.31842   2.32532   2.34626   2.35139   2.35954
 Alpha virt. eigenvalues --    2.36636   2.38524   2.39780   2.44126   2.44520
 Alpha virt. eigenvalues --    2.44955   2.45408   2.46294   2.46931   2.47485
 Alpha virt. eigenvalues --    2.47931   2.49464   2.50414   2.50779   2.51805
 Alpha virt. eigenvalues --    2.51940   2.53001   2.53851   2.55333   2.56415
 Alpha virt. eigenvalues --    2.56865   2.57266   2.57648   2.58062   2.58657
 Alpha virt. eigenvalues --    2.59036   2.59299   2.59453   2.59950   2.60269
 Alpha virt. eigenvalues --    2.61432   2.61946   2.62983   2.63500   2.63994
 Alpha virt. eigenvalues --    2.64211   2.64548   2.64732   2.65224   2.65820
 Alpha virt. eigenvalues --    2.65994   2.66179   2.66732   2.67123   2.67370
 Alpha virt. eigenvalues --    2.67533   2.68149   2.68775   2.69168   2.69452
 Alpha virt. eigenvalues --    2.70345   2.70534   2.71221   2.71362   2.72154
 Alpha virt. eigenvalues --    2.72437   2.73049   2.73673   2.74570   2.74601
 Alpha virt. eigenvalues --    2.75393   2.75663   2.76075   2.76447   2.77055
 Alpha virt. eigenvalues --    2.77393   2.77908   2.78160   2.78764   2.79670
 Alpha virt. eigenvalues --    2.80099   2.81001   2.81233   2.81927   2.82605
 Alpha virt. eigenvalues --    2.82788   2.83184   2.83447   2.83904   2.84907
 Alpha virt. eigenvalues --    2.85102   2.85654   2.85949   2.86891   2.87628
 Alpha virt. eigenvalues --    2.88063   2.88080   2.88456   2.89173   2.89886
 Alpha virt. eigenvalues --    2.91108   2.91663   2.91991   2.92369   2.93710
 Alpha virt. eigenvalues --    2.94675   2.95330   2.97362   2.97564   2.98168
 Alpha virt. eigenvalues --    2.98681   2.99616   3.00252   3.01073   3.01598
 Alpha virt. eigenvalues --    3.01830   3.02536   3.03260   3.04181   3.04702
 Alpha virt. eigenvalues --    3.06278   3.07438   3.08133   3.09080   3.09551
 Alpha virt. eigenvalues --    3.09876   3.10191   3.10350   3.11563   3.12095
 Alpha virt. eigenvalues --    3.12430   3.12500   3.12655   3.13282   3.13617
 Alpha virt. eigenvalues --    3.13903   3.14591   3.15275   3.15374   3.15601
 Alpha virt. eigenvalues --    3.16044   3.16387   3.17549   3.18076   3.18339
 Alpha virt. eigenvalues --    3.18940   3.19836   3.20151   3.21209   3.21513
 Alpha virt. eigenvalues --    3.21900   3.22503   3.22822   3.23567   3.24041
 Alpha virt. eigenvalues --    3.25306   3.25548   3.26218   3.26520   3.27016
 Alpha virt. eigenvalues --    3.27486   3.27763   3.28144   3.29325   3.29990
 Alpha virt. eigenvalues --    3.30523   3.30638   3.31163   3.32244   3.32258
 Alpha virt. eigenvalues --    3.32807   3.34076   3.34286   3.34882   3.35613
 Alpha virt. eigenvalues --    3.35961   3.36386   3.36420   3.36921   3.37360
 Alpha virt. eigenvalues --    3.37822   3.38271   3.38673   3.39049   3.39106
 Alpha virt. eigenvalues --    3.40346   3.40394   3.40950   3.41618   3.43049
 Alpha virt. eigenvalues --    3.43841   3.44677   3.44888   3.45187   3.46187
 Alpha virt. eigenvalues --    3.46509   3.47170   3.47720   3.47915   3.48277
 Alpha virt. eigenvalues --    3.48867   3.49232   3.49438   3.50032   3.50305
 Alpha virt. eigenvalues --    3.51094   3.51147   3.51591   3.51688   3.52384
 Alpha virt. eigenvalues --    3.52784   3.53656   3.54508   3.56458   3.56626
 Alpha virt. eigenvalues --    3.57110   3.57833   3.59511   3.59904   3.60773
 Alpha virt. eigenvalues --    3.61676   3.62117   3.63716   3.64776   3.65736
 Alpha virt. eigenvalues --    3.66509   3.67846   3.70111   3.71251   3.71947
 Alpha virt. eigenvalues --    3.72250   3.73193   3.73812   3.75369   3.77775
 Alpha virt. eigenvalues --    3.78654   3.79262   3.79761   3.80427   3.81729
 Alpha virt. eigenvalues --    3.82452   3.83538   3.84800   3.86746   3.87402
[...]
     6  C    0.000048   0.000098  -0.000015  -0.000046   0.000020   0.000012
     7  C    0.000965   0.001197  -0.000432  -0.000377   0.000242   0.000082
     8  C    0.006381   0.004874  -0.001895  -0.002182   0.002029   0.000617
     9  C   -0.001656  -0.001866  -0.002385  -0.002483   0.000875   0.000495
    10  H    0.000965   0.001284  -0.000445  -0.000598   0.000099   0.001025
    11  C    0.000238   0.000231   0.000124   0.000168   0.000017  -0.000047
    12  C    0.000023  -0.000004  -0.000015  -0.000018   0.000003   0.000008
    13  C   -0.000184  -0.000075   0.000028   0.000038  -0.000016  -0.000008
    14  H    0.001252   0.001143  -0.000445  -0.000727   0.000077   0.001064
    15  H   -0.000002  -0.000004   0.000000   0.000000  -0.000001  -0.000000
    16  H   -0.000006  -0.000008   0.000005   0.000005   0.000001  -0.000004
    17  N   -0.036706  -0.038261   0.012812   0.013655  -0.002005   0.001058
    18  C    0.392222   0.395756   0.025566   0.029054  -0.069423  -0.139865
    19  C    5.025346   0.048618   0.346937  -0.100301   0.012030   0.061629
    20  C    0.048618   5.034474  -0.098877   0.335570   0.457158   0.064367
    21  C    0.346937  -0.098877   5.087450   0.048211  -0.003926   0.366050
    22  C   -0.100301   0.335570   0.048211   5.100798  -0.062867   0.362802
    23  H    0.012030   0.457158  -0.003926  -0.062867   0.522823   0.014791
    24  C    0.061629   0.064367   0.366050   0.362802   0.014791   5.050153
    25  H   -0.004037  -0.058977   0.014747   0.440849  -0.009548  -0.063961
    26  H    0.014850   0.015016  -0.059413  -0.059510  -0.000179   0.439455
    27  H   -0.000001  -0.000000   0.000000   0.000000  -0.000000  -0.000000
    28  H   -0.000010  -0.000051   0.000003   0.000010  -0.000001  -0.000006
    29  C    0.000010   0.000006   0.000000  -0.000001   0.000000   0.000000
    30  C   -0.000001   0.000000  -0.000000   0.000000   0.000000  -0.000000
    31  C   -0.000000  -0.000001   0.000000  -0.000000   0.000000  -0.000000
    32  C    0.000000  -0.000000   0.000000  -0.000000  -0.000000   0.000000
    33  H   -0.000000   0.000000   0.000000  -0.000000   0.000000   0.000000
    34  C   -0.000000   0.000000  -0.000000   0.000000   0.000000   0.000000
    35  H   -0.000000   0.000000   0.000000   0.000000   0.000000  -0.000000
    36  C    0.000000  -0.000000   0.000000  -0.000000   0.000000  -0.000000
    37  H   -0.000000  -0.000000  -0.000000   0.000000  -0.000000  -0.000000
    38  H   -0.000000  -0.000000   0.000000  -0.000000   0.000000  -0.000000
    39  O    0.000154   0.000153  -0.000007  -0.000006  -0.000004   0.000002
    40  H    0.000002   0.000001  -0.000000  -0.000000  -0.000000   0.000000
    41  H    0.000000   0.000000  -0.000000  -0.000000  -0.000000   0.000000
    42  H   -0.059111  -0.004239   0.441137   0.015005   0.000047  -0.064689
    43  H    0.457807   0.012027  -0.061860  -0.004109  -0.000213   0.014971
              25         26         27         28         29         30
     1  C   -0.000004  -0.000001   0.000023   0.451875  -0.112727   0.011814
     2  C   -0.000000  -0.000011  -0.000091  -0.060131   0.018135  -0.001864
     3  C   -0.000021   0.000011   0.001058   0.019347  -0.011045   0.000776
     4  C   -0.000001   0.000001  -0.002130  -0.004664   0.015282   0.001999
     5  C    0.000000  -0.000000   0.000633   0.017225  -0.104646  -0.000161
     6  C   -0.000000   0.000000  -0.000062  -0.076710   0.354564  -0.093326
     7  C   -0.000001   0.000001  -0.121387  -0.000013  -0.000081  -0.000001
     8  C   -0.000029   0.000011   0.032544   0.000045   0.000013   0.000001
     9  C    0.000014  -0.000011  -0.011416  -0.000002   0.000001   0.000000
    10  H   -0.000005   0.000011   0.000010   0.000000  -0.000000  -0.000000
    11  C   -0.000002  -0.000001   0.023943   0.000000  -0.000000  -0.000000
    12  C   -0.000000   0.000000  -0.076257  -0.000000   0.000000   0.000000
    13  C    0.000000  -0.000000   0.488524   0.000000  -0.000012  -0.000000
    14  H   -0.000009   0.000012   0.000000  -0.008842  -0.000451   0.000017
    15  H    0.000000  -0.000000   0.000294  -0.000057  -0.014909   0.006311
    16  H    0.000000  -0.000000  -0.000149  -0.000000  -0.000000  -0.000000
    17  N   -0.000408  -0.000003   0.000069  -0.000139   0.000015  -0.000003
    18  C    0.018174  -0.004471   0.000084   0.000252  -0.000088   0.000003
    19  C   -0.004037   0.014850  -0.000001  -0.000010   0.000010  -0.000001
    20  C   -0.058977   0.015016  -0.000000  -0.000051   0.000006   0.000000
    21  C    0.014747  -0.059413   0.000000   0.000003   0.000000  -0.000000
    22  C    0.440849  -0.059510   0.000000   0.000010  -0.000001   0.000000
    23  H   -0.009548  -0.000179  -0.000000  -0.000001   0.000000   0.000000
    24  C   -0.063961   0.439455  -0.000000  -0.000006   0.000000  -0.000000
    25  H    0.529816  -0.008738  -0.000000   0.000000  -0.000000  -0.000000
    26  H   -0.008738   0.527609   0.000000  -0.000000   0.000000   0.000000
    27  H   -0.000000   0.000000   0.541995   0.000000  -0.000001  -0.000000
    28  H    0.000000  -0.000000   0.000000   0.530197  -0.013242   0.000037
    29  C   -0.000000   0.000000  -0.000001  -0.013242   5.157773   0.364866
    30  C   -0.000000   0.000000  -0.000000   0.000037   0.364866   5.135298
    31  C    0.000000  -0.000000   0.000000   0.007718   0.384306   0.015341
    32  C    0.000000   0.000000  -0.000000  -0.000086   0.036799   0.415187
    33  H   -0.000000   0.000000  -0.000000  -0.000030  -0.062687   0.437403
    34  C   -0.000000   0.000000  -0.000000   0.000347   0.032419  -0.081144
    35  H   -0.000000   0.000000   0.000000   0.002322  -0.062943   0.014935
    36  C   -0.000000   0.000000   0.000000  -0.000048  -0.104079   0.028458
    37  H    0.000000  -0.000000   0.000000   0.000002   0.014718  -0.060872
    38  H    0.000000   0.000000  -0.000000   0.000034   0.014496  -0.003797
    39  O   -0.000000   0.000000   0.007911   0.000017   0.000195  -0.000123
    40  H   -0.000000   0.000000  -0.011779   0.000000   0.000000   0.000000
    41  H   -0.000000   0.000000   0.000000  -0.000002  -0.003936   0.014663
    42  H   -0.000257  -0.008751  -0.000000   0.000000  -0.000000   0.000000
    43  H    0.000049  -0.000179  -0.000000   0.000003   0.000000   0.000000
              31         32         33         34         35         36
     1  C    0.001966  -0.001180   0.000092  -0.000363   0.009555   0.000419
     2  C   -0.000485   0.000092  -0.000248  -0.000037   0.000403  -0.000020
     3  C    0.001699  -0.000039   0.000213  -0.000066   0.000028   0.000013
     4  C   -0.003995  -0.000086  -0.000260   0.000217  -0.000039  -0.000054
     5  C    0.018241  -0.000293   0.010230  -0.001720  -0.000512   0.000384
     6  C   -0.110328   0.003581  -0.015682   0.005544  -0.012965  -0.001150
     7  C   -0.000005  -0.000000  -0.000015   0.000000   0.000000  -0.000000
     8  C    0.000003  -0.000000   0.000003  -0.000000  -0.000000   0.000000
     9  C   -0.000000   0.000000   0.000000   0.000000  -0.000000  -0.000000
    10  H    0.000000  -0.000000   0.000000  -0.000000  -0.000000   0.000000
    11  C    0.000000  -0.000000  -0.000000  -0.000000   0.000000   0.000000
    12  C   -0.000000   0.000000   0.000000   0.000000  -0.000000  -0.000000
    13  C    0.000000  -0.000000  -0.000000  -0.000000   0.000000   0.000000
    14  H   -0.000023  -0.000001   0.000002  -0.000002   0.000018   0.000000
    15  H    0.000827   0.000335   0.003002  -0.000185  -0.000031   0.000014
    16  H   -0.000000   0.000000  -0.000000   0.000000  -0.000000  -0.000000
    17  N   -0.000001  -0.000000   0.000001  -0.000000   0.000001   0.000000
    18  C    0.000005  -0.000000   0.000000  -0.000000   0.000001   0.000000
    19  C   -0.000000   0.000000  -0.000000  -0.000000  -0.000000   0.000000
    20  C   -0.000001  -0.000000   0.000000   0.000000   0.000000  -0.000000
    21  C    0.000000   0.000000   0.000000  -0.000000   0.000000   0.000000
    22  C   -0.000000  -0.000000  -0.000000   0.000000   0.000000  -0.000000
    23  H    0.000000  -0.000000   0.000000   0.000000   0.000000   0.000000
    24  C   -0.000000   0.000000   0.000000   0.000000  -0.000000  -0.000000
    25  H    0.000000   0.000000  -0.000000  -0.000000  -0.000000  -0.000000
    26  H   -0.000000   0.000000   0.000000   0.000000   0.000000   0.000000
    27  H    0.000000  -0.000000  -0.000000  -0.000000   0.000000   0.000000
    28  H    0.007718  -0.000086  -0.000030   0.000347   0.002322  -0.000048
    29  C    0.384306   0.036799  -0.062687   0.032419  -0.062943  -0.104079
    30  C    0.015341   0.415187   0.437403  -0.081144   0.014935   0.028458
    31  C    5.136718  -0.083905   0.014249   0.412427   0.434510   0.030529
    32  C   -0.083905   5.002988  -0.052821   0.023915  -0.003380   0.413274
    33  H    0.014249  -0.052821   0.528815  -0.003174  -0.000158   0.012698
    34  C    0.412427   0.023915  -0.003174   5.005359  -0.051038   0.411531
    35  H    0.434510  -0.003380  -0.000158  -0.051038   0.528820   0.012742
    36  C    0.030529   0.413274   0.012698   0.411531   0.012742   5.012190
    37  H   -0.003854   0.440753  -0.009078   0.014489   0.000060  -0.059658
    38  H   -0.060204   0.014440   0.000062   0.440165  -0.009080  -0.059645
    39  O    0.000009  -0.000001  -0.000006  -0.000000   0.000001   0.000000
    40  H   -0.000000  -0.000000   0.000000   0.000000   0.000000  -0.000000
    41  H    0.014658  -0.059698  -0.000235  -0.059810  -0.000233   0.438532
    42  H    0.000000  -0.000000   0.000000   0.000000   0.000000  -0.000000
    43  H   -0.000000   0.000000  -0.000000  -0.000000  -0.000000  -0.000000
              37         38         39         40         41         42
     1  C    0.000030  -0.000030  -0.000824  -0.000000  -0.000006  -0.000000
     2  C   -0.000001  -0.000003   0.008876   0.000001   0.000000   0.000020
     3  C    0.000000   0.000001  -0.072017  -0.000033  -0.000000  -0.000031
     4  C    0.000004  -0.000003   0.321906   0.000063   0.000000  -0.000001
     5  C   -0.000038   0.000044  -0.045333  -0.000004  -0.000009  -0.000000
     6  C   -0.000545  -0.000607   0.000258   0.000000   0.000071  -0.000000
     7  C    0.000000  -0.000000   0.320549   0.028207   0.000000   0.000000
     8  C   -0.000000   0.000000  -0.078293  -0.010999  -0.000000  -0.000027
     9  C    0.000000   0.000000   0.007551   0.023493  -0.000000   0.000008
    10  H    0.000000   0.000000  -0.000097  -0.000159  -0.000000  -0.000008
    11  C    0.000000  -0.000000   0.000005  -0.079010   0.000000  -0.000002
    12  C   -0.000000   0.000000   0.001934   0.465256  -0.000000  -0.000000
    13  C    0.000000  -0.000000  -0.036323  -0.082724  -0.000000   0.000000
    14  H    0.000000   0.000000  -0.000102  -0.000000  -0.000000  -0.000007
    15  H    0.000026   0.000003   0.010153  -0.000001  -0.000002  -0.000000
    16  H   -0.000000  -0.000000   0.000018  -0.009471   0.000000   0.000000
    17  N   -0.000000  -0.000000  -0.007927   0.000003  -0.000000  -0.000437
    18  C    0.000000   0.000000  -0.004008  -0.000021  -0.000000   0.018566
    19  C   -0.000000  -0.000000   0.000154   0.000002   0.000000  -0.059111
    20  C   -0.000000  -0.000000   0.000153   0.000001   0.000000  -0.004239
    21  C   -0.000000   0.000000  -0.000007  -0.000000  -0.000000   0.441137
    22  C    0.000000  -0.000000  -0.000006  -0.000000  -0.000000   0.015005
    23  H   -0.000000   0.000000  -0.000004  -0.000000  -0.000000   0.000047
    24  C   -0.000000  -0.000000   0.000002   0.000000   0.000000  -0.064689
    25  H    0.000000   0.000000  -0.000000  -0.000000  -0.000000  -0.000257
    26  H   -0.000000   0.000000   0.000000   0.000000   0.000000  -0.008751
    27  H    0.000000  -0.000000   0.007911  -0.011779   0.000000  -0.000000
    28  H    0.000002   0.000034   0.000017   0.000000  -0.000002   0.000000
    29  C    0.014718   0.014496   0.000195   0.000000  -0.003936  -0.000000
    30  C   -0.060872  -0.003797  -0.000123   0.000000   0.014663   0.000000
    31  C   -0.003854  -0.060204   0.000009  -0.000000   0.014658   0.000000
    32  C    0.440753   0.014440  -0.000001  -0.000000  -0.059698  -0.000000
    33  H   -0.009078   0.000062  -0.000006   0.000000  -0.000235   0.000000
    34  C    0.014489   0.440165  -0.000000   0.000000  -0.059810   0.000000
    35  H    0.000060  -0.009080   0.000001   0.000000  -0.000233   0.000000
    36  C   -0.059658  -0.059645   0.000000  -0.000000   0.438532  -0.000000
    37  H    0.535647  -0.000259   0.000000   0.000000  -0.008854   0.000000
    38  H   -0.000259   0.535775   0.000000   0.000000  -0.008832  -0.000000
    39  O    0.000000   0.000000   7.776218  -0.000151   0.000000  -0.000000
    40  H    0.000000   0.000000  -0.000151   0.537559  -0.000000  -0.000000
    41  H   -0.008854  -0.008832   0.000000  -0.000000   0.533814  -0.000000
    42  H    0.000000  -0.000000  -0.000000  -0.000000  -0.000000   0.530213
    43  H    0.000000   0.000000   0.000002  -0.000000  -0.000000  -0.009647
              43
     1  C    0.000007
     2  C    0.000425
     3  C    0.002281
     4  C    0.000287
     5  C   -0.000008
     6  C    0.000003
     7  C    0.000116
     8  C    0.001633
     9  C    0.000896
    10  H    0.000073
    11  C    0.000053
    12  C    0.000005
    13  C   -0.000018
    14  H    0.000079
    15  H   -0.000000
    16  H    0.000001
    17  N   -0.000985
    18  C   -0.071190
    19  C    0.457807
    20  C    0.012027
    21  C   -0.061860
    22  C   -0.004109
    23  H   -0.000213
    24  C    0.014971
    25  H    0.000049
    26  H   -0.000179
    27  H   -0.000000
    28  H    0.000003
    29  C    0.000000
    30  C    0.000000
    31  C   -0.000000
    32  C    0.000000
    33  H   -0.000000
    34  C   -0.000000
    35  H   -0.000000
    36  C   -0.000000
    37  H    0.000000
    38  H    0.000000
    39  O    0.000002
    40  H   -0.000000
    41  H   -0.000000
    42  H   -0.009647
    43  H    0.522738
 Mulliken charges:
               1
     1  C   -0.247839
     2  C   -0.213807
     3  C    0.050905
     4  C    0.229131
     5  C   -0.368937
     6  C    0.231639
     7  C    0.207349
     8  C    0.073957
     9  C   -0.202756
    10  H    0.157099
    11  C   -0.184201
    12  C   -0.124202
    13  C   -0.286672
    14  H    0.155477
    15  H    0.117229
    16  H    0.137792
    17  N    0.117841
    18  C    0.003054
    19  C   -0.173061
    20  C   -0.175885
    21  C   -0.108706
    22  C   -0.107938
    23  H    0.134726
    24  C   -0.111165
    25  H    0.142347
    26  H    0.144291
    27  H    0.126188
    28  H    0.134600
    29  C    0.097250
    30  C   -0.205816
    31  C   -0.210406
    32  C   -0.149876
    33  H    0.137624
    34  C   -0.148875
    35  H    0.136985
    36  C   -0.136132
    37  H    0.137430
    38  H    0.137442
    39  O   -0.210690
    40  H    0.139766
    41  H    0.139878
    42  H    0.142211
    43  H    0.134753
 Sum of Mulliken charges =  -0.00000
 Mulliken charges with hydrogens summed into heavy atoms:
               1
     1  C   -0.113239
     2  C   -0.058329
     3  C    0.050905
     4  C    0.229131
     5  C   -0.251708
     6  C    0.231639
     7  C    0.207349
     8  C    0.073957
     9  C   -0.045657
    11  C   -0.046409
    12  C    0.015563
    13  C   -0.160484
    17  N    0.117841
    18  C    0.003054
    19  C   -0.038308
    20  C   -0.041158
    21  C    0.033505
    22  C    0.034410
    24  C    0.033126
    29  C    0.097250
    30  C   -0.068192
    31  C   -0.073421
    32  C   -0.012446
    34  C   -0.011433
    36  C    0.003746
    39  O   -0.210690
 Electronic spatial extent (au):  <R**2>=          11248.7563
 Charge=              0.0000 electrons
 Dipole moment (field-independent basis, Debye):
    X=              2.6146    Y=             -2.8830    Z=              0.0623  Tot=              3.8925
 Quadrupole moment (field-independent basis, Debye-Ang):
   XX=           -132.0612   YY=           -133.0564   ZZ=           -149.5706
   XY=             -9.3058   XZ=              0.4128   YZ=              3.2633
 Traceless Quadrupole moment (field-independent basis, Debye-Ang):
   XX=              6.1683   YY=              5.1730   ZZ=            -11.3412
   XY=             -9.3058   XZ=              0.4128   YZ=              3.2633
 Octapole moment (field-independent basis, Debye-Ang**2):
  XXX=            -20.6340  YYY=             -4.4381  ZZZ=              2.4566  XYY=             35.1035
  XXY=            -29.9241  XXZ=              2.0968  XZZ=             25.1648  YZZ=            -20.3580
  YYZ=             -3.9086  XYZ=            -22.0792
 Hexadecapole moment (field-independent basis, Debye-Ang**3):
 XXXX=         -10537.1278 YYYY=          -3405.1427 ZZZZ=           -459.1599 XXXY=            -79.2865
 XXXZ=              3.3620 YYYX=            -90.0242 YYYZ=              7.7303 ZZZX=             12.1004
 ZZZY=              4.8474 XXYY=          -2191.6124 XXZZ=          -2073.4460 YYZZ=           -698.0870
 XXYZ=            105.8342 YYXZ=              2.6278 ZZXY=            -94.6577
 N-N= 2.052565155284D+03 E-N=-6.557812366888D+03  KE= 1.050446082222D+03
 Leave Link  601 at Wed Mar 31 11:32:35 2021, MaxMem=  5242880000 cpu:         4.8
 (Enter /opt/nce/packages/global/g09/l9999.exe)
 1\1\GINC-CN058\SP\RTPSSTPSS TD-FC\Gen\C24H17N1O1\PNG4RJV\31-Mar-2021\0
 \\#p TPSSTPSS chkbasis geom=allcheck Guess=Read int=ultrafine scrf=(SM
 D,solvent=n,n-DiMethylAcetamide) td=(NStates=30)\\Title\\0,1\C,0,1.785
 2934191,-1.3594005397,-0.037530026\C,0,0.3901555036,-1.3418568792,-0.0
 492737589\C,0,-0.3186979991,-0.1341269704,-0.0249231303\C,0,0.43134724
 83,1.0569929565,0.0054532383\C,0,1.8154041907,1.0418776723,0.015265973
 2\C,0,2.5312906355,-0.1730166452,-0.0049727512\C,0,-1.5658211456,2.350
 3827059,0.0553197083\C,0,-2.3506569239,1.181993243,0.0215288255\C,0,-3
 .7439357471,1.3240408668,0.0437072838\H,0,-4.3674336674,0.436050865,0.
 0198717648\C,0,-4.3342416575,2.591200928,0.09531609\C,0,-3.5431065647,
 3.7362756224,0.1275375782\C,0,-2.1489631192,3.6083695855,0.1080815804\
 H,0,-0.1574017249,-2.2780417329,-0.086078077\H,0,2.3337703328,1.995345
 9483,0.0613858702\H,0,-5.4178016978,2.6695170272,0.1102696003\N,0,-1.7
 178675197,-0.071134483,-0.0314688705\C,0,-2.4995054352,-1.2812893241,-
 0.0554108754\C,0,-2.902682108,-1.8195742852,-1.2799119654\C,0,-2.84598
 6477,-1.9074790918,1.1446229826\C,0,-3.658705865,-2.9930925124,-1.3014
 087806\C,0,-3.6007397259,-3.0815672224,1.1161831547\H,0,-2.5245046841,
 -1.4758620154,2.0885192819\C,0,-4.0073014599,-3.6243110192,-0.10510428
 83\H,0,-3.8706644031,-3.571050023,2.0481726932\H,0,-4.595338121,-4.538
 0698591,-0.1243536127\H,0,-1.5024929912,4.481458473,0.1327325243\H,0,2
 .2906741409,-2.3198185849,-0.0794454046\C,0,4.0123630413,-0.1849040175
 ,0.0011536536\C,0,4.7525960392,0.8666433232,-0.5726738078\C,0,4.726870
 4785,-1.251192931,0.580804225\C,0,6.1470400973,0.8515790183,-0.5680602
 486\H,0,4.2324748657,1.6949946118,-1.0467310777\C,0,6.1210212512,-1.26
 66542038,0.5825357654\H,0,4.1859870686,-2.066617388,1.0538543202\C,0,6
 .8405197939,-0.2152463394,0.0086552795\H,0,6.6932391012,1.673310396,-1
 .0249818808\H,0,6.6470380377,-2.099207977,1.0435357352\O,0,-0.17879325
 2,2.3033198695,0.0337042074\H,0,-3.9933034338,4.7237726917,0.167843442
 \H,0,7.9273798015,-0.226801852,0.0118909712\H,0,-3.9738359006,-3.41330
 26947,-2.2527839305\H,0,-2.6246914235,-1.3198962133,-2.2038742628\\Ver
 sion=ES64L-G09RevE.01\State=1-A\HF=-1055.3557527\RMSD=3.345e-09\PG=C01
  [X(C24H17N1O1)]\\@


 The hours that make us happy make us wise.
                         -- John Masefield
 Job cpu time:       1 days 10 hours 17 minutes 47.9 seconds.
 File lengths (MBytes):  RWF=   3187 Int=      0 D2E=      0 Chk=    736 Scr=      1
 Normal termination of Gaussian 09 at Wed Mar 31 11:32:36 2021.
