
                                 *****************
                                 * O   R   C   A *
                                 *****************

                                            #,                                       
                                            ###                                      
                                            ####                                     
                                            #####                                    
                                            ######                                   
                                           ########,                                 
                                     ,,################,,,,,                         
                               ,,#################################,,                 
                          ,,##########################################,,             
                       ,#########################################, ''#####,          
                    ,#############################################,,   '####,        
                  ,##################################################,,,,####,       
                ,###########''''           ''''###############################       
              ,#####''   ,,,,##########,,,,          '''####'''          '####       
            ,##' ,,,,###########################,,,                        '##       
           ' ,,###''''                  '''############,,,                           
         ,,##''                                '''############,,,,        ,,,,,,###''
      ,#''                                            '''#######################'''  
     '                                                          ''''####''''         
             ,#######,   #######,   ,#######,      ##                                
            ,#'     '#,  ##    ##  ,#'     '#,    #''#        ######   ,####,        
            ##       ##  ##   ,#'  ##            #'  '#       #        #'  '#        
            ##       ##  #######   ##           ,######,      #####,   #    #        
            '#,     ,#'  ##    ##  '#,     ,#' ,#      #,         ##   #,  ,#        
             '#######'   ##     ##  '#######'  #'      '#     #####' # '####'        



                  #######################################################
                  #                        -***-                        #
                  #          Department of theory and spectroscopy      #
                  #    Directorship and core code : Frank Neese         #
                  #        Max Planck Institute fuer Kohlenforschung    #
                  #                Kaiser Wilhelm Platz 1               #
                  #                 D-45470 Muelheim/Ruhr               #
                  #                      Germany                        #
                  #                                                     #
                  #                  All rights reserved                #
                  #                        -***-                        #
                  #######################################################


                         Program Version 5.0.2 -  RELEASE  -


 With contributions from (in alphabetic order):
   Daniel Aravena         : Magnetic Suceptibility
   Michael Atanasov       : Ab Initio Ligand Field Theory (pilot matlab implementation)
   Alexander A. Auer      : GIAO ZORA, VPT2 properties, NMR spectrum
   Ute Becker             : Parallelization
   Giovanni Bistoni       : ED, misc. LED, open-shell LED, HFLD
   Martin Brehm           : Molecular dynamics
   Dmytro Bykov           : SCF Hessian
   Vijay G. Chilkuri      : MRCI spin determinant printing, contributions to CSF-ICE
   Dipayan Datta          : RHF DLPNO-CCSD density
   Achintya Kumar Dutta   : EOM-CC, STEOM-CC
   Dmitry Ganyushin       : Spin-Orbit,Spin-Spin,Magnetic field MRCI
   Miquel Garcia          : C-PCM and meta-GGA Hessian, CC/C-PCM, Gaussian charge scheme
   Yang Guo               : DLPNO-NEVPT2, F12-NEVPT2, CIM, IAO-localization
   Andreas Hansen         : Spin unrestricted coupled pair/coupled cluster methods
   Benjamin Helmich-Paris : MC-RPA, TRAH-SCF, COSX integrals
   Lee Huntington         : MR-EOM, pCC
   Robert Izsak           : Overlap fitted RIJCOSX, COSX-SCS-MP3, EOM
   Marcus Kettner         : VPT2
   Christian Kollmar      : KDIIS, OOCD, Brueckner-CCSD(T), CCSD density, CASPT2, CASPT2-K
   Simone Kossmann        : Meta GGA functionals, TD-DFT gradient, OOMP2, MP2 Hessian
   Martin Krupicka        : Initial AUTO-CI
   Lucas Lang             : DCDCAS
   Marvin Lechner         : AUTO-CI (C++ implementation), FIC-MRCC
   Dagmar Lenk            : GEPOL surface, SMD
   Dimitrios Liakos       : Extrapolation schemes; Compound Job, initial MDCI parallelization
   Dimitrios Manganas     : Further ROCIS development; embedding schemes
   Dimitrios Pantazis     : SARC Basis sets
   Anastasios Papadopoulos: AUTO-CI, single reference methods and gradients
   Taras Petrenko         : DFT Hessian,TD-DFT gradient, ASA, ECA, R-Raman, ABS, FL, XAS/XES, NRVS
   Peter Pinski           : DLPNO-MP2, DLPNO-MP2 Gradient
   Christoph Reimann      : Effective Core Potentials
   Marius Retegan         : Local ZFS, SOC
   Christoph Riplinger    : Optimizer, TS searches, QM/MM, DLPNO-CCSD(T), (RO)-DLPNO pert. Triples
   Tobias Risthaus        : Range-separated hybrids, TD-DFT gradient, RPA, STAB
   Michael Roemelt        : Original ROCIS implementation
   Masaaki Saitow         : Open-shell DLPNO-CCSD energy and density
   Barbara Sandhoefer     : DKH picture change effects
   Avijit Sen             : IP-ROCIS
   Kantharuban Sivalingam : CASSCF convergence, NEVPT2, FIC-MRCI
   Bernardo de Souza      : ESD, SOC TD-DFT
   Georgi Stoychev        : AutoAux, RI-MP2 NMR, DLPNO-MP2 response
   Willem Van den Heuvel  : Paramagnetic NMR
   Boris Wezisla          : Elementary symmetry handling
   Frank Wennmohs         : Technical directorship


 We gratefully acknowledge several colleagues who have allowed us to
 interface, adapt or use parts of their codes:
   Stefan Grimme, W. Hujo, H. Kruse, P. Pracht,  : VdW corrections, initial TS optimization,
                  C. Bannwarth, S. Ehlert          DFT functionals, gCP, sTDA/sTD-DF
   Ed Valeev, F. Pavosevic, A. Kumar             : LibInt (2-el integral package), F12 methods
   Garnet Chan, S. Sharma, J. Yang, R. Olivares  : DMRG
   Ulf Ekstrom                                   : XCFun DFT Library
   Mihaly Kallay                                 : mrcc  (arbitrary order and MRCC methods)
   Jiri Pittner, Ondrej Demel                    : Mk-CCSD
   Frank Weinhold                                : gennbo (NPA and NBO analysis)
   Christopher J. Cramer and Donald G. Truhlar   : smd solvation model
   Lars Goerigk                                  : TD-DFT with DH, B97 family of functionals
   V. Asgeirsson, H. Jonsson                     : NEB implementation
   FAccTs GmbH                                   : IRC, NEB, NEB-TS, DLPNO-Multilevel, CI-OPT
                                                   MM, QMMM, 2- and 3-layer-ONIOM, Crystal-QMMM,
                                                   LR-CPCM, SF, NACMEs, symmetry and pop. for TD-DFT,
                                                   nearIR, NL-DFT gradient (VV10), updates on ESD,
                                                   ML-optimized integration grids
   S Lehtola, MJT Oliveira, MAL Marques          : LibXC Library
   Liviu Ungur et al                             : ANISO software


 Your calculation uses the libint2 library for the computation of 2-el integrals
 For citations please refer to: http://libint.valeyev.net

 Your ORCA version has been built with support for libXC version: 5.1.0
 For citations please refer to: https://tddft.org/programs/libxc/

 This ORCA versions uses:
   CBLAS   interface :  Fast vector & matrix operations
   LAPACKE interface :  Fast linear algebra routines
   SCALAPACK package :  Parallel linear algebra routines
   Shared memory     :  Shared parallel matrices
   BLAS/LAPACK       :  OpenBLAS 0.3.15  USE64BITINT DYNAMIC_ARCH NO_AFFINITY Prescott SINGLE_THREADED
        Core in use  :  Prescott
   Copyright (c) 2011-2014, The OpenBLAS Project


Your calculation utilizes the SMD solvation module
Please cite in your paper:
A.V. Marenich, C.J. Cramer, D.G. Truhlar J. Phys. Chem. B, 113, (2009), 6378 

================================================================================

----- Orbital basis set information -----
Your calculation utilizes the basis: def2-TZVP
   F. Weigend and R. Ahlrichs, Phys. Chem. Chem. Phys. 7, 3297 (2005).

----- AuxJ basis set information -----
Your calculation utilizes the auxiliary basis: def2/J
   F. Weigend, Phys. Chem. Chem. Phys. 8, 1057 (2006).

----- AuxC basis set information -----
Your calculation utilizes the auxiliary basis: def2-TZVP/C
  H-La, Hf-Rn : A. Hellweg, C. Hattig, S. Hofener and W. Klopper, Theor. Chem. Acc. 117, 587 (2007).
        Ce-Lu : J. Chmela and M. E. Harding, Mol. Phys. (2018).

================================================================================
                                        WARNINGS
                       Please study these warnings very carefully!
================================================================================

INFO   : Checking CIS options ...
  ===> : (D) CORRECTION FOUND - SETTING MODE=3
  ===> : JK MODE FOUND - ACTIVATING RI-MP2 CODE
  ===> : MP2 AND CIS FOUND - CHECKING
WARNING: CIS(D) and MP2 runs must have the same orbital window
  ===> : adjusting orbital windows

WARNING: No MP2 level density has been requested!
         To caclulate MP2 level properties use
         %mp2 Density relaxed end
         or
         %mp2 Density unrelaxed end
         Otherwise for double-hybrid DFT only the energy is correct!

WARNING: The frozen-core approximation is turned on by default for 
         the MP2 part of double-hybrid DFT.

WARNING: CIS/ROCIS methods need fully converged wavefunctions
  ===> : Setting SCFConvForced true
         You can overwrite this default with %scf ConvForced false 


INFO   : the flag for use of the SHARK integral package has been found!

================================================================================
                                       INPUT FILE
================================================================================
NAME = POZ_3_M06L_def2TZVP_coords.inp
|  1> %maxcore 20000
|  2> %pal
|  3>  nprocs= 4
|  4> end
|  5> ! RI-B2GP-PLYP   def2-TZVP def2/J def2-TZVP/C RIJCOSX CPCM TightSCF
|  6> %TDDFT  
|  7>    NROOTS   30
|  8>    dcorr 4
|  9>    TDA      FALSE
| 10> END
| 11> 
| 12> %CPCM
| 13>    SMD          TRUE
| 14>    SMDsolvent   "N,N-DIMETHYLACETAMIDE"
| 15> END
| 16>    
| 17> 
| 18> * xyz 0 1
| 19> C                  -1.77287600   -1.35290100    0.04927200
| 20> C                  -0.38655800   -1.33546100    0.05687600
| 21> C                   0.31713100   -0.13550500    0.01799500
| 22> C                  -0.42657000    1.05026400   -0.02028800
| 23> C                  -1.80223600    1.03245700   -0.02356400
| 24> C                  -2.51487900   -0.17444200    0.00877600
| 25> C                   1.55242600    2.33240000   -0.07729200
| 26> C                   2.33607700    1.17268300   -0.03649500
| 27> C                   3.72042600    1.31510000   -0.05766600
| 28> H                   4.34163800    0.42960600   -0.03043400
| 29> C                   4.30568100    2.57480400   -0.11330800
| 30> C                   3.51783900    3.71078700   -0.15074400
| 31> C                   2.13280100    3.58226600   -0.13349100
| 32> H                   0.16140500   -2.26725900    0.10139500
| 33> H                  -2.31851800    1.98254400   -0.07522300
| 34> H                   5.38485300    2.65502700   -0.12756000
| 35> N                   1.70692600   -0.07105400    0.01957700
| 36> C                   2.48271500   -1.27074200    0.04991400
| 37> C                   2.91959600   -1.77718600    1.26655200
| 38> C                   2.79262400   -1.92192700   -1.13659900
| 39> C                   3.67201600   -2.94187600    1.29384600
| 40> C                   3.54287700   -3.08775400   -1.10284700
| 41> H                   2.44196000   -1.51143200   -2.07565800
| 42> C                   3.98307700   -3.59737100    0.11078900
| 43> H                   3.78475800   -3.59804000   -2.02652800
| 44> H                   4.56955800   -4.50706000    0.13448500
| 45> H                   1.48616700    4.44991500   -0.16340800
| 46> H                  -2.27814100   -2.30859900    0.10115700
| 47> C                  -3.98532100   -0.18604700    0.00710000
| 48> C                  -4.72060700    0.88578800    0.52629200
| 49> C                  -4.69910300   -1.27190800   -0.51359100
| 50> C                  -6.10566800    0.87166200    0.52639000
| 51> H                  -4.19959600    1.73310000    0.95507400
| 52> C                  -6.08380400   -1.28632600   -0.51190300
| 53> H                  -4.16086900   -2.10705400   -0.94474000
| 54> C                  -6.79677700   -0.21450900    0.00781700
| 55> H                  -6.64843700    1.71203100    0.94169500
| 56> H                  -6.60963400   -2.13690300   -0.92821800
| 57> O                   0.18029500    2.28110200   -0.06225700
| 58> H                   3.96561100    4.69459300   -0.19412300
| 59> H                  -7.87940400   -0.22533900    0.00766700
| 60> H                   4.01447300   -3.33805600    2.24136100
| 61> H                   2.66800800   -1.25404800    2.18107200
| 62> *
| 63> 
| 64> 
| 65>                          ****END OF INPUT****
================================================================================

                       ****************************
                       * Single Point Calculation *
                       ****************************

---------------------------------
CARTESIAN COORDINATES (ANGSTROEM)
---------------------------------
  C     -1.772876   -1.352901    0.049272
  C     -0.386558   -1.335461    0.056876
  C      0.317131   -0.135505    0.017995
  C     -0.426570    1.050264   -0.020288
  C     -1.802236    1.032457   -0.023564
  C     -2.514879   -0.174442    0.008776
  C      1.552426    2.332400   -0.077292
  C      2.336077    1.172683   -0.036495
  C      3.720426    1.315100   -0.057666
  H      4.341638    0.429606   -0.030434
  C      4.305681    2.574804   -0.113308
  C      3.517839    3.710787   -0.150744
  C      2.132801    3.582266   -0.133491
  H      0.161405   -2.267259    0.101395
  H     -2.318518    1.982544   -0.075223
  H      5.384853    2.655027   -0.127560
  N      1.706926   -0.071054    0.019577
  C      2.482715   -1.270742    0.049914
  C      2.919596   -1.777186    1.266552
  C      2.792624   -1.921927   -1.136599
  C      3.672016   -2.941876    1.293846
  C      3.542877   -3.087754   -1.102847
  H      2.441960   -1.511432   -2.075658
  C      3.983077   -3.597371    0.110789
  H      3.784758   -3.598040   -2.026528
  H      4.569558   -4.507060    0.134485
  H      1.486167    4.449915   -0.163408
  H     -2.278141   -2.308599    0.101157
  C     -3.985321   -0.186047    0.007100
  C     -4.720607    0.885788    0.526292
  C     -4.699103   -1.271908   -0.513591
  C     -6.105668    0.871662    0.526390
  H     -4.199596    1.733100    0.955074
  C     -6.083804   -1.286326   -0.511903
  H     -4.160869   -2.107054   -0.944740
  C     -6.796777   -0.214509    0.007817
  H     -6.648437    1.712031    0.941695
  H     -6.609634   -2.136903   -0.928218
  O      0.180295    2.281102   -0.062257
  H      3.965611    4.694593   -0.194123
  H     -7.879404   -0.225339    0.007667
  H      4.014473   -3.338056    2.241361
  H      2.668008   -1.254048    2.181072

----------------------------
CARTESIAN COORDINATES (A.U.)
----------------------------
  NO LB      ZA    FRAG     MASS         X           Y           Z
   0 C     6.0000    0    12.011   -3.350250   -2.556612    0.093111
   1 C     6.0000    0    12.011   -0.730489   -2.523656    0.107480
   2 C     6.0000    0    12.011    0.599291   -0.256067    0.034006
   3 C     6.0000    0    12.011   -0.806100    1.984711   -0.038339
   4 C     6.0000    0    12.011   -3.405732    1.951061   -0.044530
   5 C     6.0000    0    12.011   -4.752433   -0.329648    0.016584
   6 C     6.0000    0    12.011    2.933660    4.407597   -0.146061
   7 C     6.0000    0    12.011    4.414546    2.216050   -0.068966
   8 C     6.0000    0    12.011    7.030586    2.485179   -0.108973
   9 H     1.0000    0     1.008    8.204507    0.811838   -0.057512
  10 C     6.0000    0    12.011    8.136558    4.865674   -0.214121
  11 C     6.0000    0    12.011    6.647752    7.012371   -0.284865
  12 C     6.0000    0    12.011    4.030410    6.769502   -0.252261
  13 H     1.0000    0     1.008    0.305011   -4.284499    0.191609
  14 H     1.0000    0     1.008   -4.381364    3.746465   -0.142151
  15 H     1.0000    0     1.008   10.175897    5.017274   -0.241053
  16 N     7.0000    0    14.007    3.225623   -0.134273    0.036995
  17 C     6.0000    0    12.011    4.691651   -2.401354    0.094324
  18 C     6.0000    0    12.011    5.517237   -3.358395    2.393436
  19 C     6.0000    0    12.011    5.277295   -3.631916   -2.147861
  20 C     6.0000    0    12.011    6.939105   -5.559340    2.445015
  21 C     6.0000    0    12.011    6.695067   -5.835009   -2.084079
  22 H     1.0000    0     1.008    4.614636   -2.856193   -3.922425
  23 C     6.0000    0    12.011    7.526925   -6.798046    0.209361
  24 H     1.0000    0     1.008    7.152156   -6.799310   -3.829583
  25 H     1.0000    0     1.008    8.635213   -8.517109    0.254140
  26 H     1.0000    0     1.008    2.808449    8.409121   -0.308796
  27 H     1.0000    0     1.008   -4.305063   -4.362620    0.191159
  28 C     6.0000    0    12.011   -7.531165   -0.351578    0.013417
  29 C     6.0000    0    12.011   -8.920654    1.673897    0.994548
  30 C     6.0000    0    12.011   -8.880018   -2.403558   -0.970546
  31 C     6.0000    0    12.011  -11.538040    1.647202    0.994733
  32 H     1.0000    0     1.008   -7.936086    3.275084    1.804828
  33 C     6.0000    0    12.011  -11.496723   -2.430804   -0.967356
  34 H     1.0000    0     1.008   -7.862903   -3.981755   -1.785300
  35 C     6.0000    0    12.011  -12.844047   -0.405363    0.014772
  36 H     1.0000    0     1.008  -12.563725    3.235270    1.779546
  37 H     1.0000    0     1.008  -12.490398   -4.038161   -1.754078
  38 O     8.0000    0    15.999    0.340708    4.310658   -0.117649
  39 H     1.0000    0     1.008    7.493919    8.871495   -0.366839
  40 H     1.0000    0     1.008  -14.889916   -0.425829    0.014489
  41 H     1.0000    0     1.008    7.586255   -6.308012    4.235558
  42 H     1.0000    0     1.008    5.041804   -2.369807    4.121629

--------------------------------
INTERNAL COORDINATES (ANGSTROEM)
--------------------------------
 C      0   0   0     0.000000000000     0.00000000     0.00000000
 C      1   0   0     1.386448546301     0.00000000     0.00000000
 C      2   1   0     1.391612138068   121.08507495     0.00000000
 C      3   2   1     1.400216014353   117.54247717     0.40037470
 C      4   3   2     1.375785144919   121.34508310   359.80582046
 C      1   2   3     1.393188426849   121.47070583   359.70144130
 C      4   3   2     2.358717309583    90.87989686   180.37253176
 C      7   4   3     1.400255978419    91.06870315   359.84986980
 C      8   7   4     1.391816427167   118.12881999   179.53500570
 H      9   8   7     1.082009960584   119.13863033   180.22220593
 C      9   8   7     1.390134387318   120.80247604     0.20862271
 C     11   9   8     1.382951137007   120.37073988   359.89875089
 C      7   4   3     1.379187618195   147.84957816   179.36065913
 H      2   1   3     1.081893203387   119.72446389   179.52281139
 H      5   4   3     1.082534555279   117.75115834   181.26777074
 H     11   9   8     1.082243528425   119.17704488   179.93620154
 N      3   2   1     1.391289537138   123.02701119   180.21380686
 C     17   3   2     1.428992723366   120.22798589     0.58211434
 C     18  17   3     1.388365426082   119.71460329   266.26472363
 C     18  17   3     1.388487879556   119.78609513    86.18986055
 C     19  18  17     1.386861065477   119.62412873   179.97844394
 C     20  18  17     1.386784538219   119.61815304   180.16068682
 H     20  18  17     1.083191207222   119.39586346     0.03152460
 C     21  19  18     1.387824378657   120.09790414   359.86882179
 H     22  20  18     1.082628657351   119.75857867   179.92197605
 H     24  21  19     1.082615139603   119.97597809   180.07296324
 H     13   7   4     1.082518057145   118.43190826     0.57638208
 H      1   2   3     1.082286210138   118.53206111   181.24003881
 C      6   1   2     1.470488748806   121.73114503   180.30224696
 C     29   6   1     1.399655708339   121.25517477   152.32132681
 C     29   6   1     1.399892128818   121.09194005   332.38169006
 C     30  29   6     1.385133035921   121.16622531   180.14012193
 H     30  29   6     1.083163926185   119.55058948   358.83403459
 C     31  29   6     1.384777089451   121.16325354   179.78451536
 H     31  29   6     1.083076239363   119.52425217   358.47743341
 C     32  30  29     1.387918242351   120.38946952     0.00000000
 H     32  30  29     1.083188112263   119.54938991   179.53961257
 H     34  31  29     1.083188165119   119.54633808   179.54902794
 O      4   3   2     1.372956192830   121.68546070   180.10285555
 H     12  11   9     1.081783595393   120.81754807   180.00084343
 H     36  32  30     1.082681177692   120.38457419   180.01815004
 H     21  19  18     1.082598755068   119.74707345   179.94480162
 H     19  18  17     1.083197451616   119.37937551   359.87762394

---------------------------
INTERNAL COORDINATES (A.U.)
---------------------------
 C      0   0   0     0.000000000000     0.00000000     0.00000000
 C      1   0   0     2.620008051282     0.00000000     0.00000000
 C      2   1   0     2.629765825589   121.08507495     0.00000000
 C      3   2   1     2.646024795458   117.54247717     0.40037470
 C      4   3   2     2.599857143015   121.34508310   359.80582046
 C      1   2   3     2.632744579693   121.47070583   359.70144130
 C      4   3   2     4.457329742452    90.87989686   180.37253176
 C      7   4   3     2.646100316598    91.06870315   359.84986980
 C      8   7   4     2.630151876038   118.12881999   179.53500570
 H      9   8   7     2.044702499680   119.13863033   180.22220593
 C      9   8   7     2.626973281378   120.80247604     0.20862271
 C     11   9   8     2.613398905538   120.37073988   359.89875089
 C      7   4   3     2.606286885683   147.84957816   179.36065913
 H      2   1   3     2.044481860551   119.72446389   179.52281139
 H      5   4   3     2.045693839984   117.75115834   181.26777074
 H     11   9   8     2.045143878931   119.17704488   179.93620154
 N      3   2   1     2.629156198181   123.02701119   180.21380686
 C     17   3   2     2.700404894529   120.22798589     0.58211434
 C     18  17   3     2.623630429101   119.71460329   266.26472363
 C     18  17   3     2.623861832631   119.78609513    86.18986055
 C     19  18  17     2.620787599550   119.62412873   179.97844394
 C     20  18  17     2.620642983989   119.61815304   180.16068682
 H     20  18  17     2.046934732320   119.39586346     0.03152460
 C     21  19  18     2.622607997641   120.09790414   359.86882179
 H     22  20  18     2.045871667129   119.75857867   179.92197605
 H     24  21  19     2.045846122287   119.97597809   180.07296324
 H     13   7   4     2.045662663029   118.43190826     0.57638208
 H      1   2   3     2.045224535680   118.53206111   181.24003881
 C      6   1   2     2.778821018256   121.73114503   180.30224696
 C     29   6   1     2.644965970540   121.25517477   152.32132681
 C     29   6   1     2.645412740498   121.09194005   332.38169006
 C     30  29   6     2.617522096938   121.16622531   180.14012193
 H     30  29   6     2.046883178633   119.55058948   358.83403459
 C     31  29   6     2.616849455591   121.16325354   179.78451536
 H     31  29   6     2.046717474554   119.52425217   358.47743341
 C     32  30  29     2.622785374317   120.38946952     0.00000000
 H     32  30  29     2.046928883695   119.54938991   179.53961257
 H     34  31  29     2.046928983580   119.54633808   179.54902794
 O      4   3   2     2.594511198320   121.68546070   180.10285555
 H     12  11   9     2.044274731461   120.81754807   180.00084343
 H     36  32  30     2.045970916190   120.38457419   180.01815004
 H     21  19  18     2.045815160002   119.74707345   179.94480162
 H     19  18  17     2.046946532516   119.37937551   359.87762394

---------------------
BASIS SET INFORMATION
---------------------
There are 4 groups of distinct atoms

 Group   1 Type C   : 11s6p2d1f contracted to 5s3p2d1f pattern {62111/411/11/1}
 Group   2 Type H   : 5s1p contracted to 3s1p pattern {311/1}
 Group   3 Type N   : 11s6p2d1f contracted to 5s3p2d1f pattern {62111/411/11/1}
 Group   4 Type O   : 11s6p2d1f contracted to 5s3p2d1f pattern {62111/411/11/1}

Atom   0C    basis set group =>   1
Atom   1C    basis set group =>   1
Atom   2C    basis set group =>   1
Atom   3C    basis set group =>   1
Atom   4C    basis set group =>   1
Atom   5C    basis set group =>   1
Atom   6C    basis set group =>   1
Atom   7C    basis set group =>   1
Atom   8C    basis set group =>   1
Atom   9H    basis set group =>   2
Atom  10C    basis set group =>   1
Atom  11C    basis set group =>   1
Atom  12C    basis set group =>   1
Atom  13H    basis set group =>   2
Atom  14H    basis set group =>   2
Atom  15H    basis set group =>   2
Atom  16N    basis set group =>   3
Atom  17C    basis set group =>   1
Atom  18C    basis set group =>   1
Atom  19C    basis set group =>   1
Atom  20C    basis set group =>   1
Atom  21C    basis set group =>   1
Atom  22H    basis set group =>   2
Atom  23C    basis set group =>   1
Atom  24H    basis set group =>   2
Atom  25H    basis set group =>   2
Atom  26H    basis set group =>   2
Atom  27H    basis set group =>   2
Atom  28C    basis set group =>   1
Atom  29C    basis set group =>   1
Atom  30C    basis set group =>   1
Atom  31C    basis set group =>   1
Atom  32H    basis set group =>   2
Atom  33C    basis set group =>   1
Atom  34H    basis set group =>   2
Atom  35C    basis set group =>   1
Atom  36H    basis set group =>   2
Atom  37H    basis set group =>   2
Atom  38O    basis set group =>   4
Atom  39H    basis set group =>   2
Atom  40H    basis set group =>   2
Atom  41H    basis set group =>   2
Atom  42H    basis set group =>   2
---------------------------------
AUXILIARY/J BASIS SET INFORMATION
---------------------------------
There are 4 groups of distinct atoms

 Group   1 Type C   : 12s5p4d2f1g contracted to 6s4p3d1f1g pattern {711111/2111/211/2/1}
 Group   2 Type H   : 5s2p1d contracted to 3s1p1d pattern {311/2/1}
 Group   3 Type N   : 12s5p4d2f1g contracted to 6s4p3d1f1g pattern {711111/2111/211/2/1}
 Group   4 Type O   : 12s5p4d2f1g contracted to 6s4p3d1f1g pattern {711111/2111/211/2/1}

Atom   0C    basis set group =>   1
Atom   1C    basis set group =>   1
Atom   2C    basis set group =>   1
Atom   3C    basis set group =>   1
Atom   4C    basis set group =>   1
Atom   5C    basis set group =>   1
Atom   6C    basis set group =>   1
Atom   7C    basis set group =>   1
Atom   8C    basis set group =>   1
Atom   9H    basis set group =>   2
Atom  10C    basis set group =>   1
Atom  11C    basis set group =>   1
Atom  12C    basis set group =>   1
Atom  13H    basis set group =>   2
Atom  14H    basis set group =>   2
Atom  15H    basis set group =>   2
Atom  16N    basis set group =>   3
Atom  17C    basis set group =>   1
Atom  18C    basis set group =>   1
Atom  19C    basis set group =>   1
Atom  20C    basis set group =>   1
Atom  21C    basis set group =>   1
Atom  22H    basis set group =>   2
Atom  23C    basis set group =>   1
Atom  24H    basis set group =>   2
Atom  25H    basis set group =>   2
Atom  26H    basis set group =>   2
Atom  27H    basis set group =>   2
Atom  28C    basis set group =>   1
Atom  29C    basis set group =>   1
Atom  30C    basis set group =>   1
Atom  31C    basis set group =>   1
Atom  32H    basis set group =>   2
Atom  33C    basis set group =>   1
Atom  34H    basis set group =>   2
Atom  35C    basis set group =>   1
Atom  36H    basis set group =>   2
Atom  37H    basis set group =>   2
Atom  38O    basis set group =>   4
Atom  39H    basis set group =>   2
Atom  40H    basis set group =>   2
Atom  41H    basis set group =>   2
Atom  42H    basis set group =>   2
---------------------------------
AUXILIARY/C BASIS SET INFORMATION
---------------------------------
There are 4 groups of distinct atoms

 Group   1 Type C   : 8s6p5d3f1g contracted to 8s6p4d3f1g pattern {11111111/111111/2111/111/1}
 Group   2 Type H   : 4s3p2d contracted to 4s2p1d pattern {1111/21/2}
 Group   3 Type N   : 8s6p5d3f1g contracted to 8s6p4d3f1g pattern {11111111/111111/2111/111/1}
 Group   4 Type O   : 8s6p5d3f1g contracted to 8s6p4d3f1g pattern {11111111/111111/2111/111/1}

Atom   0C    basis set group =>   1
Atom   1C    basis set group =>   1
Atom   2C    basis set group =>   1
Atom   3C    basis set group =>   1
Atom   4C    basis set group =>   1
Atom   5C    basis set group =>   1
Atom   6C    basis set group =>   1
Atom   7C    basis set group =>   1
Atom   8C    basis set group =>   1
Atom   9H    basis set group =>   2
Atom  10C    basis set group =>   1
Atom  11C    basis set group =>   1
Atom  12C    basis set group =>   1
Atom  13H    basis set group =>   2
Atom  14H    basis set group =>   2
Atom  15H    basis set group =>   2
Atom  16N    basis set group =>   3
Atom  17C    basis set group =>   1
Atom  18C    basis set group =>   1
Atom  19C    basis set group =>   1
Atom  20C    basis set group =>   1
Atom  21C    basis set group =>   1
Atom  22H    basis set group =>   2
Atom  23C    basis set group =>   1
Atom  24H    basis set group =>   2
Atom  25H    basis set group =>   2
Atom  26H    basis set group =>   2
Atom  27H    basis set group =>   2
Atom  28C    basis set group =>   1
Atom  29C    basis set group =>   1
Atom  30C    basis set group =>   1
Atom  31C    basis set group =>   1
Atom  32H    basis set group =>   2
Atom  33C    basis set group =>   1
Atom  34H    basis set group =>   2
Atom  35C    basis set group =>   1
Atom  36H    basis set group =>   2
Atom  37H    basis set group =>   2
Atom  38O    basis set group =>   4
Atom  39H    basis set group =>   2
Atom  40H    basis set group =>   2
Atom  41H    basis set group =>   2
Atom  42H    basis set group =>   2


           ************************************************************
           *        Program running with 4 parallel MPI-processes     *
           *              working on a common directory               *
           ************************************************************
------------------------------------------------------------------------------
                           ORCA GTO INTEGRAL CALCULATION
                           -- RI-GTO INTEGRALS CHOSEN --
------------------------------------------------------------------------------
------------------------------------------------------------------------------
                   ___                                                        
                  /   \      - P O W E R E D   B Y -                         
                 /     \                                                     
                 |  |  |   _    _      __       _____    __    __             
                 |  |  |  | |  | |    /  \     |  _  \  |  |  /  |          
                  \  \/   | |  | |   /    \    | | | |  |  | /  /          
                 / \  \   | |__| |  /  /\  \   | |_| |  |  |/  /          
                |  |  |   |  __  | /  /__\  \  |    /   |      \           
                |  |  |   | |  | | |   __   |  |    \   |  |\   \          
                \     /   | |  | | |  |  |  |  | |\  \  |  | \   \       
                 \___/    |_|  |_| |__|  |__|  |_| \__\ |__|  \__/        
                                                                              
                      - O R C A' S   B I G   F R I E N D -                    
                                      &                                       
                       - I N T E G R A L  F E E D E R -                       
                                                                              
 v1 FN, 2020, v2 2021                                                         
------------------------------------------------------------------------------


Reading SHARK input file POZ_3_M06L_def2TZVP_coords.SHARKINP.tmp ... ok
----------------------
SHARK INTEGRAL PACKAGE
----------------------

Number of atoms                             ...     43
Number of basis functions                   ...    908
Number of shells                            ...    354
Maximum angular momentum                    ...      3
Integral batch strategy                     ... SHARK/LIBINT Hybrid
RI-J (if used) integral strategy            ... SPLIT-RIJ (Revised 2003 algorithm where possible)
Printlevel                                  ...      1
Contraction scheme used                     ... SEGMENTED contraction
Coulomb Range Separation                    ... NOT USED
Exchange Range Separation                   ... NOT USED
Finite Nucleus Model                        ... NOT USED
Auxiliary Coulomb fitting basis             ... AVAILABLE
   # of basis functions in Aux-J            ...   1461
   # of shells in Aux-J                     ...    475
   Maximum angular momentum in Aux-J        ...      4
Auxiliary J/K fitting basis                 ... NOT available
Auxiliary Correlation fitting basis         ... AVAILABLE
   # of basis functions in Aux-C            ...   2231
   # of shells in Aux-C                     ...    691
   Maximum angular momentum in Aux-C        ...      4
Auxiliary 'external' fitting basis          ... NOT available
Integral threshold                          ...     2.500000e-11
Primitive cut-off                           ...     2.500000e-12
Primitive pair pre-selection threshold      ...     2.500000e-12

Calculating pre-screening integrals         ... done (  0.1 sec) Dimension = 354
Organizing shell pair data                  ... done (  0.6 sec)
Shell pair information
Total number of shell pairs                 ...     62835
Shell pairs after pre-screening             ...     40518
Total number of primitive shell pairs       ...    194376
Primitive shell pairs kept                  ...     82456
          la=0 lb=0:  10029 shell pairs
          la=1 lb=0:  11651 shell pairs
          la=1 lb=1:   3371 shell pairs
          la=2 lb=0:   5829 shell pairs
          la=2 lb=1:   3415 shell pairs
          la=2 lb=2:    870 shell pairs
          la=3 lb=0:   2725 shell pairs
          la=3 lb=1:   1625 shell pairs
          la=3 lb=2:    800 shell pairs
          la=3 lb=3:    203 shell pairs

Calculating one electron integrals          ... done (  0.1 sec)
Calculating RI/J V-Matrix + Cholesky decomp.... done (  0.1 sec)
Calculating RI/C V-Matrix + Cholesky decomp.... done (  0.3 sec)
Calculating Nuclear repulsion               ... done (  0.0 sec) ENN=   2066.278572560029 Eh

SHARK setup successfully completed in   1.7 seconds

Maximum memory used throughout the entire GTOINT-calculation: 81.8 MB


           ************************************************************
           *        Program running with 4 parallel MPI-processes     *
           *              working on a common directory               *
           ************************************************************
-------------------------------------------------------------------------------
                                 ORCA SCF
-------------------------------------------------------------------------------

------------
SCF SETTINGS
------------
Hamiltonian:
 Density Functional     Method          .... DFT(GTOs)
 Exchange Functional    Exchange        .... B88
   X-Alpha parameter    XAlpha          ....  0.666667
   Becke's b parameter  XBeta           ....  0.004200
 Correlation Functional Correlation     .... LYP
 LDA part of GGA corr.  LDAOpt          .... VWN-3
 Gradients option       PostSCFGGA      .... off
 Hybrid DFT is turned on
   Fraction HF Exchange ScalHFX         ....  0.650000
   Scaling of DF-GGA-X  ScalDFX         ....  0.350000
   Scaling of DF-GGA-C  ScalDFC         ....  0.640000
   Scaling of DF-LDA-C  ScalLDAC        ....  0.640000
   Perturbative correction              ....  0.360000
   Density functional embedding theory  .... OFF
 RI-approximation to the Coulomb term is turned on
   Number of AuxJ basis functions       .... 1461
   RIJ-COSX (HFX calculated with COS-X)).... on


General Settings:
 Integral files         IntName         .... POZ_3_M06L_def2TZVP_coords
 Hartree-Fock type      HFTyp           .... RHF
 Total Charge           Charge          ....    0
 Multiplicity           Mult            ....    1
 Number of Electrons    NEL             ....  176
 Basis Dimension        Dim             ....  908
 Nuclear Repulsion      ENuc            ....   2066.2785725600 Eh

Convergence Acceleration:
 DIIS                   CNVDIIS         .... on
   Start iteration      DIISMaxIt       ....    12
   Startup error        DIISStart       ....  0.200000
   # of expansion vecs  DIISMaxEq       ....     5
   Bias factor          DIISBfac        ....   1.050
   Max. coefficient     DIISMaxC        ....  10.000
 Trust-Rad. Augm. Hess. CNVTRAH         .... auto
   Auto Start mean grad. ratio tolernc. ....  1.125000
   Auto Start start iteration           ....    20
   Auto Start num. interpolation iter.  ....    10
   Max. Number of Micro iterations      ....    16
   Max. Number of Macro iterations      .... Maxiter - #DIIS iter
   Number of Davidson start vectors     ....     2
   Converg. threshold I  (grad. norm)   ....   1.000e-05
   Converg. threshold II (energy diff.) ....   1.000e-08
   Grad. Scal. Fac. for Micro threshold ....   0.100
   Minimum threshold for Micro iter.    ....   0.010
   NR start threshold (gradient norm)   ....   0.001
   Initial trust radius                 ....   0.400
   Minimum AH scaling param. (alpha)    ....   1.000
   Maximum AH scaling param. (alpha)    .... 1000.000
   Orbital update algorithm             .... Taylor
   White noise on init. David. guess    .... on
   Maximum white noise                  ....   0.010
   Quad. conv. algorithm                .... NR
 SOSCF                  CNVSOSCF        .... on
   Start iteration      SOSCFMaxIt      ....   150
   Startup grad/error   SOSCFStart      ....  0.003300
 Level Shifting         CNVShift        .... on
   Level shift para.    LevelShift      ....    0.2500
   Turn off err/grad.   ShiftErr        ....    0.0010
 Zerner damping         CNVZerner       .... off
 Static damping         CNVDamp         .... on
   Fraction old density DampFac         ....    0.7000
   Max. Damping (<1)    DampMax         ....    0.9800
   Min. Damping (>=0)   DampMin         ....    0.0000
   Turn off err/grad.   DampErr         ....    0.1000
 Fernandez-Rico         CNVRico         .... off

SCF Procedure:
 Maximum # iterations   MaxIter         ....   125
 SCF integral mode      SCFMode         .... Direct
   Integral package                     .... SHARK and LIBINT hybrid scheme
 Reset frequency        DirectResetFreq ....    20
 Integral Threshold     Thresh          ....  2.500e-11 Eh
 Primitive CutOff       TCut            ....  2.500e-12 Eh

Convergence Tolerance:
 Convergence Check Mode ConvCheckMode   .... Total+1el-Energy
 Convergence forced     ConvForced      .... 1
 Energy Change          TolE            ....  1.000e-08 Eh
 1-El. energy change                    ....  1.000e-05 Eh
 Orbital Gradient       TolG            ....  1.000e-05
 Orbital Rotation angle TolX            ....  1.000e-05
 DIIS Error             TolErr          ....  5.000e-07


Diagonalization of the overlap matrix:
Smallest eigenvalue                        ... 4.582e-06
Time for diagonalization                   ...    0.343 sec
Threshold for overlap eigenvalues          ... 1.000e-08
Number of eigenvalues below threshold      ... 0
Time for construction of square roots      ...    0.300 sec
Total time needed                          ...    0.647 sec

Time for model grid setup =    0.438 sec

------------------------------
INITIAL GUESS: MODEL POTENTIAL
------------------------------
Loading Hartree-Fock densities                     ... done
Calculating cut-offs                               ... done
Initializing the effective Hamiltonian             ... done
Setting up the integral package (SHARK)            ... done
Starting the Coulomb interaction                   ... done (   1.0 sec)
Reading the grid                                   ... done
Mapping shells                                     ... done
Starting the XC term evaluation                    ... done (   0.7 sec)
  promolecular density results
     # of electrons  =    175.986101783
     EX              =   -143.378145039
     EC              =     -0.679044323
     EX+EC           =   -144.057189362
Transforming the Hamiltonian                       ... done (   0.3 sec)
Diagonalizing the Hamiltonian                      ... done (   0.3 sec)
Back transforming the eigenvectors                 ... done (   0.1 sec)
Now organizing SCF variables                       ... done
                      ------------------
                      INITIAL GUESS DONE (   2.9 sec)
                      ------------------
-------------------
DFT GRID GENERATION
-------------------

General Integration Accuracy     IntAcc      ... 4.388
Radial Grid Type                 RadialGrid  ... OptM3 with GC (2021)
Angular Grid (max. ang.)         AngularGrid ... 4 (Lebedev-302)
Angular grid pruning method      GridPruning ... 4 (adaptive)
Weight generation scheme         WeightScheme... Becke
Basis function cutoff            BFCut       ... 1.0000e-11
Integration weight cutoff        WCut        ... 1.0000e-14
Angular grids for H and He will be reduced by one unit
Partially contracted basis set               ... off
Rotationally invariant grid construction     ... off

Total number of grid points                  ...   209055
Total number of batches                      ...     3292
Average number of points per batch           ...       63
Average number of grid points per atom       ...     4862
Time for grid setup =    1.743 sec

--------------------
COSX GRID GENERATION
--------------------

GRIDX 1
-------
General Integration Accuracy     IntAcc      ... 3.816
Radial Grid Type                 RadialGrid  ... OptM3 with GC (2021)
Angular Grid (max. ang.)         AngularGrid ... 1 (Lebedev-50)
Angular grid pruning method      GridPruning ... 4 (adaptive)
Weight generation scheme         WeightScheme... Becke
Basis function cutoff            BFCut       ... 1.0000e-11
Integration weight cutoff        WCut        ... 1.0000e-14
Angular grids for H and He will be reduced by one unit
Partially contracted basis set               ... on
Rotationally invariant grid construction     ... off

Total number of grid points                  ...    26580
Total number of batches                      ...      432
Average number of points per batch           ...       61
Average number of grid points per atom       ...      618
UseSFitting                                  ... on

GRIDX 2
-------
General Integration Accuracy     IntAcc      ... 4.020
Radial Grid Type                 RadialGrid  ... OptM3 with GC (2021)
Angular Grid (max. ang.)         AngularGrid ... 2 (Lebedev-110)
Angular grid pruning method      GridPruning ... 4 (adaptive)
Weight generation scheme         WeightScheme... Becke
Basis function cutoff            BFCut       ... 1.0000e-11
Integration weight cutoff        WCut        ... 1.0000e-14
Angular grids for H and He will be reduced by one unit
Partially contracted basis set               ... on
Rotationally invariant grid construction     ... off

Total number of grid points                  ...    57941
Total number of batches                      ...      927
Average number of points per batch           ...       62
Average number of grid points per atom       ...     1347
UseSFitting                                  ... on

GRIDX 3
-------
General Integration Accuracy     IntAcc      ... 4.338
Radial Grid Type                 RadialGrid  ... OptM3 with GC (2021)
Angular Grid (max. ang.)         AngularGrid ... 3 (Lebedev-194)
Angular grid pruning method      GridPruning ... 4 (adaptive)
Weight generation scheme         WeightScheme... Becke
Basis function cutoff            BFCut       ... 1.0000e-11
Integration weight cutoff        WCut        ... 1.0000e-14
Angular grids for H and He will be reduced by one unit
Partially contracted basis set               ... on
Rotationally invariant grid construction     ... off

Total number of grid points                  ...   126986
Total number of batches                      ...     2006
Average number of points per batch           ...       63
Average number of grid points per atom       ...     2953
UseSFitting                                  ... on

Time for X-Grid setup             =    4.063 sec


--------------------
CPCM SOLVATION MODEL
--------------------
CPCM parameters:
  Epsilon                                         ...      37.7810
  Refrac                                          ...       1.4380
  Rsolv                                           ...       1.3000
  Surface type                                    ... GAUSSIAN VDW
  Epsilon function type                           ...         CPCM
Solvent:                                     ... N,N-DIMETHYLACETAMIDE
SMD-CDS solvent descriptors:
  Soln                                       ...    1.4380
  Soln25                                     ...    1.4358
  Sola                                       ...    0.0000
  Solb                                       ...    0.7800
  Solg                                       ...   47.6200
  Solc                                       ...    0.0000
  Solh                                       ...    0.0000
Radii:
 Radius for C  used is    3.4960 Bohr (=   1.8500 Ang.)
 Radius for H  used is    2.2677 Bohr (=   1.2000 Ang.)
 Radius for N  used is    3.5716 Bohr (=   1.8900 Ang.)
 Radius for O  used is    4.3350 Bohr (=   2.2940 Ang.)
Calculating surface                               ...        done! (  0.0s)
GEPOL surface points                              ...         2356
GEPOL Volume                                      ...    2350.6460
GEPOL Surface-area                                ...    1255.2586
Calculating surface distance matrix               ...        done! (  0.0s)
Performing Cholesky decomposition & store         ...        done! (  0.2s)
Overall time for CPCM initialization              ...                 0.3s
--------------
SCF ITERATIONS
--------------
ITER       Energy         Delta-E        Max-DP      RMS-DP      [F,P]     Damp
               ***  Starting incremental Fock matrix formation  ***
  0  -1051.6239950136   0.000000000000 0.03115071  0.00054807  0.1596154 0.7000
  1  -1051.8845868963  -0.260591882723 0.04017670  0.00047343  0.1022707 0.7000
                               ***Turning on DIIS***
  2  -1052.0330993445  -0.148512448259 0.11129449  0.00111592  0.0588237 0.0000
  3  -1052.2977733630  -0.264674018428 0.02165717  0.00024668  0.0369424 0.0000
  4  -1052.3237739301  -0.026000567155 0.01319516  0.00012256  0.0080919 0.0000
                      *** Initiating the SOSCF procedure ***
                           *** Shutting down DIIS ***
                      *** Re-Reading the Fockian *** 
                      *** Removing any level shift *** 
ITER      Energy       Delta-E        Grad      Rot      Max-DP    RMS-DP
  5  -1052.32469460  -0.0009206707  0.001101  0.001101  0.003009  0.000042
               *** Restarting incremental Fock matrix formation ***
  6  -1052.32470340  -0.0000088038  0.001084  0.003752  0.014998  0.000182
  7  -1052.32475844  -0.0000550376  0.000268  0.002482  0.005898  0.000073
  8  -1052.32476911  -0.0000106630  0.000176  0.000303  0.005003  0.000060
  9  -1052.32477283  -0.0000037209  0.000043  0.000129  0.000911  0.000011
 10  -1052.32477309  -0.0000002591  0.000029  0.000085  0.000349  0.000004
 11  -1052.32477315  -0.0000000690  0.000007  0.000038  0.000305  0.000003
 12  -1052.32477314   0.0000000109  0.000003  0.000009  0.000070  0.000001
                  ***Gradient check signals convergence***
              ***Rediagonalizing the Fockian in SOSCF/NRSCF***

               *****************************************************
               *                     SUCCESS                       *
               *           SCF CONVERGED AFTER  13 CYCLES          *
               *****************************************************

Old exchange energy                            =    -94.732329600 Eh
New exchange energy                            =    -94.732194612 Eh
Exchange energy change after final integration =      0.000134988 Eh
Total energy after final integration           =  -1052.324638228 Eh
Final COS-X integration done in                =    66.149 sec

SMD CDS free energy correction energy :                -4.29799     Kcal/mol
Total Energy after SMD CDS correction =             -1052.331487508 Eh

----------------
TOTAL SCF ENERGY
----------------

Total Energy       :        -1052.33148751 Eh          -28635.39557 eV

Components:
Nuclear Repulsion  :         2066.27857256 Eh           56226.29845 eV
Electronic Energy  :        -3118.61006007 Eh          -84861.69402 eV
One Electron Energy:        -5532.69358400 Eh         -150552.24635 eV
Two Electron Energy:         2414.08352393 Eh           65690.55233 eV
Max COSX asymmetry :            0.00000647 Eh               0.00018 eV
CPCM Dielectric    :           -0.02158879 Eh              -0.58746 eV
SMD CDS (Gcds)     :           -0.00684928 Eh              -0.18638 eV

Virial components:
Potential Energy   :        -2101.43474474 Eh          -57182.94653 eV
Kinetic Energy     :         1049.10325723 Eh           28547.55096 eV
Virial Ratio       :            2.00307713


DFT components:
N(Alpha)           :       87.999987634415 electrons
N(Beta)            :       87.999987634415 electrons
N(Total)           :      175.999975268829 electrons
E(X)               :      -51.087835459657 Eh       
E(C)               :       -3.845206786312 Eh       
E(XC)              :      -54.933042245969 Eh       
DFET-embed. en.    :        0.000000000000 Eh       
CPCM Solvation Model Properties:
Surface-charge          :           -0.06944456
Charge-correction       :            0.00030475 Eh               0.00829 eV
Free-energy (cav+disp)  :           -0.00684928 Eh              -0.18638 eV

---------------
SCF CONVERGENCE
---------------

  Last Energy change         ...   -7.2493e-08  Tolerance :   1.0000e-08
  Last MAX-Density change    ...    1.6653e-15  Tolerance :   1.0000e-07
  Last RMS-Density change    ...    1.2477e-17  Tolerance :   5.0000e-09
  Last Orbital Gradient      ...    8.5487e-07  Tolerance :   1.0000e-05
  Last Orbital Rotation      ...    2.6289e-06  Tolerance :   1.0000e-05

             **** THE GBW FILE WAS UPDATED (POZ_3_M06L_def2TZVP_coords.gbw) ****
             **** DENSITY POZ_3_M06L_def2TZVP_coords.scfp WAS UPDATED ****
             **** ENERGY FILE WAS UPDATED (POZ_3_M06L_def2TZVP_coords.en.tmp) ****
             **** THE GBW FILE WAS UPDATED (POZ_3_M06L_def2TZVP_coords.gbw) ****
             **** DENSITY POZ_3_M06L_def2TZVP_coords.scfp WAS UPDATED ****
----------------
ORBITAL ENERGIES
----------------

  NO   OCC          E(Eh)            E(eV) 
   0   2.0000     -19.987485      -543.8871 
   1   2.0000     -15.061822      -409.8530 
   2   2.0000     -10.845324      -295.1163 
   3   2.0000     -10.844588      -295.0962 
   4   2.0000     -10.831599      -294.7428 
   5   2.0000     -10.831447      -294.7387 
   6   2.0000     -10.819022      -294.4006 
   7   2.0000     -10.788961      -293.5826 
   8   2.0000     -10.785810      -293.4968 
   9   2.0000     -10.780646      -293.3563 
  10   2.0000     -10.780605      -293.3552 
  11   2.0000     -10.779805      -293.3334 
  12   2.0000     -10.779245      -293.3182 
  13   2.0000     -10.778550      -293.2992 
  14   2.0000     -10.777610      -293.2737 
  15   2.0000     -10.777120      -293.2603 
  16   2.0000     -10.776723      -293.2495 
  17   2.0000     -10.776110      -293.2329 
  18   2.0000     -10.774770      -293.1964 
  19   2.0000     -10.774732      -293.1954 
  20   2.0000     -10.774569      -293.1909 
  21   2.0000     -10.773953      -293.1742 
  22   2.0000     -10.773392      -293.1589 
  23   2.0000     -10.773301      -293.1564 
  24   2.0000     -10.772365      -293.1309 
  25   2.0000     -10.771729      -293.1136 
  26   2.0000      -1.294815       -35.2337 
  27   2.0000      -1.162721       -31.6393 
  28   2.0000      -1.051717       -28.6187 
  29   2.0000      -1.036416       -28.2023 
  30   2.0000      -1.030977       -28.0543 
  31   2.0000      -1.008142       -27.4329 
  32   2.0000      -0.942438       -25.6450 
  33   2.0000      -0.928665       -25.2703 
  34   2.0000      -0.919279       -25.0149 
  35   2.0000      -0.909375       -24.7454 
  36   2.0000      -0.902984       -24.5714 
  37   2.0000      -0.896679       -24.3999 
  38   2.0000      -0.885333       -24.0911 
  39   2.0000      -0.849278       -23.1100 
  40   2.0000      -0.786819       -21.4104 
  41   2.0000      -0.784195       -21.3390 
  42   2.0000      -0.745568       -20.2879 
  43   2.0000      -0.744011       -20.2456 
  44   2.0000      -0.734481       -19.9862 
  45   2.0000      -0.719311       -19.5734 
  46   2.0000      -0.715613       -19.4728 
  47   2.0000      -0.688679       -18.7399 
  48   2.0000      -0.678414       -18.4606 
  49   2.0000      -0.648136       -17.6367 
  50   2.0000      -0.627396       -17.0723 
  51   2.0000      -0.613052       -16.6820 
  52   2.0000      -0.605459       -16.4754 
  53   2.0000      -0.585416       -15.9300 
  54   2.0000      -0.583313       -15.8728 
  55   2.0000      -0.578013       -15.7285 
  56   2.0000      -0.568419       -15.4675 
  57   2.0000      -0.561122       -15.2689 
  58   2.0000      -0.553707       -15.0671 
  59   2.0000      -0.544389       -14.8136 
  60   2.0000      -0.537921       -14.6376 
  61   2.0000      -0.533294       -14.5117 
  62   2.0000      -0.531586       -14.4652 
  63   2.0000      -0.528429       -14.3793 
  64   2.0000      -0.522471       -14.2172 
  65   2.0000      -0.513402       -13.9704 
  66   2.0000      -0.494457       -13.4548 
  67   2.0000      -0.478599       -13.0233 
  68   2.0000      -0.477153       -12.9840 
  69   2.0000      -0.472240       -12.8503 
  70   2.0000      -0.460122       -12.5205 
  71   2.0000      -0.458649       -12.4805 
  72   2.0000      -0.454818       -12.3762 
  73   2.0000      -0.453337       -12.3359 
  74   2.0000      -0.446471       -12.1491 
  75   2.0000      -0.435745       -11.8572 
  76   2.0000      -0.432695       -11.7742 
  77   2.0000      -0.425843       -11.5878 
  78   2.0000      -0.417637       -11.3645 
  79   2.0000      -0.404161       -10.9978 
  80   2.0000      -0.339408        -9.2357 
  81   2.0000      -0.323108        -8.7922 
  82   2.0000      -0.313318        -8.5258 
  83   2.0000      -0.311848        -8.4858 
  84   2.0000      -0.308806        -8.4030 
  85   2.0000      -0.295481        -8.0404 
  86   2.0000      -0.282093        -7.6761 
  87   2.0000      -0.225458        -6.1350 
  88   0.0000       0.026381         0.7179 
  89   0.0000       0.045136         1.2282 
  90   0.0000       0.052985         1.4418 
  91   0.0000       0.056292         1.5318 
  92   0.0000       0.064245         1.7482 
  93   0.0000       0.073469         1.9992 
  94   0.0000       0.077260         2.1023 
  95   0.0000       0.109892         2.9903 
  96   0.0000       0.118188         3.2161 
  97   0.0000       0.119363         3.2480 
  98   0.0000       0.120698         3.2844 
  99   0.0000       0.128093         3.4856 
 100   0.0000       0.131488         3.5780 
 101   0.0000       0.138431         3.7669 
 102   0.0000       0.142398         3.8749 
 103   0.0000       0.144260         3.9255 
 104   0.0000       0.156272         4.2524 
 105   0.0000       0.160569         4.3693 
 106   0.0000       0.164582         4.4785 
 107   0.0000       0.172874         4.7041 
 108   0.0000       0.173509         4.7214 
 109   0.0000       0.174626         4.7518 
 110   0.0000       0.178765         4.8644 
 111   0.0000       0.182979         4.9791 
 112   0.0000       0.186711         5.0807 
 113   0.0000       0.189884         5.1670 
 114   0.0000       0.198711         5.4072 
 115   0.0000       0.211824         5.7640 
 116   0.0000       0.218462         5.9447 
 117   0.0000       0.227773         6.1980 
 118   0.0000       0.238840         6.4992 
 119   0.0000       0.242477         6.5981 
 120   0.0000       0.245303         6.6750 
 121   0.0000       0.247274         6.7287 
 122   0.0000       0.253955         6.9105 
 123   0.0000       0.256512         6.9800 
 124   0.0000       0.262412         7.1406 
 125   0.0000       0.266915         7.2631 
 126   0.0000       0.268837         7.3154 
 127   0.0000       0.271551         7.3893 
 128   0.0000       0.275878         7.5070 
 129   0.0000       0.279522         7.6062 
 130   0.0000       0.281741         7.6666 
 131   0.0000       0.284904         7.7526 
 132   0.0000       0.286180         7.7874 
 133   0.0000       0.288315         7.8454 
 134   0.0000       0.290116         7.8945 
 135   0.0000       0.291986         7.9453 
 136   0.0000       0.303731         8.2649 
 137   0.0000       0.305045         8.3007 
 138   0.0000       0.306717         8.3462 
 139   0.0000       0.309957         8.4344 
 140   0.0000       0.313957         8.5432 
 141   0.0000       0.316596         8.6150 
 142   0.0000       0.318332         8.6623 
 143   0.0000       0.319844         8.7034 
 144   0.0000       0.329907         8.9772 
 145   0.0000       0.339821         9.2470 
 146   0.0000       0.344231         9.3670 
 147   0.0000       0.346128         9.4186 
 148   0.0000       0.347113         9.4454 
 149   0.0000       0.355117         9.6632 
 150   0.0000       0.358184         9.7467 
 151   0.0000       0.358485         9.7549 
 152   0.0000       0.363356         9.8874 
 153   0.0000       0.365295         9.9402 
 154   0.0000       0.374755        10.1976 
 155   0.0000       0.375752        10.2247 
 156   0.0000       0.386531        10.5180 
 157   0.0000       0.392175        10.6716 
 158   0.0000       0.393019        10.6946 
 159   0.0000       0.398230        10.8364 
 160   0.0000       0.403524        10.9804 
 161   0.0000       0.407521        11.0892 
 162   0.0000       0.415620        11.3096 
 163   0.0000       0.420586        11.4447 
 164   0.0000       0.421710        11.4753 
 165   0.0000       0.424280        11.5453 
 166   0.0000       0.427720        11.6388 
 167   0.0000       0.431749        11.7485 
 168   0.0000       0.433957        11.8086 
 169   0.0000       0.438022        11.9192 
 170   0.0000       0.443477        12.0676 
 171   0.0000       0.446350        12.1458 
 172   0.0000       0.451140        12.2761 
 173   0.0000       0.457923        12.4607 
 174   0.0000       0.464161        12.6305 
 175   0.0000       0.465900        12.6778 
 176   0.0000       0.469021        12.7627 
 177   0.0000       0.473290        12.8789 
 178   0.0000       0.476308        12.9610 
 179   0.0000       0.479470        13.0470 
 180   0.0000       0.481310        13.0971 
 181   0.0000       0.488404        13.2902 
 182   0.0000       0.491025        13.3615 
 183   0.0000       0.491465        13.3734 
 184   0.0000       0.498408        13.5624 
 185   0.0000       0.500084        13.6080 
 186   0.0000       0.501383        13.6433 
 187   0.0000       0.505232        13.7481 
 188   0.0000       0.508410        13.8345 
 189   0.0000       0.513266        13.9667 
 190   0.0000       0.516568        14.0565 
 191   0.0000       0.519423        14.1342 
 192   0.0000       0.521851        14.2003 
 193   0.0000       0.524792        14.2803 
 194   0.0000       0.529093        14.3973 
 195   0.0000       0.536478        14.5983 
 196   0.0000       0.540346        14.7036 
 197   0.0000       0.544377        14.8132 
 198   0.0000       0.547434        14.8964 
 199   0.0000       0.552413        15.0319 
 200   0.0000       0.556951        15.1554 
 201   0.0000       0.557489        15.1700 
 202   0.0000       0.559316        15.2198 
 203   0.0000       0.566190        15.4068 
 204   0.0000       0.569131        15.4868 
 205   0.0000       0.575665        15.6646 
 206   0.0000       0.581465        15.8225 
 207   0.0000       0.586614        15.9626 
 208   0.0000       0.587601        15.9894 
 209   0.0000       0.592291        16.1171 
 210   0.0000       0.595465        16.2034 
 211   0.0000       0.599236        16.3060 
 212   0.0000       0.599894        16.3240 
 213   0.0000       0.607997        16.5444 
 214   0.0000       0.613976        16.7071 
 215   0.0000       0.621271        16.9056 
 216   0.0000       0.623967        16.9790 
 217   0.0000       0.627898        17.0860 
 218   0.0000       0.635848        17.3023 
 219   0.0000       0.645533        17.5659 
 220   0.0000       0.652157        17.7461 
 221   0.0000       0.658527        17.9194 
 222   0.0000       0.662627        18.0310 
 223   0.0000       0.668676        18.1956 
 224   0.0000       0.674160        18.3448 
 225   0.0000       0.681216        18.5368 
 226   0.0000       0.690303        18.7841 
 227   0.0000       0.698338        19.0027 
 228   0.0000       0.707139        19.2422 
 229   0.0000       0.715339        19.4654 
 230   0.0000       0.722311        19.6551 
 231   0.0000       0.733080        19.9481 
 232   0.0000       0.737651        20.0725 
 233   0.0000       0.741913        20.1885 
 234   0.0000       0.746849        20.3228 
 235   0.0000       0.751009        20.4360 
 236   0.0000       0.753825        20.5126 
 237   0.0000       0.758517        20.6403 
 238   0.0000       0.762024        20.7357 
 239   0.0000       0.766263        20.8511 
 240   0.0000       0.771384        20.9904 
 241   0.0000       0.780869        21.2485 
 242   0.0000       0.785455        21.3733 
 243   0.0000       0.795564        21.6484 
 244   0.0000       0.800669        21.7873 
 245   0.0000       0.804352        21.8875 
 246   0.0000       0.810096        22.0438 
 247   0.0000       0.813907        22.1475 
 248   0.0000       0.816695        22.2234 
 249   0.0000       0.818921        22.2840 
 250   0.0000       0.825137        22.4531 
 251   0.0000       0.827334        22.5129 
 252   0.0000       0.829775        22.5793 
 253   0.0000       0.833892        22.6914 
 254   0.0000       0.835508        22.7353 
 255   0.0000       0.839712        22.8497 
 256   0.0000       0.848247        23.0820 
 257   0.0000       0.850639        23.1471 
 258   0.0000       0.852463        23.1967 
 259   0.0000       0.854503        23.2522 
 260   0.0000       0.855714        23.2852 
 261   0.0000       0.862128        23.4597 
 262   0.0000       0.865280        23.5455 
 263   0.0000       0.870758        23.6945 
 264   0.0000       0.875124        23.8133 
 265   0.0000       0.884074        24.0569 
 266   0.0000       0.889879        24.2148 
 267   0.0000       0.894720        24.3466 
 268   0.0000       0.901789        24.5389 
 269   0.0000       0.905834        24.6490 
 270   0.0000       0.909860        24.7585 
 271   0.0000       0.915019        24.8989 
 272   0.0000       0.923531        25.1306 
 273   0.0000       0.930827        25.3291 
 274   0.0000       0.932224        25.3671 
 275   0.0000       0.941509        25.6198 
 276   0.0000       0.946987        25.7688 
 277   0.0000       0.956031        26.0149 
 278   0.0000       0.963114        26.2077 
 279   0.0000       0.971600        26.4386 
 280   0.0000       0.975859        26.5545 
 281   0.0000       0.981944        26.7201 
 282   0.0000       0.984671        26.7943 
 283   0.0000       0.985653        26.8210 
 284   0.0000       0.991217        26.9724 
 285   0.0000       0.996299        27.1107 
 286   0.0000       1.001999        27.2658 
 287   0.0000       1.004157        27.3245 
 288   0.0000       1.009442        27.4683 
 289   0.0000       1.016379        27.6571 
 290   0.0000       1.024012        27.8648 
 291   0.0000       1.028589        27.9893 
 292   0.0000       1.036229        28.1972 
 293   0.0000       1.039758        28.2933 
 294   0.0000       1.048808        28.5395 
 295   0.0000       1.052508        28.6402 
 296   0.0000       1.060476        28.8570 
 297   0.0000       1.064848        28.9760 
 298   0.0000       1.075359        29.2620 
 299   0.0000       1.088056        29.6075 
 300   0.0000       1.090600        29.6767 
 301   0.0000       1.098089        29.8805 
 302   0.0000       1.116171        30.3726 
 303   0.0000       1.120695        30.4957 
 304   0.0000       1.123116        30.5615 
 305   0.0000       1.133502        30.8442 
 306   0.0000       1.140998        31.0481 
 307   0.0000       1.152748        31.3679 
 308   0.0000       1.158044        31.5120 
 309   0.0000       1.159894        31.5623 
 310   0.0000       1.165221        31.7073 
 311   0.0000       1.168883        31.8069 
 312   0.0000       1.184443        32.2303 
 313   0.0000       1.196720        32.5644 
 314   0.0000       1.203324        32.7441 
 315   0.0000       1.215490        33.0752 
 316   0.0000       1.220242        33.2045 
 317   0.0000       1.228116        33.4187 
 318   0.0000       1.240818        33.7644 
 319   0.0000       1.250470        34.0270 
 320   0.0000       1.254867        34.1467 
 321   0.0000       1.258998        34.2591 
 322   0.0000       1.264936        34.4207 
 323   0.0000       1.271056        34.5872 
 324   0.0000       1.278455        34.7885 
 325   0.0000       1.285662        34.9846 
 326   0.0000       1.297204        35.2987 
 327   0.0000       1.300400        35.3857 
 328   0.0000       1.302796        35.4509 
 329   0.0000       1.311799        35.6959 
 330   0.0000       1.328971        36.1631 
 331   0.0000       1.333476        36.2857 
 332   0.0000       1.338943        36.4345 
 333   0.0000       1.340858        36.4866 
 334   0.0000       1.343742        36.5651 
 335   0.0000       1.355734        36.8914 
 336   0.0000       1.365472        37.1564 
 337   0.0000       1.368304        37.2335 
 338   0.0000       1.372245        37.3407 
 339   0.0000       1.374175        37.3932 
 340   0.0000       1.380734        37.5717 
 341   0.0000       1.381779        37.6001 
 342   0.0000       1.393820        37.9278 
 343   0.0000       1.397475        38.0272 
 344   0.0000       1.402828        38.1729 
 345   0.0000       1.406092        38.2617 
 346   0.0000       1.415370        38.5142 
 347   0.0000       1.422042        38.6957 
 348   0.0000       1.427955        38.8566 
 349   0.0000       1.437557        39.1179 
 350   0.0000       1.442255        39.2458 
 351   0.0000       1.456526        39.6341 
 352   0.0000       1.462704        39.8022 
 353   0.0000       1.467896        39.9435 
 354   0.0000       1.471724        40.0477 
 355   0.0000       1.476213        40.1698 
 356   0.0000       1.482585        40.3432 
 357   0.0000       1.490331        40.5540 
 358   0.0000       1.500262        40.8242 
 359   0.0000       1.513884        41.1949 
 360   0.0000       1.523634        41.4602 
 361   0.0000       1.540286        41.9133 
 362   0.0000       1.551184        42.2099 
 363   0.0000       1.556789        42.3624 
 364   0.0000       1.559607        42.4391 
 365   0.0000       1.566813        42.6352 
 366   0.0000       1.576924        42.9103 
 367   0.0000       1.579835        42.9895 
 368   0.0000       1.591934        43.3187 
 369   0.0000       1.594637        43.3923 
 370   0.0000       1.605544        43.6891 
 371   0.0000       1.608958        43.7820 
 372   0.0000       1.610926        43.8355 
 373   0.0000       1.618784        44.0494 
 374   0.0000       1.620305        44.0907 
 375   0.0000       1.629700        44.3464 
 376   0.0000       1.632265        44.4162 
 377   0.0000       1.639711        44.6188 
 378   0.0000       1.650581        44.9146 
 379   0.0000       1.653505        44.9942 
 380   0.0000       1.662836        45.2481 
 381   0.0000       1.663694        45.2714 
 382   0.0000       1.668178        45.3934 
 383   0.0000       1.674671        45.5701 
 384   0.0000       1.679882        45.7119 
 385   0.0000       1.684108        45.8269 
 386   0.0000       1.688134        45.9365 
 387   0.0000       1.696790        46.1720 
 388   0.0000       1.705773        46.4164 
 389   0.0000       1.715124        46.6709 
 390   0.0000       1.717439        46.7339 
 391   0.0000       1.724149        46.9165 
 392   0.0000       1.731028        47.1037 
 393   0.0000       1.740702        47.3669 
 394   0.0000       1.745404        47.4949 
 395   0.0000       1.751935        47.6726 
 396   0.0000       1.754255        47.7357 
 397   0.0000       1.760473        47.9049 
 398   0.0000       1.769887        48.1611 
 399   0.0000       1.784685        48.5638 
 400   0.0000       1.791579        48.7513 
 401   0.0000       1.800945        49.0062 
 402   0.0000       1.810636        49.2699 
 403   0.0000       1.813696        49.3532 
 404   0.0000       1.821662        49.5700 
 405   0.0000       1.826537        49.7026 
 406   0.0000       1.828271        49.7498 
 407   0.0000       1.833259        49.8855 
 408   0.0000       1.840687        50.0876 
 409   0.0000       1.845187        50.2101 
 410   0.0000       1.850432        50.3528 
 411   0.0000       1.857129        50.5350 
 412   0.0000       1.864008        50.7222 
 413   0.0000       1.865627        50.7663 
 414   0.0000       1.870020        50.8858 
 415   0.0000       1.875812        51.0434 
 416   0.0000       1.880508        51.1712 
 417   0.0000       1.886673        51.3390 
 418   0.0000       1.889531        51.4168 
 419   0.0000       1.895520        51.5797 
 420   0.0000       1.897523        51.6342 
 421   0.0000       1.899148        51.6784 
 422   0.0000       1.904983        51.8372 
 423   0.0000       1.908650        51.9370 
 424   0.0000       1.915398        52.1206 
 425   0.0000       1.931877        52.5691 
 426   0.0000       1.935010        52.6543 
 427   0.0000       1.940651        52.8078 
 428   0.0000       1.964097        53.4458 
 429   0.0000       1.965752        53.4908 
 430   0.0000       1.978595        53.8403 
 431   0.0000       1.995516        54.3008 
 432   0.0000       2.002768        54.4981 
 433   0.0000       2.005366        54.5688 
 434   0.0000       2.023513        55.0626 
 435   0.0000       2.029051        55.2133 
 436   0.0000       2.033484        55.3339 
 437   0.0000       2.050809        55.8054 
 438   0.0000       2.057254        55.9807 
 439   0.0000       2.062761        56.1306 
 440   0.0000       2.076637        56.5082 
 441   0.0000       2.077878        56.5419 
 442   0.0000       2.078362        56.5551 
 443   0.0000       2.091318        56.9077 
 444   0.0000       2.101488        57.1844 
 445   0.0000       2.103550        57.2405 
 446   0.0000       2.117589        57.6225 
 447   0.0000       2.129864        57.9565 
 448   0.0000       2.137429        58.1624 
 449   0.0000       2.153838        58.6089 
 450   0.0000       2.161136        58.8075 
 451   0.0000       2.163366        58.8682 
 452   0.0000       2.179226        59.2998 
 453   0.0000       2.182660        59.3932 
 454   0.0000       2.197550        59.7984 
 455   0.0000       2.206550        60.0433 
 456   0.0000       2.208891        60.1070 
 457   0.0000       2.219090        60.3845 
 458   0.0000       2.224667        60.5363 
 459   0.0000       2.229557        60.6693 
 460   0.0000       2.237602        60.8882 
 461   0.0000       2.251247        61.2596 
 462   0.0000       2.260002        61.4978 
 463   0.0000       2.265920        61.6588 
 464   0.0000       2.267544        61.7030 
 465   0.0000       2.272675        61.8426 
 466   0.0000       2.276498        61.9466 
 467   0.0000       2.288611        62.2763 
 468   0.0000       2.299011        62.5593 
 469   0.0000       2.312295        62.9208 
 470   0.0000       2.320289        63.1383 
 471   0.0000       2.338026        63.6209 
 472   0.0000       2.347421        63.8766 
 473   0.0000       2.353851        64.0516 
 474   0.0000       2.355770        64.1038 
 475   0.0000       2.361746        64.2664 
 476   0.0000       2.363672        64.3188 
 477   0.0000       2.378759        64.7293 
 478   0.0000       2.386524        64.9406 
 479   0.0000       2.394032        65.1449 
 480   0.0000       2.399205        65.2857 
 481   0.0000       2.402536        65.3763 
 482   0.0000       2.408044        65.5262 
 483   0.0000       2.420404        65.8625 
 484   0.0000       2.422608        65.9225 
 485   0.0000       2.427463        66.0546 
 486   0.0000       2.434585        66.2484 
 487   0.0000       2.443792        66.4990 
 488   0.0000       2.456643        66.8487 
 489   0.0000       2.471820        67.2616 
 490   0.0000       2.483580        67.5816 
 491   0.0000       2.496424        67.9312 
 492   0.0000       2.507323        68.2277 
 493   0.0000       2.525739        68.7289 
 494   0.0000       2.530703        68.8639 
 495   0.0000       2.555342        69.5344 
 496   0.0000       2.558137        69.6105 
 497   0.0000       2.560175        69.6659 
 498   0.0000       2.569274        69.9135 
 499   0.0000       2.593549        70.5741 
 500   0.0000       2.604263        70.8656 
 501   0.0000       2.628703        71.5306 
 502   0.0000       2.634557        71.6899 
 503   0.0000       2.638748        71.8040 
 504   0.0000       2.642450        71.9047 
 505   0.0000       2.656633        72.2907 
 506   0.0000       2.663061        72.4656 
 507   0.0000       2.673163        72.7405 
 508   0.0000       2.680690        72.9453 
 509   0.0000       2.697875        73.4129 
 510   0.0000       2.699651        73.4612 
 511   0.0000       2.707504        73.6749 
 512   0.0000       2.711195        73.7754 
 513   0.0000       2.716515        73.9201 
 514   0.0000       2.729912        74.2847 
 515   0.0000       2.738729        74.5246 
 516   0.0000       2.755591        74.9834 
 517   0.0000       2.767413        75.3051 
 518   0.0000       2.768984        75.3479 
 519   0.0000       2.772875        75.4538 
 520   0.0000       2.777034        75.5669 
 521   0.0000       2.779532        75.6349 
 522   0.0000       2.791821        75.9693 
 523   0.0000       2.798789        76.1589 
 524   0.0000       2.800776        76.2130 
 525   0.0000       2.806360        76.3649 
 526   0.0000       2.811102        76.4940 
 527   0.0000       2.814274        76.5803 
 528   0.0000       2.823310        76.8262 
 529   0.0000       2.828329        76.9628 
 530   0.0000       2.839269        77.2604 
 531   0.0000       2.841722        77.3272 
 532   0.0000       2.846514        77.4576 
 533   0.0000       2.849468        77.5380 
 534   0.0000       2.851742        77.5999 
 535   0.0000       2.853663        77.6521 
 536   0.0000       2.857152        77.7471 
 537   0.0000       2.863946        77.9319 
 538   0.0000       2.867384        78.0255 
 539   0.0000       2.870785        78.1180 
 540   0.0000       2.873787        78.1997 
 541   0.0000       2.877717        78.3067 
 542   0.0000       2.883294        78.4584 
 543   0.0000       2.885773        78.5259 
 544   0.0000       2.888360        78.5963 
 545   0.0000       2.889663        78.6317 
 546   0.0000       2.899831        78.9084 
 547   0.0000       2.902156        78.9717 
 548   0.0000       2.908519        79.1448 
 549   0.0000       2.910762        79.2059 
 550   0.0000       2.917669        79.3938 
 551   0.0000       2.919397        79.4408 
 552   0.0000       2.927113        79.6508 
 553   0.0000       2.930679        79.7478 
 554   0.0000       2.931293        79.7645 
 555   0.0000       2.942819        80.0782 
 556   0.0000       2.945017        80.1380 
 557   0.0000       2.951815        80.3230 
 558   0.0000       2.955352        80.4192 
 559   0.0000       2.962350        80.6096 
 560   0.0000       2.963790        80.6488 
 561   0.0000       2.967705        80.7554 
 562   0.0000       2.968761        80.7841 
 563   0.0000       2.975181        80.9588 
 564   0.0000       2.980812        81.1120 
 565   0.0000       2.987839        81.3032 
 566   0.0000       2.992058        81.4180 
 567   0.0000       3.002270        81.6959 
 568   0.0000       3.005739        81.7903 
 569   0.0000       3.012076        81.9628 
 570   0.0000       3.018952        82.1499 
 571   0.0000       3.020448        82.1906 
 572   0.0000       3.028291        82.4040 
 573   0.0000       3.030339        82.4597 
 574   0.0000       3.031034        82.4786 
 575   0.0000       3.033363        82.5420 
 576   0.0000       3.042183        82.7820 
 577   0.0000       3.048554        82.9554 
 578   0.0000       3.051513        83.0359 
 579   0.0000       3.053708        83.0956 
 580   0.0000       3.059863        83.2631 
 581   0.0000       3.065009        83.4031 
 582   0.0000       3.077618        83.7462 
 583   0.0000       3.079471        83.7967 
 584   0.0000       3.083944        83.9184 
 585   0.0000       3.090503        84.0969 
 586   0.0000       3.095183        84.2242 
 587   0.0000       3.097319        84.2823 
 588   0.0000       3.108001        84.5730 
 589   0.0000       3.118436        84.8569 
 590   0.0000       3.127557        85.1051 
 591   0.0000       3.132411        85.2372 
 592   0.0000       3.147099        85.6369 
 593   0.0000       3.158376        85.9438 
 594   0.0000       3.168833        86.2283 
 595   0.0000       3.177907        86.4753 
 596   0.0000       3.190047        86.8056 
 597   0.0000       3.194930        86.9385 
 598   0.0000       3.200484        87.0896 
 599   0.0000       3.205014        87.2129 
 600   0.0000       3.208538        87.3088 
 601   0.0000       3.217608        87.5556 
 602   0.0000       3.219038        87.5945 
 603   0.0000       3.230082        87.8950 
 604   0.0000       3.234563        88.0169 
 605   0.0000       3.240111        88.1679 
 606   0.0000       3.248367        88.3925 
 607   0.0000       3.263537        88.8054 
 608   0.0000       3.265181        88.8501 
 609   0.0000       3.277728        89.1915 
 610   0.0000       3.285173        89.3941 
 611   0.0000       3.295285        89.6693 
 612   0.0000       3.297153        89.7201 
 613   0.0000       3.298619        89.7600 
[...]
    81a ->  93a  :     0.028529 
    81a ->  94a  :     0.012425 
    82a ->  90a  :     0.028068 
    83a ->  88a  :     0.082088 
    83a ->  89a  :     0.014934 
    85a ->  88a  :     0.020345 
    85a ->  89a  :     0.099431 
    85a ->  93a  :     0.080167 
    85a ->  94a  :     0.022635 
    85a ->  96a  :     0.010882 
    86a ->  89a  :     0.049777 
    86a ->  92a  :     0.012884 
    86a ->  94a  :     0.087861 
    86a ->  96a  :     0.012202 
    87a ->  91a  :     0.043415 
    87a ->  92a  :     0.038610 
    87a ->  93a  :     0.016451 
    87a ->  94a  :     0.016682 

STATE 17:  E=   0.223378 au      6.078 eV    49025.9 cm**-1 <S**2> =   0.000000
    81a ->  88a  :     0.051006 
    82a ->  90a  :     0.010511 
    83a ->  88a  :     0.023088 
    83a ->  91a  :     0.017148 
    84a ->  89a  :     0.067964 
    84a ->  91a  :     0.162370 
    84a ->  92a  :     0.124621 
    84a ->  93a  :     0.014701 
    84a ->  94a  :     0.015975 
    85a ->  88a  :     0.211961 
    85a ->  91a  :     0.026494 
    85a ->  92a  :     0.013160 
    85a ->  96a  :     0.011207 
    86a ->  88a  :     0.055105 
    86a ->  91a  :     0.036976 
    86a ->  92a  :     0.015426 
    87a ->  92a  :     0.017656 

STATE 18:  E=   0.222752 au      6.061 eV    48888.4 cm**-1 <S**2> =   0.000000
    80a ->  92a  :     0.020651 
    81a ->  88a  :     0.016210 
    81a ->  92a  :     0.028211 
    84a ->  88a  :     0.041369 
    84a ->  89a  :     0.017010 
    84a ->  91a  :     0.069022 
    84a ->  92a  :     0.030299 
    85a ->  89a  :     0.140778 
    85a ->  91a  :     0.036991 
    85a ->  94a  :     0.025832 
    86a ->  89a  :     0.078194 
    86a ->  91a  :     0.139960 
    86a ->  94a  :     0.018726 
    87a ->  91a  :     0.023209 
    87a ->  92a  :     0.069623 
    87a ->  95a  :     0.014850 
    87a ->  96a  :     0.076556 

STATE 19:  E=   0.228709 au      6.223 eV    50195.8 cm**-1 <S**2> =   0.000000
    82a ->  90a  :     0.060673 
    83a ->  89a  :     0.055661 
    84a ->  88a  :     0.015947 
    84a ->  91a  :     0.025278 
    85a ->  91a  :     0.011129 
    86a ->  92a  :     0.053115 
    87a ->  95a  :     0.173294 
    87a ->  97a  :     0.383559 
    87a -> 100a  :     0.013600 
    87a -> 112a  :     0.011209 
    87a -> 116a  :     0.012118 

STATE 20:  E=   0.229853 au      6.255 eV    50446.9 cm**-1 <S**2> =   0.000000
    80a ->  91a  :     0.010406 
    82a ->  90a  :     0.106005 
    83a ->  89a  :     0.116955 
    83a ->  93a  :     0.011253 
    84a ->  88a  :     0.015378 
    84a ->  91a  :     0.019085 
    85a ->  89a  :     0.020234 
    85a ->  91a  :     0.026657 
    85a ->  94a  :     0.016828 
    86a ->  91a  :     0.020211 
    86a ->  92a  :     0.027627 
    87a ->  91a  :     0.015619 
    87a ->  95a  :     0.096114 
    87a ->  96a  :     0.221467 
    87a ->  97a  :     0.034682 
    87a ->  98a  :     0.064819 

STATE 21:  E=   0.242329 au      6.594 eV    53185.1 cm**-1 <S**2> =   0.000000
    81a ->  90a  :     0.044195 
    82a ->  88a  :     0.054338 
    82a ->  89a  :     0.313195 
    82a ->  91a  :     0.059623 
    82a ->  92a  :     0.013617 
    82a ->  93a  :     0.043922 
    83a ->  90a  :     0.338153 
    84a ->  90a  :     0.011410 
    85a ->  90a  :     0.027416 
    86a ->  90a  :     0.015226 

STATE 22:  E=   0.232547 au      6.328 eV    51038.1 cm**-1 <S**2> =   0.000000
    80a ->  89a  :     0.028034 
    80a ->  91a  :     0.013570 
    80a ->  92a  :     0.014702 
    81a ->  91a  :     0.025063 
    82a ->  90a  :     0.091399 
    83a ->  88a  :     0.023191 
    83a ->  89a  :     0.078133 
    83a ->  91a  :     0.011631 
    84a ->  88a  :     0.058364 
    85a ->  88a  :     0.015339 
    85a ->  89a  :     0.022730 
    85a ->  93a  :     0.029538 
    85a ->  94a  :     0.018718 
    86a ->  89a  :     0.026448 
    86a ->  90a  :     0.015229 
    86a ->  91a  :     0.035473 
    86a ->  92a  :     0.207046 
    86a ->  93a  :     0.063308 
    86a ->  94a  :     0.046266 
    87a ->  92a  :     0.020543 
    87a ->  94a  :     0.016835 
    87a ->  96a  :     0.010821 
    87a ->  98a  :     0.010351 

STATE 23:  E=   0.230774 au      6.280 eV    50649.1 cm**-1 <S**2> =   0.000000
    80a ->  88a  :     0.035048 
    80a ->  91a  :     0.015727 
    81a ->  88a  :     0.031706 
    81a ->  89a  :     0.031527 
    82a ->  90a  :     0.115237 
    83a ->  89a  :     0.022627 
    83a ->  91a  :     0.019892 
    83a ->  93a  :     0.012350 
    85a ->  89a  :     0.053336 
    85a ->  90a  :     0.010051 
    85a ->  91a  :     0.037400 
    85a ->  92a  :     0.056366 
    85a ->  94a  :     0.018584 
    86a ->  92a  :     0.038514 
    87a ->  96a  :     0.224690 
    87a ->  97a  :     0.134395 
    87a ->  98a  :     0.010426 

STATE 24:  E=   0.236031 au      6.423 eV    51802.7 cm**-1 <S**2> =   0.000000
    80a ->  88a  :     0.052730 
    80a ->  91a  :     0.051027 
    80a ->  92a  :     0.047713 
    81a ->  88a  :     0.076019 
    84a ->  91a  :     0.012475 
    85a ->  89a  :     0.014651 
    85a ->  91a  :     0.085593 
    85a ->  92a  :     0.112439 
    86a ->  89a  :     0.094938 
    86a ->  90a  :     0.055580 
    86a ->  91a  :     0.114034 
    86a ->  92a  :     0.038169 
    86a ->  93a  :     0.024505 
    86a ->  94a  :     0.035604 
    87a ->  93a  :     0.013675 
    87a ->  96a  :     0.016942 

STATE 25:  E=   0.241560 au      6.573 eV    53016.2 cm**-1 <S**2> =   0.000000
    85a ->  90a  :     0.016572 
    86a ->  90a  :     0.050795 
    86a ->  96a  :     0.012039 
    86a ->  97a  :     0.019796 
    87a ->  96a  :     0.020565 
    87a ->  98a  :     0.193027 
    87a ->  99a  :     0.289800 
    87a -> 100a  :     0.188809 
    87a -> 101a  :     0.060699 

STATE 26:  E=   0.226768 au      6.171 eV    49769.7 cm**-1 <S**2> =   0.000000
    85a ->  90a  :     0.238533 
    86a ->  90a  :     0.475039 
    86a ->  91a  :     0.027953 
    86a ->  92a  :     0.015444 
    87a ->  98a  :     0.085804 
    87a -> 101a  :     0.039264 

STATE 27:  E=   0.242909 au      6.610 eV    53312.4 cm**-1 <S**2> =   0.000000
    85a ->  90a  :     0.041804 
    85a ->  95a  :     0.011236 
    85a ->  98a  :     0.013596 
    86a ->  90a  :     0.042289 
    86a ->  99a  :     0.022042 
    87a ->  95a  :     0.045359 
    87a ->  96a  :     0.085132 
    87a ->  97a  :     0.050180 
    87a ->  98a  :     0.147483 
    87a ->  99a  :     0.274650 
    87a -> 100a  :     0.013317 
    87a -> 101a  :     0.105702 
    87a -> 105a  :     0.022265 
    87a -> 112a  :     0.014968 

STATE 28:  E=   0.241790 au      6.579 eV    53066.8 cm**-1 <S**2> =   0.000000
    80a ->  88a  :     0.282497 
    82a ->  88a  :     0.015095 
    82a ->  90a  :     0.019833 
    83a ->  88a  :     0.148843 
    83a ->  91a  :     0.018298 
    84a ->  89a  :     0.017454 
    84a ->  91a  :     0.021447 
    85a ->  88a  :     0.038314 
    85a ->  89a  :     0.064238 
    85a ->  91a  :     0.012891 
    85a ->  94a  :     0.079604 
    86a ->  91a  :     0.056992 
    86a ->  92a  :     0.023651 
    86a ->  94a  :     0.051375 

STATE 29:  E=   0.235289 au      6.403 eV    51640.0 cm**-1 <S**2> =   0.000000
    82a ->  88a  :     0.792483 
    82a ->  89a  :     0.042686 
    82a ->  93a  :     0.036109 
    82a ->  94a  :     0.036487 

STATE 30:  E=   0.235957 au      6.421 eV    51786.7 cm**-1 <S**2> =   0.000000
    80a ->  88a  :     0.012908 
    80a ->  93a  :     0.010141 
    81a ->  88a  :     0.023970 
    81a ->  89a  :     0.014389 
    81a ->  91a  :     0.045648 
    81a ->  92a  :     0.023167 
    81a ->  94a  :     0.014741 
    83a ->  88a  :     0.055283 
    83a ->  91a  :     0.035422 
    83a ->  94a  :     0.012680 
    85a ->  88a  :     0.013070 
    85a ->  89a  :     0.164851 
    85a ->  91a  :     0.068104 
    85a ->  92a  :     0.029119 
    85a ->  93a  :     0.014179 
    85a ->  94a  :     0.023515 
    86a ->  89a  :     0.147803 
    86a ->  90a  :     0.011259 
    86a ->  91a  :     0.070808 
    86a ->  92a  :     0.016212 
    86a ->  93a  :     0.104030 
    86a ->  94a  :     0.012427 


-------------------------
TD-DFT-EXCITATION SPECTRA
-------------------------

Center of mass = (  0.0071,  0.0311, -0.0005)
Calculating the Dipole integrals                  ... done
Transforming integrals                            ... done
Calculating the Linear Momentum integrals         ... done
Transforming integrals                            ... done
Calculating angular momentum integrals            ... done
Transforming integrals                            ... done

-----------------------------------------------------------------------------
         ABSORPTION SPECTRUM VIA TRANSITION ELECTRIC DIPOLE MOMENTS
-----------------------------------------------------------------------------
State   Energy    Wavelength  fosc         T2        TX        TY        TZ  
        (cm-1)      (nm)                 (au**2)    (au)      (au)      (au) 
-----------------------------------------------------------------------------
   1   28326.3    353.0   0.377643817   4.38902   2.05740   0.39494  -0.01169
   2   31043.2    322.1   0.200038126   2.12140   1.40494   0.37898  -0.06247
   3   32958.9    303.4   0.067136108   0.67059   0.61872   0.53590  -0.02425
   4   33169.9    301.5   0.008126843   0.08066   0.27059  -0.08544   0.01193
   5   39005.1    256.4   0.409073940   3.45267  -1.81538   0.39436  -0.03941
   6   38155.2    262.1   0.015597292   0.13458  -0.32583   0.14861   0.07954
   7   36667.6    272.7   0.007876803   0.07072   0.26025  -0.02862   0.04662
   8   42074.8    237.7   0.003799062   0.02973  -0.05734  -0.09975   0.12840
   9   41765.0    239.4   0.489320453   3.85706   1.46427   1.29646  -0.17936
  10   48011.8    208.3   0.129636822   0.88891   0.88026   0.31601  -0.11909
  11   46651.9    214.4   0.299715794   2.11503  -1.43207  -0.24395   0.06842
  12   45118.1    221.6   0.380197152   2.77417   1.33604   0.87719   0.46873
  13   46909.2    213.2   0.085598421   0.60074  -0.68177   0.33328   0.15766
  14   44834.9    223.0   0.260932537   1.91596   0.06847   1.37874   0.10180
  15   47196.0    211.9   0.141783160   0.98900   0.04882   0.99295  -0.02579
  16   46502.7    215.0   0.071807584   0.50836   0.17530  -0.67792   0.13434
  17   49025.9    204.0   0.950594427   6.38330  -2.12027   1.37240  -0.06535
  18   48888.4    204.5   0.086158358   0.58019   0.68334   0.25842  -0.21554
  19   50195.8    199.2   0.445782672   2.92369  -0.51098   1.62839  -0.10459
  20   50446.9    198.2   0.569038843   3.71350  -0.77538   1.73929   0.29520
  21   53185.1    188.0   0.584511021   3.61808  -0.05839  -0.13416  -1.89649
  22   51038.1    195.9   0.105134543   0.67815  -0.43756  -0.49256  -0.49405
  23   50649.1    197.4   0.118942372   0.77311   0.11478   0.85792   0.15463
  24   51802.7    193.0   0.072004991   0.45760   0.67468  -0.02747   0.04065
  25   53016.2    188.6   0.006495750   0.04034  -0.05024   0.19445  -0.00003
  26   49769.7    200.9   0.001494248   0.00988   0.06349   0.07497  -0.01526
  27   53312.4    187.6   0.003338196   0.02061   0.02644  -0.09320  -0.10596
  28   53066.8    188.4   0.075220006   0.46664   0.65681  -0.15542  -0.10529
  29   51640.0    193.6   0.008582364   0.05471   0.09665  -0.04857   0.20740
  30   51786.7    193.1   0.033025471   0.20995  -0.42209   0.17011   0.05338

-----------------------------------------------------------------------------
         ABSORPTION SPECTRUM VIA TRANSITION VELOCITY DIPOLE MOMENTS
-----------------------------------------------------------------------------
State   Energy    Wavelength   fosc        P2         PX        PY        PZ  
        (cm-1)      (nm)                 (au**2)     (au)      (au)      (au) 
-----------------------------------------------------------------------------
   1   28326.3    353.0   0.482758864   0.09346  -0.30012  -0.05819   0.00166
   2   31043.2    322.1   0.281113491   0.05964  -0.23544  -0.06405   0.01044
   3   32958.9    303.4   0.094287841   0.02124  -0.11074  -0.09464   0.00425
   4   33169.9    301.5   0.012271385   0.00278  -0.05030   0.01573  -0.00204
   5   39005.1    256.4   0.463869891   0.12366   0.34332  -0.07570   0.00761
   6   38155.2    262.1   0.019573607   0.00510   0.06297  -0.02996  -0.01553
   7   36667.6    272.7   0.010737677   0.00269  -0.05052   0.00744  -0.00912
   8   42074.8    237.7   0.004670074   0.00134   0.01255   0.02129  -0.02705
   9   41765.0    239.4   0.623570171   0.17799  -0.31448  -0.27855   0.03882
  10   48011.8    208.3   0.131206104   0.04305  -0.19405  -0.06902   0.02522
  11   46651.9    214.4   0.327241613   0.10434   0.31830   0.05353  -0.01253
  12   45118.1    221.6   0.442935745   0.13658  -0.29795  -0.19647  -0.09596
  13   46909.2    213.2   0.092366621   0.02961   0.15357  -0.07353  -0.02491
  14   44834.9    223.0   0.331623226   0.10162  -0.01687  -0.31660  -0.03315
  15   47196.0    211.9   0.167161087   0.05392  -0.01311  -0.23175   0.00645
  16   46502.7    215.0   0.090054495   0.02862  -0.04156   0.16080  -0.03222
  17   49025.9    204.0   1.106869199   0.37088   0.51132  -0.33045   0.01545
  18   48888.4    204.5   0.107961445   0.03607  -0.17057  -0.06417   0.05349
  19   50195.8    199.2   0.544285620   0.18672   0.12975  -0.41136   0.02589
  20   50446.9    198.2   0.693787445   0.23920   0.19665  -0.44165  -0.07400
  21   53185.1    188.0   0.648936875   0.23588   0.01484   0.03420   0.48425
  22   51038.1    195.9   0.131779681   0.04597   0.11464   0.12833   0.12789
  23   50649.1    197.4   0.154718013   0.05356  -0.03024  -0.22583  -0.04056
  24   51802.7    193.0   0.092291765   0.03268  -0.18035   0.00650  -0.01033
  25   53016.2    188.6   0.007710979   0.00279   0.01315  -0.05117   0.00165
  26   49769.7    200.9   0.002225292   0.00076  -0.01706  -0.02064   0.00632
  27   53312.4    187.6   0.005252532   0.00191  -0.00684   0.02481   0.03537
  28   53066.8    188.4   0.095402442   0.03460  -0.17881   0.04271   0.02836
  29   51640.0    193.6   0.011976350   0.00423  -0.02657   0.01315  -0.05786
  30   51786.7    193.1   0.044762249   0.01584   0.11586  -0.04699  -0.01451

-------------------------------------------------------------------
                             CD SPECTRUM
-------------------------------------------------------------------
State  Energy     Wavelength     R         MX        MY        MZ   
       (cm-1)       (nm)     (1e40*cgs)   (au)      (au)      (au)  
-------------------------------------------------------------------
   1   28326.3    353.0     18.18667   0.01488   0.04672   0.89842
   2   31043.2    322.1      9.68882   0.00909  -0.04608  -0.40405
   3   32958.9    303.4      6.72348   0.01557  -0.00062  -0.20463
   4   33169.9    301.5    -19.07347  -0.08807   0.16749  -0.19413
   5   39005.1    256.4     18.61524  -0.03972   0.00114   0.83894
   6   38155.2    262.1     -2.74533   0.00697   0.15312  -0.33072
   7   36667.6    272.7     -1.93958  -0.02537  -0.01326   0.04522
   8   42074.8    237.7      6.90624  -0.05207  -0.06219   0.04252
   9   41765.0    239.4    -142.92773  -0.00815  -0.19783   0.19377
  10   48011.8    208.3    -29.35224  -0.01319  -0.10719   0.14084
  11   46651.9    214.4    -15.19224   0.02924  -0.01045   0.10368
  12   45118.1    221.6    -56.88509   0.03434   0.34810  -1.00674
  13   46909.2    213.2    -29.41939   0.05988  -0.10534   0.08582
  14   44834.9    223.0    252.30117  -0.05745   0.47789  -1.17670
  15   47196.0    211.9    -11.46320  -0.01259   0.01299   1.41900
  16   46502.7    215.0    -65.84770   0.00121   0.12933  -0.38858
  17   49025.9    204.0     -2.42508  -0.01515   0.00151   0.60214
  18   48888.4    204.5    -206.64536  -0.01108  -0.39350   1.52672
  19   50195.8    199.2    337.71726   0.08777   0.47060   0.04905
  20   50446.9    198.2    103.43999  -0.05220   0.10333  -0.00265
  21   53185.1    188.0     -6.27101   1.28979   1.56655  -0.14351
  22   51038.1    195.9    -142.12676   0.06241  -0.51756   1.07092
  23   50649.1    197.4     27.28835  -0.02698   0.09551  -0.13557
  24   51802.7    193.0    -29.46672  -0.04423  -0.01246  -0.81186
  25   53016.2    188.6     28.14501  -0.08973   0.28379  -0.18477
  26   49769.7    200.9      3.08186   0.11965  -0.04786  -0.16571
  27   53312.4    187.6     -8.45225  -0.04498   0.03794   0.12460
  28   53066.8    188.4      5.48120   0.03896   0.01644   0.10835
  29   51640.0    193.6      8.03629  -0.14705  -0.23687   0.09525
  30   51786.7    193.1      5.05901  -0.01234   0.04826  -0.05033

Total run time:    16650.951 sec

           *** ORCA-CIS/TD-DFT FINISHED WITHOUT ERROR ***

Maximum memory used throughout the entire CIS-calculation: 3936.9 MB

-----------------------
CIS/TD-DFT TOTAL ENERGY
-----------------------

    E(SCF)  =  -1052.331487508 Eh
    DE(CIS) =      0.129064224 Eh (Root  1)
    ----------------------------- ---------
    E(tot)  =  -1052.202423284 Eh


-------------------------   --------------------
FINAL SINGLE POINT ENERGY     -1052.202423283692
-------------------------   --------------------


                            ***************************************
                            *     ORCA property calculations      *
                            ***************************************


  WARNING: The energy has been calculated at the MP2 level but the densities
           used in the property calculations are still SCF densities
           MP2 response densities have not been calculated 
           use %mp2 Density relaxed end
           or  %mp2 Density unrelaxed end

                                    ---------------------
                                    Active property flags
                                    ---------------------
   (+) Dipole Moment


------------------------------------------------------------------------------
                       ORCA ELECTRIC PROPERTIES CALCULATION
------------------------------------------------------------------------------

Dipole Moment Calculation                       ... on
Quadrupole Moment Calculation                   ... off
Polarizability Calculation                      ... off
GBWName                                         ... POZ_3_M06L_def2TZVP_coords.gbw
Electron density                                ... POZ_3_M06L_def2TZVP_coords.scfp
The origin for moment calculation is the CENTER OF MASS  = ( 0.007074,  0.031141 -0.000544)

-------------
DIPOLE MOMENT
-------------
                                X             Y             Z
Electronic contribution:      2.09062       4.41299      -0.07165
Nuclear contribution   :     -1.24498      -5.48076       0.09574
                        -----------------------------------------
Total Dipole Moment    :      0.84564      -1.06778       0.02409
                        -----------------------------------------
Magnitude (a.u.)       :      1.36229
Magnitude (Debye)      :      3.46266



--------------------
Rotational spectrum 
--------------------
 
Rotational constants in cm-1:     0.011848     0.003953     0.003079 
Rotational constants in MHz :   355.195780   118.521258    92.295779 

 Dipole components along the rotational axes: 
x,y,z [a.u.] :     0.843045    -1.069900     0.020493 
x,y,z [Debye]:     2.142850    -2.719470     0.052088 

 

Timings for individual modules:

Sum of individual times         ...    17731.148 sec (= 295.519 min)
GTO integral calculation        ...        1.989 sec (=   0.033 min)   0.0 %
SCF iterations                  ...      498.035 sec (=   8.301 min)   2.8 %
MP2 module                      ...      579.760 sec (=   9.663 min)   3.3 %
CIS module                      ...    16651.364 sec (= 277.523 min)  93.9 %
                             ****ORCA TERMINATED NORMALLY****
TOTAL RUN TIME: 0 days 4 hours 55 minutes 34 seconds 611 msec
