 Entering Gaussian System, Link 0=g09
 Input=/home/png4rjv/fotokatalizis/benchmark/OPCs/POZ_3_M06L_def2TZVP.gjf
 Output=/home/png4rjv/fotokatalizis/benchmark/OPCs/POZ_3_M06L_def2TZVP.log
 Initial command:
 /opt/nce/packages/global/g09/l1.exe "/home/png4rjv/fotokatalizis/benchmark/OPCs/POZ_3_M06L_def2TZVP/Gau-20405.inp" -scrdir="/home/png4rjv/fotokatalizis/benchmark/OPCs/POZ_3_M06L_def2TZVP/"
 Default is to use a total of  12 processors:
                               12 via shared-memory
                                1 via Linda
 Entering Link 1 = /opt/nce/packages/global/g09/l1.exe PID=     20406.
  
 Copyright (c) 1988,1990,1992,1993,1995,1998,2003,2009,2015,
            Gaussian, Inc.  All Rights Reserved.
  
 This is part of the Gaussian(R) 09 program.  It is based on
 the Gaussian(R) 03 system (copyright 2003, Gaussian, Inc.),
 the Gaussian(R) 98 system (copyright 1998, Gaussian, Inc.),
 the Gaussian(R) 94 system (copyright 1995, Gaussian, Inc.),
 the Gaussian 92(TM) system (copyright 1992, Gaussian, Inc.),
 the Gaussian 90(TM) system (copyright 1990, Gaussian, Inc.),
 the Gaussian 88(TM) system (copyright 1988, Gaussian, Inc.),
 the Gaussian 86(TM) system (copyright 1986, Carnegie Mellon
 University), and the Gaussian 82(TM) system (copyright 1983,
 Carnegie Mellon University). Gaussian is a federally registered
 trademark of Gaussian, Inc.
  
 This software contains proprietary and confidential information,
 including trade secrets, belonging to Gaussian, Inc.
  
 This software is provided under written license and may be
 used, copied, transmitted, or stored only in accord with that
 written license.
  
 The following legend is applicable only to US Government
 contracts under FAR:
  
                    RESTRICTED RIGHTS LEGEND
  
 Use, reproduction and disclosure by the US Government is
 subject to restrictions as set forth in subparagraphs (a)
 and (c) of the Commercial Computer Software - Restricted
 Rights clause in FAR 52.227-19.
  
 Gaussian, Inc.
 340 Quinnipiac St., Bldg. 40, Wallingford CT 06492
  
  
 ---------------------------------------------------------------
 Warning -- This program may not be used in any manner that
 competes with the business of Gaussian, Inc. or will provide
 assistance to any competitor of Gaussian, Inc.  The licensee
 of this program is prohibited from giving any competitor of
 Gaussian, Inc. access to this program.  By using this program,
 the user acknowledges that Gaussian, Inc. is engaged in the
 business of creating and licensing software in the field of
 computational chemistry and represents and warrants to the
 licensee that it is not a competitor of Gaussian, Inc. and that
 it will not use this program in any manner prohibited above.
 ---------------------------------------------------------------
  

 Cite this work as:
 Gaussian 09, Revision E.01,
 M. J. Frisch, G. W. Trucks, H. B. Schlegel, G. E. Scuseria, 
 M. A. Robb, J. R. Cheeseman, G. Scalmani, V. Barone, B. Mennucci, 
 G. A. Petersson, H. Nakatsuji, M. Caricato, X. Li, H. P. Hratchian, 
 A. F. Izmaylov, J. Bloino, G. Zheng, J. L. Sonnenberg, M. Hada, 
 M. Ehara, K. Toyota, R. Fukuda, J. Hasegawa, M. Ishida, T. Nakajima, 
 Y. Honda, O. Kitao, H. Nakai, T. Vreven, J. A. Montgomery, Jr., 
 J. E. Peralta, F. Ogliaro, M. Bearpark, J. J. Heyd, E. Brothers, 
 K. N. Kudin, V. N. Staroverov, T. Keith, R. Kobayashi, J. Normand, 
 K. Raghavachari, A. Rendell, J. C. Burant, S. S. Iyengar, J. Tomasi, 
 M. Cossi, N. Rega, J. M. Millam, M. Klene, J. E. Knox, J. B. Cross, 
 V. Bakken, C. Adamo, J. Jaramillo, R. Gomperts, R. E. Stratmann, 
 O. Yazyev, A. J. Austin, R. Cammi, C. Pomelli, J. W. Ochterski, 
 R. L. Martin, K. Morokuma, V. G. Zakrzewski, G. A. Voth, 
 P. Salvador, J. J. Dannenberg, S. Dapprich, A. D. Daniels, 
 O. Farkas, J. B. Foresman, J. V. Ortiz, J. Cioslowski, 
 and D. J. Fox, Gaussian, Inc., Wallingford CT, 2013.
 
 ******************************************
 Gaussian 09:  ES64L-G09RevE.01 30-Nov-2015
                17-Feb-2021 
 ******************************************
 %chk=cp.chk
 Default route:  MaxDisk=500GB
 ----------------------------------------------------------------------
 #p m06l/def2TZVP opt freq=noraman nosymm int=ultrafine scrf=(SMD,solve
 nt=n,n-DiMethylAcetamide)
 ----------------------------------------------------------------------
 1/14=-1,18=20,19=15,26=4,38=1/1,3;
 2/9=110,12=2,15=1,17=6,18=5,40=1/2;
 3/5=44,7=101,11=2,16=1,25=1,30=1,70=32201,71=1,72=147,74=-53,75=-5/1,2,3;
 4//1;
 5/5=2,38=5,53=147/2;
 6/7=2,8=2,9=2,10=2,28=1/1;
 7/30=1/1,2,3,16;
 1/14=-1,18=20,19=15,26=4/3(2);
 2/9=110,15=1/2;
 99//99;
 2/9=110,15=1/2;
 3/5=44,7=101,11=2,16=1,25=1,30=1,70=32205,71=1,72=147,74=-53,75=-5/1,2,3;
 4/5=5,16=3,69=1/1;
 5/5=2,38=5,53=147/2;
 7/30=1/1,2,3,16;
 1/14=-1,18=20,19=15,26=4/3(-5);
 2/9=110,15=1/2;
 6/7=2,8=2,9=2,10=2,19=2,28=1/1;
 99/9=1/99;
 Leave Link    1 at Wed Feb 17 09:09:24 2021, MaxMem=           0 cpu:         2.0
 (Enter /opt/nce/packages/global/g09/l101.exe)
 -----
 Title
 -----
 Symbolic Z-matrix:
 Charge =  0 Multiplicity = 1
 C                     1.78593  -1.3638   -0.05219 
 C                     0.38864  -1.3474   -0.05746 
 C                    -0.31743  -0.13946  -0.01453 
 C                     0.42799   1.05747   0.03179 
 C                     1.814     1.03758   0.03655 
 C                     2.52902  -0.17658  -0.0047 
 C                    -1.55963   2.34505   0.08797 
 C                    -2.35197   1.17854   0.03739 
 C                    -3.7451    1.32042   0.04256 
 H                    -4.36958   0.42813   0.00372 
 C                    -4.33465   2.58939   0.09678 
 C                    -3.54105   3.73295   0.14678 
 C                    -2.14625   3.6032    0.14201 
 H                    -0.16458  -2.28509  -0.10493 
 H                     2.33039   1.99604   0.09959 
 H                    -5.42361   2.67191   0.09948 
 N                    -1.71756  -0.07321  -0.01536 
 C                    -2.49213  -1.27117  -0.0524 
 C                    -2.87065  -1.82039  -1.28238 
 C                    -2.87087  -1.8954    1.14131 
 C                    -3.62767  -2.99373  -1.31729 
 C                    -3.62811  -3.06841   1.10355 
 H                    -2.56588  -1.45168   2.09096 
 C                    -4.00676  -3.61812  -0.12509 
 H                    -3.92333  -3.5549    2.03607 
 H                    -4.5989   -4.53574  -0.15353 
 H                    -1.48825   4.47318   0.18007 
 H                     2.3004   -2.32406  -0.11434 
 C                     4.01086  -0.18705  -0.00371 
 C                     4.745     0.83472  -0.63453 
 C                     4.72818  -1.22044   0.62775 
 C                     6.14036   0.82337  -0.63513 
 H                     4.21406   1.63577  -1.15293 
 C                     6.12337  -1.23421   0.62492 
 H                     4.18345  -2.00983   1.14967 
 C                     6.83772  -0.21182  -0.0062 
 H                     6.68686   1.6248   -1.13856 
 H                     6.65676  -2.04419   1.12878 
 O                    -0.18695   2.28458   0.08491 
 H                    -3.99449   4.7251    0.18933 
 H                     7.93023  -0.22123  -0.00689 
 H                    -3.92251  -3.42182  -2.27814 
 H                    -2.56531  -1.31886  -2.20269 
 
 NAtoms=     43 NQM=       43 NQMF=       0 NMMI=      0 NMMIF=      0
                NMic=       0 NMicF=      0.
                    Isotopes and Nuclear Properties:
 (Nuclear quadrupole moments (NQMom) in fm**2, nuclear magnetic moments (NMagM)
  in nuclear magnetons)

  Atom         1           2           3           4           5           6           7           8           9          10
 IAtWgt=          12          12          12          12          12          12          12          12          12           1
 AtmWgt=  12.0000000  12.0000000  12.0000000  12.0000000  12.0000000  12.0000000  12.0000000  12.0000000  12.0000000   1.0078250
 NucSpn=           0           0           0           0           0           0           0           0           0           1
 AtZEff=   0.0000000   0.0000000   0.0000000   0.0000000   0.0000000   0.0000000   0.0000000   0.0000000   0.0000000   0.0000000
 NQMom=    0.0000000   0.0000000   0.0000000   0.0000000   0.0000000   0.0000000   0.0000000   0.0000000   0.0000000   0.0000000
 NMagM=    0.0000000   0.0000000   0.0000000   0.0000000   0.0000000   0.0000000   0.0000000   0.0000000   0.0000000   2.7928460
 AtZNuc=   6.0000000   6.0000000   6.0000000   6.0000000   6.0000000   6.0000000   6.0000000   6.0000000   6.0000000   1.0000000

  Atom        11          12          13          14          15          16          17          18          19          20
 IAtWgt=          12          12          12           1           1           1          14          12          12          12
 AtmWgt=  12.0000000  12.0000000  12.0000000   1.0078250   1.0078250   1.0078250  14.0030740  12.0000000  12.0000000  12.0000000
 NucSpn=           0           0           0           1           1           1           2           0           0           0
 AtZEff=   0.0000000   0.0000000   0.0000000   0.0000000   0.0000000   0.0000000   0.0000000   0.0000000   0.0000000   0.0000000
 NQMom=    0.0000000   0.0000000   0.0000000   0.0000000   0.0000000   0.0000000   2.0440000   0.0000000   0.0000000   0.0000000
 NMagM=    0.0000000   0.0000000   0.0000000   2.7928460   2.7928460   2.7928460   0.4037610   0.0000000   0.0000000   0.0000000
 AtZNuc=   6.0000000   6.0000000   6.0000000   1.0000000   1.0000000   1.0000000   7.0000000   6.0000000   6.0000000   6.0000000

  Atom        21          22          23          24          25          26          27          28          29          30
 IAtWgt=          12          12           1          12           1           1           1           1          12          12
 AtmWgt=  12.0000000  12.0000000   1.0078250  12.0000000   1.0078250   1.0078250   1.0078250   1.0078250  12.0000000  12.0000000
 NucSpn=           0           0           1           0           1           1           1           1           0           0
 AtZEff=   0.0000000   0.0000000   0.0000000   0.0000000   0.0000000   0.0000000   0.0000000   0.0000000   0.0000000   0.0000000
 NQMom=    0.0000000   0.0000000   0.0000000   0.0000000   0.0000000   0.0000000   0.0000000   0.0000000   0.0000000   0.0000000
 NMagM=    0.0000000   0.0000000   2.7928460   0.0000000   2.7928460   2.7928460   2.7928460   2.7928460   0.0000000   0.0000000
 AtZNuc=   6.0000000   6.0000000   1.0000000   6.0000000   1.0000000   1.0000000   1.0000000   1.0000000   6.0000000   6.0000000

  Atom        31          32          33          34          35          36          37          38          39          40
 IAtWgt=          12          12           1          12           1          12           1           1          16           1
 AtmWgt=  12.0000000  12.0000000   1.0078250  12.0000000   1.0078250  12.0000000   1.0078250   1.0078250  15.9949146   1.0078250
 NucSpn=           0           0           1           0           1           0           1           1           0           1
 AtZEff=   0.0000000   0.0000000   0.0000000   0.0000000   0.0000000   0.0000000   0.0000000   0.0000000   0.0000000   0.0000000
 NQMom=    0.0000000   0.0000000   0.0000000   0.0000000   0.0000000   0.0000000   0.0000000   0.0000000   0.0000000   0.0000000
 NMagM=    0.0000000   0.0000000   2.7928460   0.0000000   2.7928460   0.0000000   2.7928460   2.7928460   0.0000000   2.7928460
 AtZNuc=   6.0000000   6.0000000   1.0000000   6.0000000   1.0000000   6.0000000   1.0000000   1.0000000   8.0000000   1.0000000

  Atom        41          42          43
 IAtWgt=           1           1           1
 AtmWgt=   1.0078250   1.0078250   1.0078250
 NucSpn=           1           1           1
 AtZEff=   0.0000000   0.0000000   0.0000000
 NQMom=    0.0000000   0.0000000   0.0000000
 NMagM=    2.7928460   2.7928460   2.7928460
 AtZNuc=   1.0000000   1.0000000   1.0000000
 Leave Link  101 at Wed Feb 17 09:09:25 2021, MaxMem=  5242880000 cpu:         5.0
 (Enter /opt/nce/packages/global/g09/l103.exe)

 GradGradGradGradGradGradGradGradGradGradGradGradGradGradGradGradGradGrad
 Berny optimization.
 Initialization pass.
                           ----------------------------
                           !    Initial Parameters    !
                           ! (Angstroms and Degrees)  !
 --------------------------                            --------------------------
 ! Name  Definition              Value          Derivative Info.                !
 --------------------------------------------------------------------------------
 ! R1    R(1,2)                  1.3974         estimate D2E/DX2                !
 ! R2    R(1,6)                  1.4014         estimate D2E/DX2                !
 ! R3    R(1,28)                 1.0912         estimate D2E/DX2                !
 ! R4    R(2,3)                  1.3998         estimate D2E/DX2                !
 ! R5    R(2,14)                 1.0898         estimate D2E/DX2                !
 ! R6    R(3,4)                  1.4108         estimate D2E/DX2                !
 ! R7    R(3,17)                 1.4017         estimate D2E/DX2                !
 ! R8    R(4,5)                  1.3862         estimate D2E/DX2                !
 ! R9    R(4,39)                 1.3736         estimate D2E/DX2                !
 ! R10   R(5,6)                  1.4097         estimate D2E/DX2                !
 ! R11   R(5,15)                 1.0905         estimate D2E/DX2                !
 ! R12   R(6,29)                 1.4819         estimate D2E/DX2                !
 ! R13   R(7,8)                  1.4111         estimate D2E/DX2                !
 ! R14   R(7,13)                 1.3892         estimate D2E/DX2                !
 ! R15   R(7,39)                 1.374          estimate D2E/DX2                !
 ! R16   R(8,9)                  1.4003         estimate D2E/DX2                !
 ! R17   R(8,17)                 1.4043         estimate D2E/DX2                !
 ! R18   R(9,10)                 1.0898         estimate D2E/DX2                !
 ! R19   R(9,11)                 1.4003         estimate D2E/DX2                !
 ! R20   R(11,12)                1.3929         estimate D2E/DX2                !
 ! R21   R(11,16)                1.0921         estimate D2E/DX2                !
 ! R22   R(12,13)                1.4008         estimate D2E/DX2                !
 ! R23   R(12,40)                1.0917         estimate D2E/DX2                !
 ! R24   R(13,27)                1.0915         estimate D2E/DX2                !
 ! R25   R(17,18)                1.427          estimate D2E/DX2                !
 ! R26   R(18,19)                1.3992         estimate D2E/DX2                !
 ! R27   R(18,20)                1.3993         estimate D2E/DX2                !
 ! R28   R(19,21)                1.3968         estimate D2E/DX2                !
 ! R29   R(19,43)                1.0917         estimate D2E/DX2                !
 ! R30   R(20,22)                1.3967         estimate D2E/DX2                !
 ! R31   R(20,23)                1.0917         estimate D2E/DX2                !
 ! R32   R(21,24)                1.3982         estimate D2E/DX2                !
 ! R33   R(21,42)                1.0924         estimate D2E/DX2                !
 ! R34   R(22,24)                1.3983         estimate D2E/DX2                !
 ! R35   R(22,25)                1.0924         estimate D2E/DX2                !
 ! R36   R(24,26)                1.0925         estimate D2E/DX2                !
 ! R37   R(29,30)                1.4074         estimate D2E/DX2                !
 ! R38   R(29,31)                1.4075         estimate D2E/DX2                !
 ! R39   R(30,32)                1.3954         estimate D2E/DX2                !
 ! R40   R(30,33)                1.0919         estimate D2E/DX2                !
 ! R41   R(31,34)                1.3953         estimate D2E/DX2                !
 ! R42   R(31,35)                1.0919         estimate D2E/DX2                !
 ! R43   R(32,36)                1.3977         estimate D2E/DX2                !
 ! R44   R(32,37)                1.0929         estimate D2E/DX2                !
 ! R45   R(34,36)                1.3978         estimate D2E/DX2                !
 ! R46   R(34,38)                1.0929         estimate D2E/DX2                !
 ! R47   R(36,41)                1.0925         estimate D2E/DX2                !
 ! A1    A(2,1,6)              121.3582         estimate D2E/DX2                !
 ! A2    A(2,1,28)             118.7876         estimate D2E/DX2                !
 ! A3    A(6,1,28)             119.8324         estimate D2E/DX2                !
 ! A4    A(1,2,3)              120.9558         estimate D2E/DX2                !
 ! A5    A(1,2,14)             119.8468         estimate D2E/DX2                !
 ! A6    A(3,2,14)             119.195          estimate D2E/DX2                !
 ! A7    A(2,3,4)              117.8137         estimate D2E/DX2                !
 ! A8    A(2,3,17)             122.9977         estimate D2E/DX2                !
 ! A9    A(4,3,17)             119.1887         estimate D2E/DX2                !
 ! A10   A(3,4,5)              121.0803         estimate D2E/DX2                !
 ! A11   A(3,4,39)             121.5099         estimate D2E/DX2                !
 ! A12   A(5,4,39)             117.4077         estimate D2E/DX2                !
 ! A13   A(4,5,6)              121.2941         estimate D2E/DX2                !
 ! A14   A(4,5,15)             117.4555         estimate D2E/DX2                !
 ! A15   A(6,5,15)             121.2317         estimate D2E/DX2                !
 ! A16   A(1,6,5)              117.4979         estimate D2E/DX2                !
 ! A17   A(1,6,29)             121.6187         estimate D2E/DX2                !
 ! A18   A(5,6,29)             120.8828         estimate D2E/DX2                !
 ! A19   A(8,7,13)             120.8618         estimate D2E/DX2                !
 ! A20   A(8,7,39)             121.6356         estimate D2E/DX2                !
 ! A21   A(13,7,39)            117.5025         estimate D2E/DX2                !
 ! A22   A(7,8,9)              118.3418         estimate D2E/DX2                !
 ! A23   A(7,8,17)             118.9827         estimate D2E/DX2                !
 ! A24   A(9,8,17)             122.6755         estimate D2E/DX2                !
 ! A25   A(8,9,10)             119.1421         estimate D2E/DX2                !
 ! A26   A(8,9,11)             120.7185         estimate D2E/DX2                !
 ! A27   A(10,9,11)            120.1394         estimate D2E/DX2                !
 ! A28   A(9,11,12)            120.3665         estimate D2E/DX2                !
 ! A29   A(9,11,16)            119.2352         estimate D2E/DX2                !
 ! A30   A(12,11,16)           120.3983         estimate D2E/DX2                !
 ! A31   A(11,12,13)           119.4157         estimate D2E/DX2                !
 ! A32   A(11,12,40)           120.7237         estimate D2E/DX2                !
 ! A33   A(13,12,40)           119.8605         estimate D2E/DX2                !
 ! A34   A(7,13,12)            120.2957         estimate D2E/DX2                !
 ! A35   A(7,13,27)            117.9474         estimate D2E/DX2                !
 ! A36   A(12,13,27)           121.7569         estimate D2E/DX2                !
 ! A37   A(3,17,8)             119.5615         estimate D2E/DX2                !
 ! A38   A(3,17,18)            120.1665         estimate D2E/DX2                !
 ! A39   A(8,17,18)            120.2672         estimate D2E/DX2                !
 ! A40   A(17,18,19)           119.9445         estimate D2E/DX2                !
 ! A41   A(17,18,20)           119.9506         estimate D2E/DX2                !
 ! A42   A(19,18,20)           120.1048         estimate D2E/DX2                !
 ! A43   A(18,19,21)           119.8882         estimate D2E/DX2                !
 ! A44   A(18,19,43)           119.0177         estimate D2E/DX2                !
 ! A45   A(21,19,43)           121.0941         estimate D2E/DX2                !
 ! A46   A(18,20,22)           119.8896         estimate D2E/DX2                !
 ! A47   A(18,20,23)           119.023          estimate D2E/DX2                !
 ! A48   A(22,20,23)           121.0874         estimate D2E/DX2                !
 ! A49   A(19,21,24)           120.0508         estimate D2E/DX2                !
 ! A50   A(19,21,42)           119.8303         estimate D2E/DX2                !
 ! A51   A(24,21,42)           120.1189         estimate D2E/DX2                !
 ! A52   A(20,22,24)           120.0495         estimate D2E/DX2                !
 ! A53   A(20,22,25)           119.8307         estimate D2E/DX2                !
 ! A54   A(24,22,25)           120.1198         estimate D2E/DX2                !
 ! A55   A(21,24,22)           120.0171         estimate D2E/DX2                !
 ! A56   A(21,24,26)           119.991          estimate D2E/DX2                !
 ! A57   A(22,24,26)           119.9919         estimate D2E/DX2                !
 ! A58   A(6,29,30)            121.0755         estimate D2E/DX2                !
 ! A59   A(6,29,31)            121.004          estimate D2E/DX2                !
 ! A60   A(30,29,31)           117.9205         estimate D2E/DX2                !
 ! A61   A(29,30,32)           121.0564         estimate D2E/DX2                !
 ! A62   A(29,30,33)           119.455          estimate D2E/DX2                !
 ! A63   A(32,30,33)           119.4711         estimate D2E/DX2                !
 ! A64   A(29,31,34)           121.0598         estimate D2E/DX2                !
 ! A65   A(29,31,35)           119.4046         estimate D2E/DX2                !
 ! A66   A(34,31,35)           119.517          estimate D2E/DX2                !
 ! A67   A(30,32,36)           120.3154         estimate D2E/DX2                !
 ! A68   A(30,32,37)           119.6219         estimate D2E/DX2                !
 ! A69   A(36,32,37)           120.0605         estimate D2E/DX2                !
 ! A70   A(31,34,36)           120.3125         estimate D2E/DX2                !
 ! A71   A(31,34,38)           119.6301         estimate D2E/DX2                !
 ! A72   A(36,34,38)           120.0542         estimate D2E/DX2                !
 ! A73   A(32,36,34)           119.335          estimate D2E/DX2                !
 ! A74   A(32,36,41)           120.3326         estimate D2E/DX2                !
 ! A75   A(34,36,41)           120.3324         estimate D2E/DX2                !
 ! A76   A(4,39,7)             119.1203         estimate D2E/DX2                !
 ! D1    D(6,1,2,3)             -0.0361         estimate D2E/DX2                !
 ! D2    D(6,1,2,14)           179.3878         estimate D2E/DX2                !
 ! D3    D(28,1,2,3)          -178.3341         estimate D2E/DX2                !
 ! D4    D(28,1,2,14)            1.0898         estimate D2E/DX2                !
 ! D5    D(2,1,6,5)             -0.0516         estimate D2E/DX2                !
 ! D6    D(2,1,6,29)          -179.7798         estimate D2E/DX2                !
 ! D7    D(28,1,6,5)           178.2289         estimate D2E/DX2                !
 ! D8    D(28,1,6,29)           -1.4994         estimate D2E/DX2                !
 ! D9    D(1,2,3,4)              0.1064         estimate D2E/DX2                !
 ! D10   D(1,2,3,17)          -179.8757         estimate D2E/DX2                !
 ! D11   D(14,2,3,4)          -179.3212         estimate D2E/DX2                !
 ! D12   D(14,2,3,17)            0.6967         estimate D2E/DX2                !
 ! D13   D(2,3,4,5)             -0.0907         estimate D2E/DX2                !
 ! D14   D(2,3,4,39)          -179.5479         estimate D2E/DX2                !
 ! D15   D(17,3,4,5)           179.8921         estimate D2E/DX2                !
 ! D16   D(17,3,4,39)            0.4348         estimate D2E/DX2                !
 ! D17   D(2,3,17,8)           179.6234         estimate D2E/DX2                !
 ! D18   D(2,3,17,18)            0.4169         estimate D2E/DX2                !
 ! D19   D(4,3,17,8)            -0.3584         estimate D2E/DX2                !
 ! D20   D(4,3,17,18)         -179.5649         estimate D2E/DX2                !
 ! D21   D(3,4,5,6)              0.0039         estimate D2E/DX2                !
 ! D22   D(3,4,5,15)          -178.4452         estimate D2E/DX2                !
 ! D23   D(39,4,5,6)           179.4826         estimate D2E/DX2                !
 ! D24   D(39,4,5,15)            1.0336         estimate D2E/DX2                !
 ! D25   D(3,4,39,7)            -0.241          estimate D2E/DX2                !
 ! D26   D(5,4,39,7)          -179.7174         estimate D2E/DX2                !
 ! D27   D(4,5,6,1)              0.0674         estimate D2E/DX2                !
 ! D28   D(4,5,6,29)           179.7978         estimate D2E/DX2                !
 ! D29   D(15,5,6,1)           178.4579         estimate D2E/DX2                !
 ! D30   D(15,5,6,29)           -1.8117         estimate D2E/DX2                !
 ! D31   D(1,6,29,30)          146.1616         estimate D2E/DX2                !
 ! D32   D(1,6,29,31)          -33.7908         estimate D2E/DX2                !
 ! D33   D(5,6,29,30)          -33.5576         estimate D2E/DX2                !
 ! D34   D(5,6,29,31)          146.4901         estimate D2E/DX2                !
 ! D35   D(13,7,8,9)             0.0216         estimate D2E/DX2                !
 ! D36   D(13,7,8,17)         -179.9533         estimate D2E/DX2                !
 ! D37   D(39,7,8,9)          -179.9326         estimate D2E/DX2                !
 ! D38   D(39,7,8,17)            0.0925         estimate D2E/DX2                !
 ! D39   D(8,7,13,12)           -0.0161         estimate D2E/DX2                !
 ! D40   D(8,7,13,27)          179.9817         estimate D2E/DX2                !
 ! D41   D(39,7,13,12)         179.9399         estimate D2E/DX2                !
 ! D42   D(39,7,13,27)          -0.0623         estimate D2E/DX2                !
 ! D43   D(8,7,39,4)            -0.0252         estimate D2E/DX2                !
 ! D44   D(13,7,39,4)         -179.9809         estimate D2E/DX2                !
 ! D45   D(7,8,9,10)           179.9916         estimate D2E/DX2                !
 ! D46   D(7,8,9,11)            -0.0082         estimate D2E/DX2                !
 ! D47   D(17,8,9,10)           -0.0344         estimate D2E/DX2                !
 ! D48   D(17,8,9,11)          179.9658         estimate D2E/DX2                !
 ! D49   D(7,8,17,3)             0.1042         estimate D2E/DX2                !
 ! D50   D(7,8,17,18)          179.3099         estimate D2E/DX2                !
 ! D51   D(9,8,17,3)          -179.8696         estimate D2E/DX2                !
 ! D52   D(9,8,17,18)           -0.6639         estimate D2E/DX2                !
 ! D53   D(8,9,11,12)           -0.0109         estimate D2E/DX2                !
 ! D54   D(8,9,11,16)          179.9928         estimate D2E/DX2                !
 ! D55   D(10,9,11,12)         179.9894         estimate D2E/DX2                !
 ! D56   D(10,9,11,16)          -0.0069         estimate D2E/DX2                !
 ! D57   D(9,11,12,13)           0.0166         estimate D2E/DX2                !
 ! D58   D(9,11,12,40)        -179.9906         estimate D2E/DX2                !
 ! D59   D(16,11,12,13)       -179.9871         estimate D2E/DX2                !
 ! D60   D(16,11,12,40)          0.0057         estimate D2E/DX2                !
 ! D61   D(11,12,13,7)          -0.0032         estimate D2E/DX2                !
 ! D62   D(11,12,13,27)        179.9991         estimate D2E/DX2                !
 ! D63   D(40,12,13,7)        -179.9961         estimate D2E/DX2                !
 ! D64   D(40,12,13,27)          0.0061         estimate D2E/DX2                !
 ! D65   D(3,17,18,19)         -90.1034         estimate D2E/DX2                !
 ! D66   D(3,17,18,20)          89.8385         estimate D2E/DX2                !
 ! D67   D(8,17,18,19)          90.6957         estimate D2E/DX2                !
 ! D68   D(8,17,18,20)         -89.3624         estimate D2E/DX2                !
 ! D69   D(17,18,19,21)        179.9361         estimate D2E/DX2                !
 ! D70   D(17,18,19,43)         -0.0443         estimate D2E/DX2                !
 ! D71   D(20,18,19,21)         -0.0057         estimate D2E/DX2                !
 ! D72   D(20,18,19,43)       -179.9861         estimate D2E/DX2                !
 ! D73   D(17,18,20,22)       -179.951          estimate D2E/DX2                !
 ! D74   D(17,18,20,23)          0.0552         estimate D2E/DX2                !
 ! D75   D(19,18,20,22)         -0.0091         estimate D2E/DX2                !
 ! D76   D(19,18,20,23)        179.997          estimate D2E/DX2                !
 ! D77   D(18,19,21,24)          0.0147         estimate D2E/DX2                !
 ! D78   D(18,19,21,42)       -179.9882         estimate D2E/DX2                !
 ! D79   D(43,19,21,24)        179.9947         estimate D2E/DX2                !
 ! D80   D(43,19,21,42)         -0.0082         estimate D2E/DX2                !
 ! D81   D(18,20,22,24)          0.015          estimate D2E/DX2                !
 ! D82   D(18,20,22,25)       -179.995          estimate D2E/DX2                !
 ! D83   D(23,20,22,24)       -179.9913         estimate D2E/DX2                !
 ! D84   D(23,20,22,25)         -0.0014         estimate D2E/DX2                !
 ! D85   D(19,21,24,22)         -0.0088         estimate D2E/DX2                !
 ! D86   D(19,21,24,26)        179.9956         estimate D2E/DX2                !
 ! D87   D(42,21,24,22)        179.9941         estimate D2E/DX2                !
 ! D88   D(42,21,24,26)         -0.0015         estimate D2E/DX2                !
 ! D89   D(20,22,24,21)         -0.006          estimate D2E/DX2                !
 ! D90   D(20,22,24,26)        179.9895         estimate D2E/DX2                !
 ! D91   D(25,22,24,21)       -179.996          estimate D2E/DX2                !
 ! D92   D(25,22,24,26)         -0.0004         estimate D2E/DX2                !
 ! D93   D(6,29,30,32)        -179.8998         estimate D2E/DX2                !
 ! D94   D(6,29,30,33)          -1.4335         estimate D2E/DX2                !
 ! D95   D(31,29,30,32)          0.0541         estimate D2E/DX2                !
 ! D96   D(31,29,30,33)        178.5203         estimate D2E/DX2                !
 ! D97   D(6,29,31,34)         179.7486         estimate D2E/DX2                !
 ! D98   D(6,29,31,35)          -1.8262         estimate D2E/DX2                !
 ! D99   D(30,29,31,34)         -0.2052         estimate D2E/DX2                !
 ! D100  D(30,29,31,35)        178.22           estimate D2E/DX2                !
 ! D101  D(29,30,32,36)          0.095          estimate D2E/DX2                !
 ! D102  D(29,30,32,37)        179.5477         estimate D2E/DX2                !
 ! D103  D(33,30,32,36)       -178.371          estimate D2E/DX2                !
 ! D104  D(33,30,32,37)          1.0816         estimate D2E/DX2                !
 ! D105  D(29,31,34,36)          0.2084         estimate D2E/DX2                !
 ! D106  D(29,31,34,38)        179.5541         estimate D2E/DX2                !
 ! D107  D(35,31,34,36)       -178.2151         estimate D2E/DX2                !
 ! D108  D(35,31,34,38)          1.1306         estimate D2E/DX2                !
 ! D109  D(30,32,36,34)         -0.0951         estimate D2E/DX2                !
 ! D110  D(30,32,36,41)        179.9721         estimate D2E/DX2                !
 ! D111  D(37,32,36,34)       -179.5453         estimate D2E/DX2                !
 ! D112  D(37,32,36,41)          0.5219         estimate D2E/DX2                !
 ! D113  D(31,34,36,32)         -0.0549         estimate D2E/DX2                !
 ! D114  D(31,34,36,41)        179.878          estimate D2E/DX2                !
 ! D115  D(38,34,36,32)       -179.3978         estimate D2E/DX2                !
 ! D116  D(38,34,36,41)          0.5351         estimate D2E/DX2                !
 --------------------------------------------------------------------------------
 Trust Radius=3.00D-01 FncErr=1.00D-07 GrdErr=1.00D-06
 Number of steps in this run=    249 maximum allowed number of steps=    258.
 GradGradGradGradGradGradGradGradGradGradGradGradGradGradGradGradGradGrad

 Leave Link  103 at Wed Feb 17 09:09:25 2021, MaxMem=  5242880000 cpu:         0.2
 (Enter /opt/nce/packages/global/g09/l202.exe)
                          Input orientation:                          
 ---------------------------------------------------------------------
 Center     Atomic      Atomic             Coordinates (Angstroms)
 Number     Number       Type             X           Y           Z
 ---------------------------------------------------------------------
      1          6           0        1.785933   -1.363801   -0.052190
      2          6           0        0.388642   -1.347400   -0.057455
      3          6           0       -0.317433   -0.139456   -0.014525
      4          6           0        0.427985    1.057471    0.031785
      5          6           0        1.813996    1.037582    0.036545
      6          6           0        2.529015   -0.176578   -0.004696
      7          6           0       -1.559629    2.345046    0.087970
      8          6           0       -2.351967    1.178536    0.037393
      9          6           0       -3.745098    1.320423    0.042555
     10          1           0       -4.369580    0.428127    0.003716
     11          6           0       -4.334654    2.589388    0.096781
     12          6           0       -3.541048    3.732954    0.146776
     13          6           0       -2.146249    3.603197    0.142013
     14          1           0       -0.164580   -2.285090   -0.104932
     15          1           0        2.330393    1.996039    0.099585
     16          1           0       -5.423615    2.671912    0.099475
     17          7           0       -1.717556   -0.073207   -0.015355
     18          6           0       -2.492131   -1.271173   -0.052397
     19          6           0       -2.870646   -1.820389   -1.282383
     20          6           0       -2.870868   -1.895395    1.141310
     21          6           0       -3.627666   -2.993731   -1.317290
     22          6           0       -3.628108   -3.068412    1.103551
     23          1           0       -2.565880   -1.451680    2.090957
     24          6           0       -4.006764   -3.618116   -0.125087
     25          1           0       -3.923330   -3.554899    2.036068
     26          1           0       -4.598904   -4.535735   -0.153526
     27          1           0       -1.488252    4.473175    0.180065
     28          1           0        2.300401   -2.324059   -0.114336
     29          6           0        4.010864   -0.187051   -0.003706
     30          6           0        4.745003    0.834719   -0.634527
     31          6           0        4.728176   -1.220441    0.627745
     32          6           0        6.140355    0.823366   -0.635133
     33          1           0        4.214065    1.635766   -1.152930
     34          6           0        6.123372   -1.234209    0.624922
     35          1           0        4.183453   -2.009825    1.149670
     36          6           0        6.837718   -0.211821   -0.006196
     37          1           0        6.686858    1.624795   -1.138560
     38          1           0        6.656756   -2.044190    1.128779
     39          8           0       -0.186951    2.284584    0.084910
     40          1           0       -3.994493    4.725097    0.189334
     41          1           0        7.930226   -0.221229   -0.006892
     42          1           0       -3.922512   -3.421820   -2.278139
     43          1           0       -2.565305   -1.318859   -2.202691
 ---------------------------------------------------------------------
                    Distance matrix (angstroms):
                    1          2          3          4          5
     1  C    0.000000
     2  C    1.397397   0.000000
     3  C    2.434048   1.399826   0.000000
     4  C    2.777343   2.406848   1.410825   0.000000
     5  C    2.403186   2.780038   2.435368   1.386162   0.000000
     6  C    1.401401   2.440247   2.846707   2.436911   1.409659
     7  C    4.996797   4.177447   2.779623   2.368885   3.618488
     8  C    4.857337   3.728309   2.424691   2.782593   4.168347
     9  C    6.148686   4.920883   3.726042   4.181373   5.566288
    10  H    6.411277   5.079066   4.091745   4.838749   6.213624
    11  C    7.287762   6.150741   4.857679   5.003371   6.341737
    12  C    7.375176   6.426054   5.041158   4.787970   5.996139
    13  C    6.338047   5.565417   4.168516   3.622092   4.719856
    14  H    2.157790   1.089757   2.152971   3.397431   3.869745
    15  H    3.407051   3.869579   3.403578   2.122419   1.090541
    16  H    8.263629   7.068368   5.830084   6.070603   7.420108
    17  N    3.733822   2.461993   1.401690   2.425696   3.702486
    18  C    4.279067   2.881786   2.451842   3.735873   4.886818
    19  C    4.837931   3.513848   3.309365   4.570567   5.643885
    20  C    4.836613   3.515927   3.307462   4.564307   5.636560
    21  C    5.793462   4.519770   4.560891   5.889019   6.906232
    22  C    5.792519   4.521515   4.559545   5.884172   6.900303
    23  H    4.851709   3.654552   3.348209   4.415796   5.440620
    24  C    6.216316   4.947759   5.071929   6.446140   7.455394
    25  H    6.461998   5.277215   5.373330   6.650192   7.616159
    26  H    7.130048   5.920331   6.138207   7.522493   8.498428
    27  H    6.696605   6.120314   4.762882   3.919309   4.767467
    28  H    1.091162   2.147538   3.411086   3.868079   3.399998
    29  C    2.517421   3.803918   4.328572   3.793035   2.515467
    30  C    3.732118   4.906377   5.192464   4.373812   3.013684
    31  C    3.023187   4.395131   5.199924   4.902621   3.733715
    32  C    4.907597   6.174799   6.558598   5.755932   4.383426
    33  H    4.013086   4.973249   4.998185   4.009037   2.744632
    34  C    4.391885   5.776295   6.564400   6.167742   4.906928
    35  H    2.758608   4.036898   5.011148   4.976094   4.017470
    36  C    5.181670   6.548492   7.155522   6.534311   5.176931
    37  H    5.842172   7.047713   7.310002   6.392578   5.046828
    38  H    5.057918   6.417314   7.319458   7.044238   5.843169
    39  O    4.149913   3.680066   2.429585   1.373599   2.358207
    40  H    8.399187   7.493197   6.101328   5.747575   6.881835
    41  H    6.249789   7.625373   8.248068   7.610531   6.244579
    42  H    6.463485   5.274534   5.375356   6.657824   7.625717
    43  H    4.853859   3.650843   3.351416   4.427145   5.453922
                    6          7          8          9         10
     6  C    0.000000
     7  C    4.804600   0.000000
     8  C    5.065776   1.411065   0.000000
     9  C    6.450406   2.414164   1.400347   0.000000
    10  H    6.925052   3.402573   2.152907   1.089807   0.000000
    11  C    7.400731   2.785775   2.434148   1.400282   2.163546
    12  C    7.221707   2.419869   2.819739   2.423387   3.410105
    13  C    6.013844   1.389240   2.435620   2.788775   3.878582
    14  H    3.422181   4.839580   4.098978   5.083462   5.005535
    15  H    2.184168   3.905664   4.753596   6.113207   6.881655
    16  H    8.448022   3.877804   3.415999   2.155732   2.480873
    17  N    4.247842   2.425606   1.404322   2.460993   2.699061
    18  C    5.139292   3.737152   2.455358   2.880158   2.532900
    19  C    5.787136   4.576842   3.317286   3.519208   2.992771
    20  C    5.781557   4.561821   3.307105   3.508992   2.989818
    21  C    6.896664   5.895258   4.568412   4.524919   3.742273
    22  C    6.892103   5.883497   4.560899   4.516777   3.739679
    23  H    5.654697   4.409039   3.343788   3.642947   3.338201
    24  C    7.387495   6.449276   5.076674   4.948307   4.064518
    25  H    7.563764   6.647670   5.373015   5.270164   4.493783
    26  H    8.356532   7.525999   6.143132   5.921319   4.971644
    27  H    6.147583   2.131316   3.408960   3.879705   4.969463
    28  H    2.162397   6.061460   5.825437   7.060802   7.216447
    29  C    1.481886   6.119666   6.507852   7.901238   8.402996
    30  C    2.515951   6.523149   7.136993   8.530895   9.145944
    31  C    2.515142   7.248486   7.498802   8.865371   9.266949
    32  C    3.799884   7.882141   8.526310   9.921114  10.536749
    33  H    2.728081   5.947979   6.688700   8.054620   8.745009
    34  C    3.799264   8.492814   8.831642  10.210387  10.641959
    35  H    2.725898   7.285266   7.356257   8.670535   8.967229
    36  C    4.308847   8.778489   9.294369  10.693276  11.225558
    37  H    4.671001   8.368255   9.125917  10.503018  11.179518
    38  H    4.670223   9.373242   9.629859  10.986313  11.355977
    39  O    3.666309   1.374012   2.431644   3.686707   4.576834
    40  H    8.162121   3.406388   3.911403   3.416950   4.317302
    41  H    5.401396   9.831181  10.377129  11.776771  12.316940
    42  H    7.571152   6.666216   5.384383   5.282610   4.497646
    43  H    5.664635   4.436520   3.361617   3.660444   3.342993
                   11         12         13         14         15
    11  C    0.000000
    12  C    1.392858   0.000000
    13  C    2.412254   1.400830   0.000000
    14  H    6.418001   6.905125   6.217710   0.000000
    15  H    6.691407   6.123146   4.756583   4.959313   0.000000
    16  H    1.092087   2.161505   3.407379   7.229876   7.783408
    17  N    3.735129   4.223538   3.704658   2.704105   4.547624
    18  C    4.280313   5.116755   4.890492   2.539347   5.827050
    19  C    4.846808   5.773348   5.654108   2.987496   6.597406
    20  C    4.831872   5.754698   5.635440   3.004825   6.578873
    21  C    5.802641   6.884714   6.916908   3.736971   7.899608
    22  C    5.789948   6.868885   6.901509   3.751007   7.884183
    23  H    4.841026   5.622386   5.433807   3.358979   6.310770
    24  C    6.220116   7.370823   7.461918   4.066908   8.469284
    25  H    6.456182   7.538459   7.614709   4.508270   8.583235
    26  H    7.134414   8.341490   8.505591   4.973027   9.525927
    27  H    3.414322   2.182431   1.091453   6.892567   4.552442
    28  H    8.258964   8.418914   7.414228   2.465307   4.325495
    29  C    8.795816   8.510021   7.231684   4.674008   2.756907
    30  C    9.276521   8.812993   7.467050   5.841035   2.778116
    31  C    9.845385   9.651296   8.411964   5.060569   4.046487
    32  C   10.648021  10.139361   8.774920   7.049526   4.053490
    33  H    8.692052   8.138133   6.782423   5.970255   2.290592
    34  C   11.147607  10.876688   9.592723   6.416804   5.009708
    35  H    9.737530   9.677460   8.519772   4.533783   4.536899
    36  C   11.518649  11.104208   9.761557   7.303449   5.020141
    37  H   11.132396  10.521715   9.142085   7.955991   4.544184
    38  H   11.972726  11.761587  10.505217   6.936188   6.008336
    39  O    4.158904   3.653980   2.362382   4.573670   2.533869
    40  H    2.164608   1.091683   2.162615   7.993594   6.889122
    41  H   12.583227  12.134632  10.778857   8.354341   6.023765
    42  H    6.476475   7.564160   7.639575   4.487431   8.608460
    43  H    4.867501   5.656225   5.468078   3.331317   6.344831
                   16         17         18         19         20
    16  H    0.000000
    17  N    4.613430   0.000000
    18  C    4.915748   1.427046   0.000000
    19  C    5.348640   2.446962   1.399206   0.000000
    20  C    5.335001   2.447115   1.399297   2.424853   0.000000
    21  C    6.110005   3.724650   2.420041   1.396792   2.797105
    22  C    6.097814   3.724703   2.420068   2.797140   1.396713
    23  H    5.397839   2.656387   2.152205   3.407088   1.091664
    24  C    6.451538   4.221243   2.794197   2.421140   2.421113
    25  H    6.691369   4.603906   3.409607   3.889574   2.159218
    26  H    7.259086   5.313701   3.886655   3.410909   3.410880
    27  H    4.328756   4.556354   5.836039   6.607474   6.587435
    28  H    9.201406   4.606529   4.907216   5.325199   5.338766
    29  C    9.858687   5.729563   6.592923   7.187349   7.182460
    30  C   10.359287   6.555332   7.559746   8.091194   8.283031
    31  C   10.885235   6.578540   7.252448   7.858156   7.646227
    32  C   11.733805   7.933141   8.902050   9.413103   9.578599
    33  H    9.773791   6.276846   7.391518   7.883838   8.241900
    34  C   12.201098   7.952234   8.642165   9.212697   9.033282
    35  H   10.738591   6.318994   6.823049   7.463986   7.055254
    36  C   12.596324   8.556402   9.389912   9.923128   9.920072
    37  H   12.218541   8.647484   9.686084  10.160505  10.437417
    38  H   13.009091   8.678878   9.257152   9.830319   9.528794
    39  O    5.250989   2.812825   4.239825   5.091416   5.078545
    40  H    2.503205   5.315079   6.186338   6.802380   6.782308
    41  H   13.664064   9.648921  10.475208  10.992863  10.990215
    42  H    6.711179   4.603828   3.409575   2.159290   3.889545
    43  H    5.421822   2.656081   2.152067   1.091665   3.407067
                   21         22         23         24         25
    21  C    0.000000
    22  C    2.421993   0.000000
    23  H    3.888632   2.171893   0.000000
    24  C    1.398185   1.398251   3.417666   0.000000
    25  H    3.412819   1.092435   2.503840   2.163689   0.000000
    26  H    2.162273   2.162342   4.322301   1.092457   2.492541
    27  H    7.910363   7.893500   6.317966   8.479682   8.592108
    28  H    6.085847   6.097912   5.413414   6.438558   6.698808
    29  C    8.243185   8.239063   7.017155   8.721772   8.857455
    30  C    9.231727   9.400231   8.130492   9.832634  10.076747
    31  C    8.760583   8.571398   7.442964   9.089267   9.070922
    32  C   10.509510  10.657947   9.402443  11.088324  11.295232
    33  H    9.107799   9.419165   8.125440   9.810289  10.165132
    34  C   10.097071   9.934020   8.814741  10.433848  10.407361
    35  H    8.250306   7.883097   6.837473   8.443415   8.300174
    36  C   10.907899  10.905281   9.714060  11.367487  11.451950
    37  H   11.302749  11.552133  10.271691  11.952774  12.226348
    38  H   10.613869  10.335768   9.291602  10.851732  10.725840
    39  O    6.454866   6.444669   4.862427   7.033984   7.201882
    40  H    7.873042   7.855496   6.618888   8.349145   8.483739
    41  H   11.957792  11.955527  10.774192  12.411468  12.481740
    42  H    1.092440   3.412828   4.981054   2.163623   4.316259
    43  H    2.172036   3.888666   4.295702   3.417722   4.981083
                   26         27         28         29         30
    26  H    0.000000
    27  H    9.536661   0.000000
    28  H    7.245237   7.787359   0.000000
    29  C    9.646844   7.210531   2.739475   0.000000
    30  C   10.788037   7.263291   4.027972   1.407448   0.000000
    31  C    9.929551   8.441662   2.768167   1.407537   2.411907
    32  C   12.011811   8.495958   4.992270   2.440159   1.395398
    33  H   10.805307   6.507241   4.518960   2.164409   1.091931
    34  C   11.246033   9.524125   4.043437   2.440165   2.786858
    35  H    9.230836   8.668198   2.289615   2.163924   3.404428
    36  C   12.227602   9.555399   5.006045   2.826964   2.422705
    37  H   12.895381   8.756967   5.990283   3.425146   2.156170
    38  H   11.599223  10.474601   4.538886   3.425235   3.879712
    39  O    8.126434   2.548013   5.240821   4.872215   5.190748
    40  H    9.286866   2.518888   9.455607   9.394264   9.601697
    41  H   13.252002  10.525213   6.010688   3.919512   3.413883
    42  H    2.492447   8.619706   6.679204   8.864267   9.795172
    43  H    4.322371   6.354937   5.389504   7.025847   7.780594
                   31         32         33         34         35
    31  C    0.000000
    32  C    2.786801   0.000000
    33  H    3.404854   2.153764   0.000000
    34  C    1.395267   2.412808   3.878526   0.000000
    35  H    1.091905   3.878396   4.311988   2.154118   0.000000
    36  C    2.422677   1.397673   3.407658   1.397812   3.407927
    37  H    3.879644   1.092883   2.472859   3.406067   4.971267
    38  H    2.156158   3.406014   4.971419   1.092904   2.473630
    39  O    6.061216   6.533638   4.617592   7.245253   6.219011
    40  H   10.565348  10.891207   8.872771  11.750500  10.637679
    41  H    3.413841   2.165526   4.309488   2.165650   4.309875
    42  H    9.387472  11.044563   9.646199  10.683314   8.913488
    43  H    7.824060   9.101367   7.469382   9.137596   7.567132
                   36         37         38         39         40
    36  C    0.000000
    37  H    2.162907   0.000000
    38  H    2.162982   4.313141   0.000000
    39  O    7.455623   7.012949   8.164819   0.000000
    40  H   11.905805  11.201180  12.655232   4.523758   0.000000
    41  H    1.092549   2.496886   2.496930   8.495651  12.911374
    42  H   11.456368  11.803631  11.199369   7.218134   8.512688
    43  H    9.719412   9.767292   9.832152   4.886153   6.655356
                   41         42         43
    41  H    0.000000
    42  H   12.485581   0.000000
    43  H   10.778798   2.504026   0.000000
 Symmetry turned off by external request.
 Stoichiometry    C24H17NO
 Framework group  C1[X(C24H17NO)]
 Deg. of freedom   123
 Full point group                 C1      NOp   1
 Rotational constants (GHZ):      0.3514864      0.1169876      0.0914309
 Leave Link  202 at Wed Feb 17 09:09:25 2021, MaxMem=  5242880000 cpu:         0.1
 (Enter /opt/nce/packages/global/g09/l301.exe)
 Standard basis: def2TZVP (5D, 7F)
 Ernie: Thresh=  0.10000D-02 Tol=  0.10000D-05 Strict=F.
   908 basis functions,  1462 primitive gaussians,  1038 cartesian basis functions
    88 alpha electrons       88 beta electrons
       nuclear repulsion energy      2053.5537558956 Hartrees.
 IExCor= 4134 DFT=T Ex+Corr=M06L ExCW=0 ScaHFX=  0.000000
 ScaDFX=  1.000000  1.000000  1.000000  1.000000 ScalE2=  1.000000  1.000000
 IRadAn=      5 IRanWt=     -1 IRanGd=            0 ICorTp=0 IEmpDi=  4
 NAtoms=   43 NActive=   43 NUniq=   43 SFac= 1.00D+00 NAtFMM=   60 NAOKFM=F Big=F
 Integral buffers will be    131072 words long.
 Raffenetti 2 integral format.
 Two-electron integral symmetry is turned off.
 ------------------------------------------------------------------------------
 Polarizable Continuum Model (PCM)
 =================================
 Model                : PCM (using non-symmetric T matrix).
 Atomic radii         : SMD-Coulomb.
 Polarization charges : Total charges.
 Charge compensation  : None.
 Solution method      : On-the-fly selection.
 Cavity type          : VdW (van der Waals Surface) (Alpha=1.000).
 Cavity algorithm     : GePol (No added spheres)
                        Default sphere list used, NSphG=   43.
                        Lebedev-Laikov grids with approx.  5.0 points / Ang**2.
                        Smoothing algorithm: York/Karplus (Gamma=1.0000).
                        Polarization charges: spherical gaussians, with
                                              point-specific exponents (IZeta= 3).
                        Self-potential: point-specific (ISelfS= 7).
                        Self-field    : sphere-specific E.n sum rule (ISelfD= 2).
 1st derivatives      : Analytical E(r).r(x)/FMM algorithm (CHGder, D1EAlg=3).
                        Cavity 1st derivative terms included.
 Solvent              : n,n-DiMethylAcetamide, Eps=  37.781000 Eps(inf)=   2.067844
 ------------------------------------------------------------------------------
 GePol: Number of generator spheres                  =      43
 GePol: Total number of spheres                      =      43
 GePol: Number of exposed spheres                    =      43 (100.00%)
 GePol: Number of points                             =    3372
 GePol: Average weight of points                     =       0.11
 GePol: Minimum weight of points                     =   0.29D-09
 GePol: Maximum weight of points                     =    0.17992
 GePol: Number of points with low weight             =     213
 GePol: Fraction of low-weight points (<1% of avg)   =       6.32%
 GePol: Cavity surface area                          =    362.523 Ang**2
 GePol: Cavity volume                                =    356.156 Ang**3
 ------------------------------------------------------------------------------
 Atomic radii for non-electrostatic terms: SMD-CDS.
 ------------------------------------------------------------------------------
 PCM non-electrostatic energy =        -0.0064083268 Hartrees.
 Nuclear repulsion after PCM non-electrostatic terms =     2053.5473475688 Hartrees.
 Leave Link  301 at Wed Feb 17 09:09:25 2021, MaxMem=  5242880000 cpu:         2.1
 (Enter /opt/nce/packages/global/g09/l302.exe)
 NPDir=0 NMtPBC=     1 NCelOv=     1 NCel=       1 NClECP=     1 NCelD=      1
         NCelK=      1 NCelE2=     1 NClLst=     1 CellRange=     0.0.
 One-electron integrals computed using PRISM.
   1 Symmetry operations used in ECPInt.
 ECPInt:  NShTT=   62835 NPrTT=  194376 LenC2=   51049 LenP2D=  109949.
 LDataN:  DoStor=T MaxTD1= 6 Len=  172
 NBasis=   908 RedAO= T EigKep=  5.07D-06  NBF=   908
 NBsUse=   908 1.00D-06 EigRej= -1.00D+00 NBFU=   908
 Precomputing XC quadrature grid using
 IXCGrd= 4 IRadAn=           5 IRanWt=          -1 IRanGd=           0 AccXCQ= 0.00D+00.
 Generated NRdTot=       0 NPtTot=           0 NUsed=           0 NTot=          32
 NSgBfM=   998   998   999   999  1001 MxSgAt=    43 MxSgA2=    43.
 Leave Link  302 at Wed Feb 17 09:09:27 2021, MaxMem=  5242880000 cpu:        21.8
 (Enter /opt/nce/packages/global/g09/l303.exe)
 DipDrv:  MaxL=1.
 Leave Link  303 at Wed Feb 17 09:09:27 2021, MaxMem=  5242880000 cpu:         2.5
 (Enter /opt/nce/packages/global/g09/l401.exe)
 ExpMin= 9.52D-02 ExpMax= 2.70D+04 ExpMxC= 9.22D+02 IAcc=3 IRadAn=         5 AccDes= 0.00D+00
 Harris functional with IExCor= 1009 and IRadAn=       5 diagonalized for initial guess.
 HarFok:  IExCor= 1009 AccDes= 0.00D+00 IRadAn=         5 IDoV= 1 UseB2=F ITyADJ=14
 ICtDFT=  3500011 ScaDFX=  1.000000  1.000000  1.000000  1.000000
 FoFCou: FMM=F IPFlag=           0 FMFlag=      100000 FMFlg1=           0
         NFxFlg=           0 DoJE=T BraDBF=F KetDBF=T FulRan=T
         wScrn=  0.000000 ICntrl=     500 IOpCl=  0 I1Cent=   200000004 NGrid=           0
         NMat0=    1 NMatS0=      1 NMatT0=    0 NMatD0=    1 NMtDS0=    0 NMtDT0=    0
 Symmetry not used in FoFCou.
 Harris En= -1054.22952523168    
 JPrj=0 DoOrth=F DoCkMO=F.
 Leave Link  401 at Wed Feb 17 09:09:35 2021, MaxMem=  5242880000 cpu:        93.9
 (Enter /opt/nce/packages/global/g09/l502.exe)
 Closed shell SCF:
 Using DIIS extrapolation, IDIIS=  1040.
 Two-electron integral symmetry not used.
 IVT=     3269652 IEndB=     3269652 NGot=  5242880000 MDV=  5240705471
 LenX=  5240705471 LenY=  5239626989
 Requested convergence on RMS density matrix=1.00D-08 within 128 cycles.
 Requested convergence on MAX density matrix=1.00D-06.
 Requested convergence on             energy=1.00D-06.
 No special actions if energy rises.
 Fock matrices will be formed incrementally for  20 cycles.

 Cycle   1  Pass 1  IDiag  1:
 FoFJK:  IHMeth= 1 ICntrl=     500 DoSepK=F KAlg= 0 I1Cent=   0 FoldK=F
 IRaf= 700000000 NMat=   1 IRICut=       1 DoRegI=T DoRafI=F ISym2E= 0.
 FoFCou: FMM=F IPFlag=           0 FMFlag=      100000 FMFlg1=           0
         NFxFlg=           0 DoJE=T BraDBF=F KetDBF=F FulRan=T
         wScrn=  0.000000 ICntrl=     500 IOpCl=  0 I1Cent=           0 NGrid=           0
         NMat0=    1 NMatS0=      1 NMatT0=    0 NMatD0=    1 NMtDS0=    0 NMtDT0=    0
 Symmetry not used in FoFCou.
 Inv3:  Mode=1 IEnd=    34111152.
 Iteration    1 A*A^-1 deviation from unit magnitude is 5.55D-15 for   3368.
 Iteration    1 A*A^-1 deviation from orthogonality  is 5.55D-15 for   3371    567.
 Iteration    1 A^-1*A deviation from unit magnitude is 5.11D-15 for   3368.
 Iteration    1 A^-1*A deviation from orthogonality  is 1.92D-09 for   2302   2281.
 Iteration    2 A*A^-1 deviation from unit magnitude is 2.22D-15 for   2806.
 Iteration    2 A*A^-1 deviation from orthogonality  is 2.95D-15 for   1686    404.
 Iteration    2 A^-1*A deviation from unit magnitude is 8.88D-16 for   3345.
 Iteration    2 A^-1*A deviation from orthogonality  is 5.00D-16 for   3337   1006.
 E= -1054.47606807645    
 DIIS: error= 2.02D-02 at cycle   1 NSaved=   1.
 NSaved= 1 IEnMin= 1 EnMin= -1054.47606807645     IErMin= 1 ErrMin= 2.02D-02
 ErrMax= 2.02D-02  0.00D+00 EMaxC= 1.00D-01 BMatC= 6.23D-01 BMatP= 6.23D-01
 IDIUse=3 WtCom= 7.98D-01 WtEn= 2.02D-01
 Coeff-Com:  0.100D+01
 Coeff-En:   0.100D+01
 Coeff:      0.100D+01
 Gap=     0.150 Goal=   None    Shift=    0.000
 GapD=    0.150 DampG=1.000 DampE=0.500 DampFc=0.5000 IDamp=-1.
 Damping current iteration by 5.00D-01
 RMSDP=2.68D-03 MaxDP=1.85D-01              OVMax= 2.87D-01

 Cycle   2  Pass 1  IDiag  1:
 RMSU=  1.33D-03    CP:  9.73D-01
 E= -1054.64529572934     Delta-E=       -0.169227652887 Rises=F Damp=T
 DIIS: error= 7.61D-03 at cycle   2 NSaved=   2.
 NSaved= 2 IEnMin= 2 EnMin= -1054.64529572934     IErMin= 2 ErrMin= 7.61D-03
 ErrMax= 7.61D-03  0.00D+00 EMaxC= 1.00D-01 BMatC= 1.01D-01 BMatP= 6.23D-01
 IDIUse=3 WtCom= 9.24D-01 WtEn= 7.61D-02
 Coeff-Com:  0.120D+00 0.880D+00
 Coeff-En:   0.294D+00 0.706D+00
 Coeff:      0.133D+00 0.867D+00
 Gap=     0.138 Goal=   None    Shift=    0.000
 RMSDP=1.38D-03 MaxDP=8.83D-02 DE=-1.69D-01 OVMax= 4.70D-01

 Cycle   3  Pass 1  IDiag  1:
 RMSU=  1.38D-03    CP:  9.52D-01  1.06D+00
 E= -1054.83745028927     Delta-E=       -0.192154559934 Rises=F Damp=F
 DIIS: error= 1.24D-02 at cycle   3 NSaved=   3.
 NSaved= 3 IEnMin= 3 EnMin= -1054.83745028927     IErMin= 2 ErrMin= 7.61D-03
 ErrMax= 1.24D-02  0.00D+00 EMaxC= 1.00D-01 BMatC= 1.55D-01 BMatP= 1.01D-01
 IDIUse=2 WtCom= 0.00D+00 WtEn= 1.00D+00
 Coeff-En:   0.000D+00 0.187D+00 0.813D+00
 Coeff:      0.000D+00 0.187D+00 0.813D+00
 Gap=     0.146 Goal=   None    Shift=    0.000
 RMSDP=1.35D-03 MaxDP=9.11D-02 DE=-1.92D-01 OVMax= 3.37D-01

 Cycle   4  Pass 1  IDiag  1:
 RMSU=  1.13D-03    CP:  9.32D-01  1.19D+00  4.82D-01
 E= -1054.46220107103     Delta-E=        0.375249218246 Rises=F Damp=F
 DIIS: error= 2.32D-02 at cycle   4 NSaved=   4.
 NSaved= 4 IEnMin= 3 EnMin= -1054.83745028927     IErMin= 2 ErrMin= 7.61D-03
 ErrMax= 2.32D-02  0.00D+00 EMaxC= 1.00D-01 BMatC= 4.97D-01 BMatP= 1.01D-01
 IDIUse=2 WtCom= 0.00D+00 WtEn= 1.00D+00
 Coeff-En:   0.000D+00 0.000D+00 0.693D+00 0.307D+00
 Coeff:      0.000D+00 0.000D+00 0.693D+00 0.307D+00
 Gap=     0.133 Goal=   None    Shift=    0.000
 RMSDP=5.95D-04 MaxDP=4.17D-02 DE= 3.75D-01 OVMax= 2.19D-01

 Cycle   5  Pass 1  IDiag  1:
 RMSU=  2.14D-04    CP:  9.41D-01  1.08D+00  7.01D-01  6.13D-01
 E= -1054.98829170136     Delta-E=       -0.526090630329 Rises=F Damp=F
 DIIS: error= 4.82D-03 at cycle   5 NSaved=   5.
 NSaved= 5 IEnMin= 5 EnMin= -1054.98829170136     IErMin= 5 ErrMin= 4.82D-03
 ErrMax= 4.82D-03  0.00D+00 EMaxC= 1.00D-01 BMatC= 2.45D-02 BMatP= 1.01D-01
 IDIUse=3 WtCom= 9.52D-01 WtEn= 4.82D-02
 Coeff-Com:  0.219D-02-0.310D-02 0.262D+00-0.188D-01 0.758D+00
 Coeff-En:   0.000D+00 0.000D+00 0.191D+00 0.000D+00 0.809D+00
 Coeff:      0.208D-02-0.295D-02 0.258D+00-0.179D-01 0.760D+00
 Gap=     0.100 Goal=   None    Shift=    0.000
 RMSDP=2.49D-04 MaxDP=1.71D-02 DE=-5.26D-01 OVMax= 8.17D-02

 Cycle   6  Pass 1  IDiag  1:
 RMSU=  8.97D-05    CP:  9.45D-01  1.07D+00  7.76D-01  4.32D-01  8.41D-01
 E= -1055.01309545858     Delta-E=       -0.024803757225 Rises=F Damp=F
 DIIS: error= 1.76D-03 at cycle   6 NSaved=   6.
 NSaved= 6 IEnMin= 6 EnMin= -1055.01309545858     IErMin= 6 ErrMin= 1.76D-03
 ErrMax= 1.76D-03  0.00D+00 EMaxC= 1.00D-01 BMatC= 1.81D-03 BMatP= 2.45D-02
 IDIUse=3 WtCom= 9.82D-01 WtEn= 1.76D-02
 Coeff-Com: -0.181D-02 0.729D-03 0.110D+00-0.571D-01 0.528D+00 0.420D+00
 Coeff-En:   0.000D+00 0.000D+00 0.000D+00 0.000D+00 0.000D+00 0.100D+01
 Coeff:     -0.178D-02 0.716D-03 0.108D+00-0.561D-01 0.519D+00 0.430D+00
 Gap=     0.100 Goal=   None    Shift=    0.000
 RMSDP=6.00D-05 MaxDP=4.68D-03 DE=-2.48D-02 OVMax= 1.40D-02

 Cycle   7  Pass 1  IDiag  1:
 RMSU=  3.33D-05    CP:  9.44D-01  1.07D+00  7.72D-01  4.50D-01  9.43D-01
                    CP:  5.60D-01
 E= -1055.01492732001     Delta-E=       -0.001831861427 Rises=F Damp=F
 DIIS: error= 2.18D-04 at cycle   7 NSaved=   7.
 NSaved= 7 IEnMin= 7 EnMin= -1055.01492732001     IErMin= 7 ErrMin= 2.18D-04
 ErrMax= 2.18D-04  0.00D+00 EMaxC= 1.00D-01 BMatC= 6.22D-05 BMatP= 1.81D-03
 IDIUse=3 WtCom= 9.98D-01 WtEn= 2.18D-03
 Coeff-Com: -0.115D-02 0.136D-02 0.484D-01-0.284D-01 0.238D+00 0.240D+00
 Coeff-Com:  0.502D+00
 Coeff-En:   0.000D+00 0.000D+00 0.000D+00 0.000D+00 0.000D+00 0.000D+00
 Coeff-En:   0.100D+01
 Coeff:     -0.115D-02 0.136D-02 0.483D-01-0.283D-01 0.237D+00 0.239D+00
 Coeff:      0.503D+00
 Gap=     0.101 Goal=   None    Shift=    0.000
 RMSDP=1.41D-05 MaxDP=9.99D-04 DE=-1.83D-03 OVMax= 3.44D-03

 Cycle   8  Pass 1  IDiag  1:
 RMSU=  1.03D-05    CP:  9.44D-01  1.07D+00  7.74D-01  4.47D-01  9.33D-01
                    CP:  6.31D-01  8.69D-01
 E= -1055.01498317397     Delta-E=       -0.000055853963 Rises=F Damp=F
 DIIS: error= 7.88D-05 at cycle   8 NSaved=   8.
 NSaved= 8 IEnMin= 8 EnMin= -1055.01498317397     IErMin= 8 ErrMin= 7.88D-05
 ErrMax= 7.88D-05  0.00D+00 EMaxC= 1.00D-01 BMatC= 8.32D-06 BMatP= 6.22D-05
 IDIUse=1 WtCom= 1.00D+00 WtEn= 0.00D+00
 Coeff-Com: -0.324D-03 0.745D-03 0.504D-02-0.415D-02 0.215D-01 0.501D-01
 Coeff-Com:  0.298D+00 0.629D+00
 Coeff:     -0.324D-03 0.745D-03 0.504D-02-0.415D-02 0.215D-01 0.501D-01
 Coeff:      0.298D+00 0.629D+00
 Gap=     0.101 Goal=   None    Shift=    0.000
 RMSDP=5.63D-06 MaxDP=4.91D-04 DE=-5.59D-05 OVMax= 1.24D-03

 Cycle   9  Pass 1  IDiag  1:
 RMSU=  4.32D-06    CP:  9.44D-01  1.06D+00  7.74D-01  4.47D-01  9.36D-01
                    CP:  6.42D-01  9.49D-01  1.08D+00
 E= -1055.01499020521     Delta-E=       -0.000007031236 Rises=F Damp=F
 DIIS: error= 2.44D-05 at cycle   9 NSaved=   9.
 NSaved= 9 IEnMin= 9 EnMin= -1055.01499020521     IErMin= 9 ErrMin= 2.44D-05
 ErrMax= 2.44D-05  0.00D+00 EMaxC= 1.00D-01 BMatC= 8.77D-07 BMatP= 8.32D-06
 IDIUse=1 WtCom= 1.00D+00 WtEn= 0.00D+00
 Coeff-Com: -0.773D-04 0.144D-03-0.135D-03-0.127D-03-0.470D-02 0.120D-01
 Coeff-Com:  0.136D+00 0.363D+00 0.494D+00
 Coeff:     -0.773D-04 0.144D-03-0.135D-03-0.127D-03-0.470D-02 0.120D-01
 Coeff:      0.136D+00 0.363D+00 0.494D+00
 Gap=     0.101 Goal=   None    Shift=    0.000
 RMSDP=2.25D-06 MaxDP=1.57D-04 DE=-7.03D-06 OVMax= 4.05D-04

 Cycle  10  Pass 1  IDiag  1:
 RMSU=  1.39D-06    CP:  9.44D-01  1.06D+00  7.75D-01  4.46D-01  9.33D-01
                    CP:  6.50D-01  9.48D-01  1.15D+00  1.07D+00
 E= -1055.01499101952     Delta-E=       -0.000000814313 Rises=F Damp=F
 DIIS: error= 9.25D-06 at cycle  10 NSaved=  10.
 NSaved=10 IEnMin=10 EnMin= -1055.01499101952     IErMin=10 ErrMin= 9.25D-06
 ErrMax= 9.25D-06  0.00D+00 EMaxC= 1.00D-01 BMatC= 1.04D-07 BMatP= 8.77D-07
 IDIUse=1 WtCom= 1.00D+00 WtEn= 0.00D+00
 Coeff-Com: -0.394D-05-0.551D-04-0.742D-03 0.506D-03-0.553D-02 0.143D-03
 Coeff-Com:  0.355D-01 0.114D+00 0.289D+00 0.567D+00
 Coeff:     -0.394D-05-0.551D-04-0.742D-03 0.506D-03-0.553D-02 0.143D-03
 Coeff:      0.355D-01 0.114D+00 0.289D+00 0.567D+00
 Gap=     0.101 Goal=   None    Shift=    0.000
 RMSDP=7.62D-07 MaxDP=5.89D-05 DE=-8.14D-07 OVMax= 1.19D-04

 Cycle  11  Pass 1  IDiag  1:
 RMSU=  4.36D-07    CP:  9.44D-01  1.06D+00  7.75D-01  4.46D-01  9.33D-01
                    CP:  6.52D-01  9.54D-01  1.18D+00  1.16D+00  9.27D-01
 E= -1055.01499111422     Delta-E=       -0.000000094702 Rises=F Damp=F
 DIIS: error= 3.02D-06 at cycle  11 NSaved=  11.
 NSaved=11 IEnMin=11 EnMin= -1055.01499111422     IErMin=11 ErrMin= 3.02D-06
 ErrMax= 3.02D-06  0.00D+00 EMaxC= 1.00D-01 BMatC= 1.45D-08 BMatP= 1.04D-07
 IDIUse=1 WtCom= 1.00D+00 WtEn= 0.00D+00
 Coeff-Com: -0.489D-05-0.215D-04-0.445D-03 0.300D-03-0.286D-02-0.931D-03
 Coeff-Com:  0.844D-02 0.336D-01 0.127D+00 0.344D+00 0.491D+00
 Coeff:     -0.489D-05-0.215D-04-0.445D-03 0.300D-03-0.286D-02-0.931D-03
 Coeff:      0.844D-02 0.336D-01 0.127D+00 0.344D+00 0.491D+00
 Gap=     0.101 Goal=   None    Shift=    0.000
 RMSDP=3.14D-07 MaxDP=2.36D-05 DE=-9.47D-08 OVMax= 4.38D-05

 Cycle  12  Pass 1  IDiag  1:
 RMSU=  1.58D-07    CP:  9.44D-01  1.06D+00  7.75D-01  4.46D-01  9.33D-01
                    CP:  6.53D-01  9.54D-01  1.20D+00  1.19D+00  9.96D-01
                    CP:  9.60D-01
 E= -1055.01499112780     Delta-E=       -0.000000013579 Rises=F Damp=F
 DIIS: error= 1.05D-06 at cycle  12 NSaved=  12.
 NSaved=12 IEnMin=12 EnMin= -1055.01499112780     IErMin=12 ErrMin= 1.05D-06
 ErrMax= 1.05D-06  0.00D+00 EMaxC= 1.00D-01 BMatC= 1.84D-09 BMatP= 1.45D-08
 IDIUse=1 WtCom= 1.00D+00 WtEn= 0.00D+00
 Coeff-Com: -0.591D-05 0.827D-05-0.596D-04 0.350D-04-0.169D-03-0.467D-03
 Coeff-Com: -0.400D-02-0.925D-02-0.408D-03 0.568D-01 0.283D+00 0.674D+00
 Coeff:     -0.591D-05 0.827D-05-0.596D-04 0.350D-04-0.169D-03-0.467D-03
 Coeff:     -0.400D-02-0.925D-02-0.408D-03 0.568D-01 0.283D+00 0.674D+00
 Gap=     0.101 Goal=   None    Shift=    0.000
 RMSDP=2.27D-07 MaxDP=1.86D-05 DE=-1.36D-08 OVMax= 1.26D-05

 Cycle  13  Pass 1  IDiag  1:
 RMSU=  7.71D-08    CP:  9.44D-01  1.06D+00  7.75D-01  4.46D-01  9.33D-01
                    CP:  6.53D-01  9.55D-01  1.21D+00  1.22D+00  1.03D+00
                    CP:  1.13D+00  1.03D+00
 E= -1055.01499112952     Delta-E=       -0.000000001714 Rises=F Damp=F
 DIIS: error= 3.20D-07 at cycle  13 NSaved=  13.
 NSaved=13 IEnMin=13 EnMin= -1055.01499112952     IErMin=13 ErrMin= 3.20D-07
 ErrMax= 3.20D-07  0.00D+00 EMaxC= 1.00D-01 BMatC= 2.25D-10 BMatP= 1.84D-09
 IDIUse=1 WtCom= 1.00D+00 WtEn= 0.00D+00
 Coeff-Com: -0.436D-05 0.928D-05-0.983D-06-0.567D-05 0.134D-03-0.194D-03
 Coeff-Com: -0.294D-02-0.784D-02-0.105D-01 0.456D-02 0.122D+00 0.378D+00
 Coeff-Com:  0.518D+00
 Coeff:     -0.436D-05 0.928D-05-0.983D-06-0.567D-05 0.134D-03-0.194D-03
 Coeff:     -0.294D-02-0.784D-02-0.105D-01 0.456D-02 0.122D+00 0.378D+00
 Coeff:      0.518D+00
 Gap=     0.101 Goal=   None    Shift=    0.000
 RMSDP=5.13D-08 MaxDP=3.84D-06 DE=-1.71D-09 OVMax= 5.02D-06

 Cycle  14  Pass 1  IDiag  1:
 RMSU=  2.13D-08    CP:  9.44D-01  1.06D+00  7.75D-01  4.46D-01  9.33D-01
                    CP:  6.53D-01  9.55D-01  1.21D+00  1.23D+00  1.04D+00
                    CP:  1.15D+00  1.09D+00  1.02D+00
 E= -1055.01499112977     Delta-E=       -0.000000000254 Rises=F Damp=F
 DIIS: error= 8.53D-08 at cycle  14 NSaved=  14.
 NSaved=14 IEnMin=14 EnMin= -1055.01499112977     IErMin=14 ErrMin= 8.53D-08
 ErrMax= 8.53D-08  0.00D+00 EMaxC= 1.00D-01 BMatC= 1.49D-11 BMatP= 2.25D-10
 IDIUse=1 WtCom= 1.00D+00 WtEn= 0.00D+00
 Coeff-Com: -0.126D-05 0.277D-05 0.834D-05-0.655D-05 0.778D-04-0.190D-04
 Coeff-Com: -0.623D-03-0.171D-02-0.409D-02-0.617D-02 0.824D-02 0.502D-01
 Coeff-Com:  0.217D+00 0.737D+00
 Coeff:     -0.126D-05 0.277D-05 0.834D-05-0.655D-05 0.778D-04-0.190D-04
 Coeff:     -0.623D-03-0.171D-02-0.409D-02-0.617D-02 0.824D-02 0.502D-01
 Coeff:      0.217D+00 0.737D+00
 Gap=     0.101 Goal=   None    Shift=    0.000
 RMSDP=2.46D-08 MaxDP=2.21D-06 DE=-2.54D-10 OVMax= 1.52D-06

 Cycle  15  Pass 1  IDiag  1:
 RMSU=  7.58D-09    CP:  9.44D-01  1.06D+00  7.75D-01  4.46D-01  9.33D-01
                    CP:  6.53D-01  9.55D-01  1.21D+00  1.23D+00  1.05D+00
                    CP:  1.18D+00  1.11D+00  1.14D+00  1.00D+00
 E= -1055.01499112977     Delta-E=        0.000000000004 Rises=F Damp=F
 DIIS: error= 5.15D-08 at cycle  15 NSaved=  15.
 NSaved=15 IEnMin=14 EnMin= -1055.01499112977     IErMin=15 ErrMin= 5.15D-08
 ErrMax= 5.15D-08  0.00D+00 EMaxC= 1.00D-01 BMatC= 3.55D-12 BMatP= 1.49D-11
 IDIUse=1 WtCom= 1.00D+00 WtEn= 0.00D+00
 Coeff-Com: -0.369D-06 0.784D-06 0.487D-05-0.301D-05 0.301D-04 0.409D-05
 Coeff-Com: -0.853D-04-0.224D-03-0.133D-02-0.395D-02-0.720D-02-0.914D-02
 Coeff-Com:  0.727D-01 0.421D+00 0.528D+00
 Coeff:     -0.369D-06 0.784D-06 0.487D-05-0.301D-05 0.301D-04 0.409D-05
 Coeff:     -0.853D-04-0.224D-03-0.133D-02-0.395D-02-0.720D-02-0.914D-02
 Coeff:      0.727D-01 0.421D+00 0.528D+00
 Gap=     0.101 Goal=   None    Shift=    0.000
 RMSDP=6.34D-09 MaxDP=5.41D-07 DE= 3.64D-12 OVMax= 8.35D-07

 Error on total polarization charges =  0.05940
 SCF Done:  E(RM06L) =  -1055.01499113     A.U. after   15 cycles
            NFock= 15  Conv=0.63D-08     -V/T= 2.0050
 KE= 1.049770139645D+03 PE=-6.558820279797D+03 EE= 2.400487801453D+03
 SMD-CDS (non-electrostatic) energy       (kcal/mol) =      -4.02
 (included in total energy above)
 Leave Link  502 at Wed Feb 17 09:20:58 2021, MaxMem=  5242880000 cpu:      8135.9
 (Enter /opt/nce/packages/global/g09/l601.exe)
 Copying SCF densities to generalized density rwf, IOpCl= 0 IROHF=0.

 **********************************************************************

            Population analysis using the SCF density.

 **********************************************************************

 Alpha  occ. eigenvalues --  -19.01749 -14.21900 -10.11730 -10.11653 -10.10255
 Alpha  occ. eigenvalues --  -10.10239 -10.09542 -10.06312 -10.06013 -10.05801
 Alpha  occ. eigenvalues --  -10.05799 -10.05736 -10.05727 -10.05639 -10.05180
 Alpha  occ. eigenvalues --  -10.05119 -10.05100 -10.05088 -10.05044 -10.05039
 Alpha  occ. eigenvalues --  -10.04917 -10.04912 -10.04907 -10.04868 -10.04865
 Alpha  occ. eigenvalues --  -10.04752  -1.06629  -0.94257  -0.83496  -0.82266
 Alpha  occ. eigenvalues --   -0.81738  -0.79814  -0.74325  -0.73297  -0.72536
 Alpha  occ. eigenvalues --   -0.71596  -0.70832  -0.70426  -0.69473  -0.66592
 Alpha  occ. eigenvalues --   -0.61489  -0.61095  -0.57680  -0.57664  -0.56775
 Alpha  occ. eigenvalues --   -0.55543  -0.55241  -0.53375  -0.52092  -0.49646
 Alpha  occ. eigenvalues --   -0.47570  -0.46373  -0.45908  -0.43947  -0.43818
 Alpha  occ. eigenvalues --   -0.43334  -0.42632  -0.41706  -0.41261  -0.40464
 Alpha  occ. eigenvalues --   -0.39986  -0.39613  -0.39506  -0.39226  -0.38628
 Alpha  occ. eigenvalues --   -0.37780  -0.35952  -0.35073  -0.34748  -0.34713
 Alpha  occ. eigenvalues --   -0.34249  -0.33750  -0.33137  -0.32890  -0.32320
 Alpha  occ. eigenvalues --   -0.31384  -0.30805  -0.30275  -0.29651  -0.29344
 Alpha  occ. eigenvalues --   -0.25416  -0.24391  -0.23881  -0.23793  -0.23351
 Alpha  occ. eigenvalues --   -0.22176  -0.20946  -0.15801
 Alpha virt. eigenvalues --   -0.05741  -0.04485  -0.04275  -0.03421  -0.02884
 Alpha virt. eigenvalues --   -0.02760  -0.01912   0.01661   0.05208   0.05539
 Alpha virt. eigenvalues --    0.06248   0.07346   0.08123   0.08621   0.09113
 Alpha virt. eigenvalues --    0.09190   0.09866   0.09947   0.10354   0.10772
 Alpha virt. eigenvalues --    0.11425   0.11792   0.12179   0.12283   0.12300
 Alpha virt. eigenvalues --    0.12928   0.13106   0.13781   0.14371   0.14833
 Alpha virt. eigenvalues --    0.15068   0.15595   0.15734   0.17686   0.18435
 Alpha virt. eigenvalues --    0.19438   0.20130   0.20508   0.20621   0.20874
 Alpha virt. eigenvalues --    0.21006   0.21462   0.21529   0.22062   0.22250
 Alpha virt. eigenvalues --    0.22566   0.22917   0.23071   0.23281   0.23553
 Alpha virt. eigenvalues --    0.23745   0.24036   0.24239   0.24422   0.24649
 Alpha virt. eigenvalues --    0.25244   0.25672   0.25698   0.26408   0.26716
 Alpha virt. eigenvalues --    0.26968   0.27041   0.27712   0.28433   0.28606
 Alpha virt. eigenvalues --    0.28822   0.29203   0.29690   0.30387   0.30593
 Alpha virt. eigenvalues --    0.31286   0.31388   0.31711   0.31836   0.32289
 Alpha virt. eigenvalues --    0.32616   0.32935   0.33364   0.33516   0.33978
 Alpha virt. eigenvalues --    0.34380   0.34646   0.35169   0.35284   0.35417
 Alpha virt. eigenvalues --    0.35696   0.35775   0.36368   0.36704   0.37002
 Alpha virt. eigenvalues --    0.37239   0.37738   0.37968   0.38737   0.39068
 Alpha virt. eigenvalues --    0.39538   0.39737   0.40014   0.40209   0.40784
 Alpha virt. eigenvalues --    0.41088   0.41231   0.41490   0.41787   0.41973
 Alpha virt. eigenvalues --    0.42831   0.42943   0.43412   0.43538   0.43797
 Alpha virt. eigenvalues --    0.44256   0.44510   0.44924   0.45688   0.46246
 Alpha virt. eigenvalues --    0.46833   0.47103   0.47641   0.47812   0.48037
 Alpha virt. eigenvalues --    0.48762   0.49254   0.49360   0.49918   0.50053
 Alpha virt. eigenvalues --    0.50327   0.50933   0.51414   0.52147   0.53154
 Alpha virt. eigenvalues --    0.53768   0.54078   0.55037   0.55253   0.55551
 Alpha virt. eigenvalues --    0.56083   0.57084   0.57550   0.58303   0.58625
 Alpha virt. eigenvalues --    0.60374   0.60534   0.61845   0.62673   0.62818
 Alpha virt. eigenvalues --    0.63435   0.63757   0.64212   0.64531   0.64651
 Alpha virt. eigenvalues --    0.65881   0.66164   0.66356   0.66672   0.67019
 Alpha virt. eigenvalues --    0.67129   0.67523   0.67780   0.68057   0.68758
 Alpha virt. eigenvalues --    0.68926   0.69432   0.70060   0.70572   0.70621
 Alpha virt. eigenvalues --    0.71194   0.71765   0.72357   0.72638   0.73122
 Alpha virt. eigenvalues --    0.73390   0.73595   0.74385   0.74840   0.75421
 Alpha virt. eigenvalues --    0.75872   0.76164   0.76859   0.77256   0.77930
 Alpha virt. eigenvalues --    0.78428   0.78816   0.79587   0.79800   0.80773
 Alpha virt. eigenvalues --    0.80983   0.81966   0.82531   0.83228   0.84275
 Alpha virt. eigenvalues --    0.84728   0.85471   0.85676   0.86450   0.86919
 Alpha virt. eigenvalues --    0.87392   0.87849   0.88049   0.88591   0.89060
 Alpha virt. eigenvalues --    0.90120   0.90275   0.90991   0.91346   0.91993
 Alpha virt. eigenvalues --    0.92627   0.92948   0.93405   0.94662   0.94773
 Alpha virt. eigenvalues --    0.96495   0.96656   0.97769   0.99484   1.00981
 Alpha virt. eigenvalues --    1.01500   1.02176   1.02668   1.03593   1.04119
 Alpha virt. eigenvalues --    1.04699   1.05325   1.05494   1.06246   1.07653
 Alpha virt. eigenvalues --    1.08080   1.08713   1.09659   1.10683   1.11159
 Alpha virt. eigenvalues --    1.12001   1.13427   1.13944   1.14289   1.14721
 Alpha virt. eigenvalues --    1.15184   1.15673   1.16622   1.16982   1.18259
 Alpha virt. eigenvalues --    1.19125   1.19501   1.20249   1.20891   1.21881
 Alpha virt. eigenvalues --    1.22193   1.22777   1.23213   1.24046   1.24405
 Alpha virt. eigenvalues --    1.24654   1.25145   1.25657   1.25924   1.26267
 Alpha virt. eigenvalues --    1.26776   1.26910   1.28317   1.29089   1.29330
 Alpha virt. eigenvalues --    1.30035   1.31123   1.31737   1.32692   1.33020
 Alpha virt. eigenvalues --    1.33598   1.34802   1.34920   1.35742   1.36206
 Alpha virt. eigenvalues --    1.37354   1.38627   1.39714   1.40466   1.41104
 Alpha virt. eigenvalues --    1.41991   1.43140   1.43385   1.44180   1.44452
 Alpha virt. eigenvalues --    1.45499   1.45593   1.46515   1.47063   1.47254
 Alpha virt. eigenvalues --    1.47814   1.48223   1.48845   1.49160   1.50533
 Alpha virt. eigenvalues --    1.51456   1.52001   1.53078   1.53267   1.53726
 Alpha virt. eigenvalues --    1.54189   1.54621   1.54742   1.54972   1.55917
 Alpha virt. eigenvalues --    1.56380   1.57031   1.57652   1.58961   1.59755
 Alpha virt. eigenvalues --    1.61005   1.61190   1.61845   1.62112   1.62706
 Alpha virt. eigenvalues --    1.63387   1.64836   1.65772   1.66631   1.66965
 Alpha virt. eigenvalues --    1.67337   1.67882   1.68310   1.68487   1.69056
 Alpha virt. eigenvalues --    1.69307   1.69770   1.70173   1.70547   1.70717
 Alpha virt. eigenvalues --    1.71489   1.72686   1.72975   1.73434   1.74182
 Alpha virt. eigenvalues --    1.75145   1.75315   1.75476   1.75845   1.76077
 Alpha virt. eigenvalues --    1.76836   1.77087   1.78288   1.78558   1.78922
 Alpha virt. eigenvalues --    1.82088   1.82321   1.83129   1.86219   1.86274
 Alpha virt. eigenvalues --    1.86599   1.88522   1.89044   1.89749   1.91067
 Alpha virt. eigenvalues --    1.91301   1.92292   1.93001   1.93625   1.94532
 Alpha virt. eigenvalues --    1.95803   1.96069   1.96081   1.96968   1.99324
 Alpha virt. eigenvalues --    1.99637   2.01133   2.01701   2.02333   2.04167
 Alpha virt. eigenvalues --    2.04982   2.05512   2.05854   2.06423   2.07431
 Alpha virt. eigenvalues --    2.08474   2.09380   2.10410   2.10839   2.11347
 Alpha virt. eigenvalues --    2.11882   2.12402   2.13348   2.13917   2.14596
 Alpha virt. eigenvalues --    2.15307   2.16316   2.17229   2.18884   2.19383
 Alpha virt. eigenvalues --    2.19775   2.19863   2.20170   2.21134   2.23108
 Alpha virt. eigenvalues --    2.23591   2.23833   2.24171   2.24382   2.24759
 Alpha virt. eigenvalues --    2.24802   2.26010   2.26272   2.26558   2.29283
 Alpha virt. eigenvalues --    2.29856   2.31874   2.33257   2.34244   2.35993
 Alpha virt. eigenvalues --    2.36868   2.38420   2.39790   2.39866   2.40765
 Alpha virt. eigenvalues --    2.42379   2.45095   2.46314   2.50628   2.50685
 Alpha virt. eigenvalues --    2.51029   2.51891   2.52638   2.52754   2.53570
 Alpha virt. eigenvalues --    2.54194   2.55601   2.55836   2.56573   2.56650
 Alpha virt. eigenvalues --    2.57826   2.58462   2.59453   2.60523   2.60825
 Alpha virt. eigenvalues --    2.61963   2.62803   2.63364   2.64391   2.65087
 Alpha virt. eigenvalues --    2.65581   2.65800   2.66070   2.66420   2.67124
 Alpha virt. eigenvalues --    2.67824   2.68516   2.69046   2.69287   2.69580
 Alpha virt. eigenvalues --    2.69653   2.70459   2.70997   2.71927   2.72755
 Alpha virt. eigenvalues --    2.72904   2.73518   2.73754   2.73931   2.74451
 Alpha virt. eigenvalues --    2.74975   2.75136   2.75841   2.76469   2.76952
 Alpha virt. eigenvalues --    2.77150   2.77629   2.77979   2.78145   2.78813
 Alpha virt. eigenvalues --    2.79411   2.80213   2.80679   2.81621   2.82050
 Alpha virt. eigenvalues --    2.82111   2.82463   2.82880   2.83355   2.83923
 Alpha virt. eigenvalues --    2.84347   2.84741   2.85191   2.85678   2.86575
 Alpha virt. eigenvalues --    2.87108   2.88006   2.88492   2.89191   2.89648
 Alpha virt. eigenvalues --    2.89871   2.90049   2.90463   2.90743   2.91807
 Alpha virt. eigenvalues --    2.91921   2.92245   2.92506   2.93628   2.94186
 Alpha virt. eigenvalues --    2.94485   2.94533   2.95236   2.95331   2.95715
 Alpha virt. eigenvalues --    2.96179   2.97293   2.98248   2.99371   2.99815
 Alpha virt. eigenvalues --    3.01767   3.02491   3.03599   3.04516   3.05163
 Alpha virt. eigenvalues --    3.05883   3.06749   3.07048   3.07660   3.08642
 Alpha virt. eigenvalues --    3.08907   3.09395   3.09620   3.11187   3.11408
 Alpha virt. eigenvalues --    3.12991   3.13712   3.14507   3.15555   3.15906
 Alpha virt. eigenvalues --    3.16418   3.16460   3.16856   3.17639   3.18371
 Alpha virt. eigenvalues --    3.18718   3.18916   3.19072   3.19399   3.19933
 Alpha virt. eigenvalues --    3.20204   3.20931   3.21497   3.21995   3.22184
 Alpha virt. eigenvalues --    3.22460   3.22930   3.23653   3.24123   3.24413
 Alpha virt. eigenvalues --    3.25245   3.25794   3.26984   3.27658   3.27808
 Alpha virt. eigenvalues --    3.28140   3.29208   3.29399   3.29940   3.30341
 Alpha virt. eigenvalues --    3.31908   3.32104   3.32675   3.33128   3.34003
 Alpha virt. eigenvalues --    3.34038   3.34928   3.35362   3.35887   3.36442
 Alpha virt. eigenvalues --    3.36702   3.37245   3.37695   3.38443   3.38789
 Alpha virt. eigenvalues --    3.39253   3.40555   3.40959   3.41462   3.42155
 Alpha virt. eigenvalues --    3.42370   3.42733   3.42974   3.43364   3.43991
[...]
    10  H   -0.011471  -0.008636   0.001293   0.001474  -0.000033  -0.001341
    11  C   -0.000189  -0.000960   0.000383   0.000300  -0.000127  -0.000139
    12  C   -0.000160  -0.000053  -0.000013  -0.000009  -0.000003   0.000001
    13  C    0.000113   0.000104   0.000028   0.000026  -0.000011  -0.000002
    14  H   -0.008450  -0.011901   0.001614   0.001103  -0.000015  -0.001324
    15  H   -0.000006  -0.000008   0.000000   0.000000  -0.000001  -0.000000
    16  H    0.000043   0.000013   0.000004   0.000002   0.000001  -0.000000
    17  N   -0.083693  -0.085103   0.016914   0.016963  -0.011811  -0.004026
    18  C    0.305174   0.304787   0.031308   0.033194  -0.060455  -0.153577
    19  C    5.269368   0.163289   0.249848  -0.103942   0.014153   0.132085
    20  C    0.163289   5.285395  -0.103665   0.244345   0.477318   0.134246
    21  C    0.249848  -0.103665   5.065956   0.071671  -0.005120   0.263424
    22  C   -0.103942   0.244345   0.071671   5.072612  -0.058222   0.261199
    23  H    0.014153   0.477318  -0.005120  -0.058222   0.531800   0.012671
    24  C    0.132085   0.134246   0.263424   0.261199   0.012671   5.113952
    25  H   -0.005129  -0.070621   0.012525   0.475088  -0.004560  -0.070728
    26  H    0.011514   0.011627  -0.068236  -0.068242  -0.000036   0.473374
    27  H   -0.000005  -0.000005   0.000000   0.000000  -0.000000  -0.000000
    28  H   -0.000007   0.000078  -0.000004   0.000008   0.000003   0.000000
    29  C    0.000002   0.000018   0.000000   0.000001  -0.000002  -0.000000
    30  C   -0.000001   0.000001  -0.000000   0.000000  -0.000000  -0.000000
    31  C    0.000001  -0.000007   0.000000  -0.000000   0.000000  -0.000000
    32  C    0.000000  -0.000000   0.000000  -0.000000   0.000000   0.000000
    33  H   -0.000000  -0.000000   0.000000  -0.000000   0.000000  -0.000000
    34  C    0.000000  -0.000000  -0.000000  -0.000000   0.000000   0.000000
    35  H    0.000000  -0.000001   0.000000  -0.000000   0.000000  -0.000000
    36  C   -0.000000  -0.000000   0.000000   0.000000  -0.000000  -0.000000
    37  H   -0.000000  -0.000000   0.000000   0.000000   0.000000  -0.000000
    38  H   -0.000000  -0.000000  -0.000000   0.000000   0.000000  -0.000000
    39  O    0.000256   0.000258  -0.000008  -0.000007  -0.000002   0.000002
    40  H    0.000001   0.000001  -0.000000  -0.000000   0.000000   0.000000
    41  H   -0.000000   0.000000  -0.000000   0.000000  -0.000000  -0.000000
    42  H   -0.070539  -0.005224   0.475105   0.012671   0.000018  -0.071089
    43  H    0.476688   0.014259  -0.057966  -0.005196   0.000026   0.012698
              25         26         27         28         29         30
     1  C   -0.000004  -0.000001   0.000015   0.423223  -0.127224   0.038092
     2  C    0.000098  -0.000025  -0.000055  -0.019781   0.010036  -0.005105
     3  C   -0.000066   0.000019   0.000215   0.009297  -0.015771   0.002032
     4  C   -0.000003   0.000000  -0.000455  -0.002212  -0.004241   0.000534
     5  C    0.000000  -0.000000   0.000263   0.013014  -0.097214  -0.019720
     6  C    0.000000  -0.000000  -0.000031  -0.059246   0.259140  -0.112736
     7  C   -0.000001   0.000000  -0.080879  -0.000008  -0.000414   0.000044
     8  C   -0.000044   0.000018   0.020548   0.000027   0.000066   0.000006
     9  C    0.000091  -0.000023  -0.006044   0.000000   0.000004   0.000000
    10  H    0.000009  -0.000005   0.000022   0.000000  -0.000000   0.000000
    11  C   -0.000001  -0.000001   0.011940   0.000000  -0.000000  -0.000000
    12  C    0.000000  -0.000000  -0.055471  -0.000000   0.000000  -0.000000
    13  C    0.000000  -0.000000   0.461009   0.000000  -0.000025   0.000001
    14  H    0.000008  -0.000005   0.000000  -0.001078  -0.000306   0.000005
    15  H    0.000000  -0.000000   0.000171   0.000032  -0.013641   0.002921
    16  H    0.000000   0.000000  -0.000059  -0.000000  -0.000000  -0.000000
    17  N   -0.000208   0.000008   0.000005  -0.000188  -0.000156   0.000000
    18  C    0.014738  -0.003956   0.000046   0.000526  -0.000239   0.000011
    19  C   -0.005129   0.011514  -0.000005  -0.000007   0.000002  -0.000001
    20  C   -0.070621   0.011627  -0.000005   0.000078   0.000018   0.000001
    21  C    0.012525  -0.068236   0.000000  -0.000004   0.000000  -0.000000
    22  C    0.475088  -0.068242   0.000000   0.000008   0.000001   0.000000
    23  H   -0.004560  -0.000036  -0.000000   0.000003  -0.000002  -0.000000
    24  C   -0.070728   0.473374  -0.000000   0.000000  -0.000000  -0.000000
    25  H    0.558717  -0.004955   0.000000   0.000000  -0.000000  -0.000000
    26  H   -0.004955   0.556950  -0.000000   0.000000  -0.000000  -0.000000
    27  H    0.000000  -0.000000   0.551424   0.000000  -0.000001  -0.000000
    28  H    0.000000   0.000000   0.000000   0.541273  -0.010110   0.002067
    29  C   -0.000000  -0.000000  -0.000001  -0.010110   5.233967   0.354915
    30  C   -0.000000  -0.000000  -0.000000   0.002067   0.354915   5.196971
    31  C    0.000000  -0.000000   0.000000   0.002544   0.351148   0.033321
    32  C   -0.000000   0.000000  -0.000000  -0.000261   0.027799   0.367129
    33  H    0.000000   0.000000   0.000000   0.000059  -0.062009   0.436107
    34  C   -0.000000   0.000000  -0.000000  -0.001067   0.030607  -0.044538
    35  H    0.000000   0.000000   0.000000   0.002970  -0.060750   0.011275
    36  C    0.000000  -0.000000   0.000000   0.000100  -0.071940   0.040137
    37  H    0.000000  -0.000000   0.000000   0.000001   0.009897  -0.066956
    38  H    0.000000   0.000000   0.000000   0.000037   0.009976  -0.004039
    39  O   -0.000000   0.000000   0.004230   0.000017   0.000396  -0.000236
    40  H   -0.000000   0.000000  -0.005655  -0.000000   0.000000   0.000000
    41  H   -0.000000   0.000000   0.000000  -0.000000  -0.003164   0.010906
    42  H   -0.000055  -0.004957   0.000000   0.000000  -0.000000   0.000000
    43  H    0.000018  -0.000036  -0.000001   0.000004  -0.000001   0.000000
              31         32         33         34         35         36
     1  C   -0.017992  -0.004136   0.002792  -0.002956   0.002633   0.001271
     2  C   -0.002997   0.000222  -0.000419   0.000167  -0.001099  -0.000066
     3  C    0.001926  -0.000069   0.000271  -0.000108   0.000200   0.000019
     4  C   -0.006245   0.000077  -0.000974   0.000311  -0.000300  -0.000105
     5  C    0.041930  -0.002572   0.002287  -0.004353   0.002560   0.001260
     6  C   -0.122517  -0.005235  -0.002782  -0.003418  -0.002095  -0.006887
     7  C   -0.000005  -0.000001   0.000002  -0.000000   0.000000  -0.000000
     8  C    0.000001   0.000000   0.000001   0.000000  -0.000000  -0.000000
     9  C   -0.000000   0.000000   0.000000   0.000000  -0.000000  -0.000000
    10  H    0.000000  -0.000000   0.000000  -0.000000   0.000000   0.000000
    11  C    0.000000  -0.000000  -0.000000  -0.000000   0.000000   0.000000
    12  C   -0.000000   0.000000  -0.000000   0.000000  -0.000000  -0.000000
    13  C    0.000000  -0.000000   0.000000  -0.000000   0.000000   0.000000
    14  H    0.000079  -0.000001   0.000001  -0.000000   0.000020   0.000000
    15  H    0.002216  -0.001000   0.003685  -0.000321   0.000054   0.000154
    16  H   -0.000000  -0.000000  -0.000000  -0.000000  -0.000000   0.000000
    17  N    0.000001  -0.000000   0.000001  -0.000000   0.000001   0.000000
    18  C    0.000011  -0.000000   0.000001  -0.000000   0.000002   0.000000
    19  C    0.000001   0.000000  -0.000000   0.000000   0.000000  -0.000000
    20  C   -0.000007  -0.000000  -0.000000  -0.000000  -0.000001  -0.000000
    21  C    0.000000   0.000000   0.000000  -0.000000   0.000000   0.000000
    22  C   -0.000000  -0.000000  -0.000000  -0.000000  -0.000000   0.000000
    23  H    0.000000   0.000000   0.000000   0.000000   0.000000  -0.000000
    24  C   -0.000000   0.000000  -0.000000   0.000000  -0.000000  -0.000000
    25  H    0.000000  -0.000000   0.000000  -0.000000   0.000000   0.000000
    26  H   -0.000000   0.000000   0.000000   0.000000   0.000000  -0.000000
    27  H    0.000000  -0.000000   0.000000  -0.000000   0.000000   0.000000
    28  H    0.002544  -0.000261   0.000059  -0.001067   0.002970   0.000100
    29  C    0.351148   0.027799  -0.062009   0.030607  -0.060750  -0.071940
    30  C    0.033321   0.367129   0.436107  -0.044538   0.011275   0.040137
    31  C    5.224793  -0.046153   0.011510   0.353908   0.435446   0.048576
    32  C   -0.046153   4.988228  -0.035099   0.024662  -0.002980   0.367557
    33  H    0.011510  -0.035099   0.544005  -0.003125  -0.000004   0.006616
    34  C    0.353908   0.024662  -0.003125   4.997543  -0.034451   0.362312
    35  H    0.435446  -0.002980  -0.000004  -0.034451   0.542959   0.006440
    36  C    0.048576   0.367557   0.006616   0.362312   0.006440   4.998206
    37  H   -0.004283   0.469792  -0.003042   0.010932   0.000030  -0.062841
    38  H   -0.067321   0.010760   0.000031   0.469756  -0.003039  -0.062860
    39  O    0.000027  -0.000005   0.000045  -0.000000   0.000001   0.000000
    40  H   -0.000000   0.000000   0.000000   0.000000   0.000000  -0.000000
    41  H    0.010941  -0.068466  -0.000117  -0.068488  -0.000117   0.471431
    42  H   -0.000000  -0.000000   0.000000   0.000000   0.000000  -0.000000
    43  H   -0.000000  -0.000000  -0.000000  -0.000000  -0.000000   0.000000
              37         38         39         40         41         42
     1  C    0.000022   0.000057  -0.000881  -0.000000  -0.000001  -0.000001
     2  C   -0.000001   0.000001   0.003701   0.000001   0.000000   0.000091
     3  C    0.000001   0.000001  -0.081788  -0.000010  -0.000000  -0.000043
     4  C    0.000010  -0.000001   0.239757   0.000039   0.000000  -0.000001
     5  C    0.000035   0.000022  -0.031078  -0.000002  -0.000006  -0.000000
     6  C   -0.000045  -0.000095  -0.005118   0.000000   0.000118  -0.000000
     7  C    0.000000  -0.000000   0.241702   0.017860   0.000000  -0.000001
     8  C    0.000000   0.000000  -0.096216  -0.006520  -0.000000  -0.000059
     9  C    0.000000   0.000000   0.001258   0.016764  -0.000000   0.000094
    10  H    0.000000   0.000000  -0.000077  -0.000090  -0.000000   0.000009
    11  C   -0.000000  -0.000000   0.000782  -0.082404   0.000000  -0.000002
    12  C   -0.000000   0.000000   0.000425   0.491207  -0.000000  -0.000000
    13  C    0.000000  -0.000000  -0.019329  -0.084119   0.000000   0.000000
    14  H    0.000000   0.000000  -0.000076   0.000000   0.000000   0.000009
    15  H    0.000024   0.000001   0.007442  -0.000000  -0.000000   0.000000
    16  H   -0.000000  -0.000000   0.000022  -0.005246  -0.000000   0.000000
    17  N    0.000000   0.000000  -0.009222   0.000017  -0.000000  -0.000236
    18  C    0.000000   0.000000  -0.002744  -0.000013  -0.000000   0.014882
    19  C   -0.000000  -0.000000   0.000256   0.000001  -0.000000  -0.070539
    20  C   -0.000000  -0.000000   0.000258   0.000001   0.000000  -0.005224
    21  C    0.000000  -0.000000  -0.000008  -0.000000  -0.000000   0.475105
    22  C    0.000000   0.000000  -0.000007  -0.000000   0.000000   0.012671
    23  H    0.000000   0.000000  -0.000002   0.000000  -0.000000   0.000018
    24  C   -0.000000  -0.000000   0.000002   0.000000  -0.000000  -0.071089
    25  H    0.000000   0.000000  -0.000000  -0.000000  -0.000000  -0.000055
    26  H   -0.000000   0.000000   0.000000   0.000000   0.000000  -0.004957
    27  H    0.000000   0.000000   0.004230  -0.005655   0.000000   0.000000
    28  H    0.000001   0.000037   0.000017  -0.000000  -0.000000   0.000000
    29  C    0.009897   0.009976   0.000396   0.000000  -0.003164  -0.000000
    30  C   -0.066956  -0.004039  -0.000236   0.000000   0.010906   0.000000
    31  C   -0.004283  -0.067321   0.000027  -0.000000   0.010941  -0.000000
    32  C    0.469792   0.010760  -0.000005   0.000000  -0.068466  -0.000000
    33  H   -0.003042   0.000031   0.000045   0.000000  -0.000117   0.000000
    34  C    0.010932   0.469756  -0.000000   0.000000  -0.068488   0.000000
    35  H    0.000030  -0.003039   0.000001   0.000000  -0.000117   0.000000
    36  C   -0.062841  -0.062860   0.000000  -0.000000   0.471431  -0.000000
    37  H    0.561898  -0.000063  -0.000000   0.000000  -0.004795   0.000000
    38  H   -0.000063   0.562152   0.000000   0.000000  -0.004777   0.000000
    39  O   -0.000000   0.000000   8.283971  -0.000135   0.000000  -0.000000
    40  H    0.000000   0.000000  -0.000135   0.566658  -0.000000  -0.000000
    41  H   -0.004795  -0.004777   0.000000  -0.000000   0.562904  -0.000000
    42  H    0.000000   0.000000  -0.000000  -0.000000  -0.000000   0.558934
    43  H    0.000000   0.000000   0.000001   0.000000   0.000000  -0.004598
              43
     1  C   -0.000144
     2  C   -0.001449
     3  C    0.001619
     4  C    0.000445
     5  C    0.000006
     6  C   -0.000020
     7  C    0.000503
     8  C    0.002619
     9  C   -0.001719
    10  H   -0.000015
    11  C   -0.000158
    12  C    0.000003
    13  C   -0.000025
    14  H   -0.000052
    15  H   -0.000000
    16  H    0.000002
    17  N   -0.010868
    18  C   -0.060266
    19  C    0.476688
    20  C    0.014259
    21  C   -0.057966
    22  C   -0.005196
    23  H    0.000026
    24  C    0.012698
    25  H    0.000018
    26  H   -0.000036
    27  H   -0.000001
    28  H    0.000004
    29  C   -0.000001
    30  C    0.000000
    31  C   -0.000000
    32  C   -0.000000
    33  H   -0.000000
    34  C   -0.000000
    35  H   -0.000000
    36  C    0.000000
    37  H    0.000000
    38  H    0.000000
    39  O    0.000001
    40  H    0.000000
    41  H    0.000000
    42  H   -0.004598
    43  H    0.532651
 Mulliken charges:
               1
     1  C   -0.296157
     2  C   -0.138947
     3  C    0.194352
     4  C    0.387849
     5  C   -0.395310
     6  C    0.375184
     7  C    0.343501
     8  C    0.245899
     9  C   -0.156035
    10  H    0.133741
    11  C   -0.165115
    12  C   -0.072627
    13  C   -0.254975
    14  H    0.133464
    15  H    0.111158
    16  H    0.090142
    17  N   -0.163914
    18  C    0.119686
    19  C   -0.299555
    20  C   -0.308887
    21  C    0.046255
    22  C    0.046427
    23  H    0.101966
    24  C   -0.098901
    25  H    0.095083
    26  H    0.096966
    27  H    0.098772
    28  H    0.098684
    29  C    0.179235
    30  C   -0.243146
    31  C   -0.250858
    32  C   -0.090248
    33  H    0.100156
    34  C   -0.087370
    35  H    0.100245
    36  C   -0.099381
    37  H    0.089385
    38  H    0.089400
    39  O   -0.537369
    40  H    0.091646
    41  H    0.093630
    42  H    0.094994
    43  H    0.100973
 Sum of Mulliken charges =  -0.00000
 Mulliken charges with hydrogens summed into heavy atoms:
               1
     1  C   -0.197473
     2  C   -0.005483
     3  C    0.194352
     4  C    0.387849
     5  C   -0.284152
     6  C    0.375184
     7  C    0.343501
     8  C    0.245899
     9  C   -0.022294
    11  C   -0.074973
    12  C    0.019020
    13  C   -0.156203
    17  N   -0.163914
    18  C    0.119686
    19  C   -0.198581
    20  C   -0.206921
    21  C    0.141249
    22  C    0.141510
    24  C   -0.001935
    29  C    0.179235
    30  C   -0.142990
    31  C   -0.150613
    32  C   -0.000863
    34  C    0.002030
    36  C   -0.005750
    39  O   -0.537369
 Electronic spatial extent (au):  <R**2>=          11108.1995
 Charge=              0.0000 electrons
 Dipole moment (field-independent basis, Debye):
    X=              2.4468    Y=             -2.6322    Z=              0.0685  Tot=              3.5944
 Quadrupole moment (field-independent basis, Debye-Ang):
   XX=           -134.7265   YY=           -134.3156   ZZ=           -148.7001
   XY=             -8.8734   XZ=              0.6522   YZ=              2.8353
 Traceless Quadrupole moment (field-independent basis, Debye-Ang):
   XX=              4.5209   YY=              4.9318   ZZ=             -9.4527
   XY=             -8.8734   XZ=              0.6522   YZ=              2.8353
 Octapole moment (field-independent basis, Debye-Ang**2):
  XXX=            -14.0243  YYY=             -5.2033  ZZZ=              1.9024  XYY=             28.6239
  XXY=            -28.3187  XXZ=              3.6515  XZZ=             23.7819  YZZ=            -17.1127
  YYZ=             -3.9000  XYZ=            -18.0091
 Hexadecapole moment (field-independent basis, Debye-Ang**3):
 XXXX=         -10518.1169 YYYY=          -3387.7716 ZZZZ=           -440.4162 XXXY=            -82.9692
 XXXZ=             11.9886 YYYX=            -87.0647 YYYZ=             11.0286 ZZZX=             12.2555
 ZZZY=              4.3131 XXYY=          -2192.7130 XXZZ=          -2037.7330 YYZZ=           -686.2185
 XXYZ=             83.3854 YYXZ=              1.0552 ZZXY=            -83.8946
 N-N= 2.066271968151D+03 E-N=-6.584970099876D+03  KE= 1.050643628709D+03
 Leave Link  601 at Wed Feb 17 18:08:38 2021, MaxMem=  5242880000 cpu:         5.5
 (Enter /opt/nce/packages/global/g09/l9999.exe)
 1\1\GINC-CN031\SP\RM06L TD-FC\Gen\C24H17N1O1\PNG4RJV\17-Feb-2021\0\\#p
  m06l chkbasis geom=allcheck Guess=Read int=ultrafine scrf=(SMD,solven
 t=n,n-DiMethylAcetamide) td=(NStates=30)\\Title\\0,1\C,0,1.7736096487,
 -1.353165174,-0.0314214093\C,0,0.3873200981,-1.3362116133,-0.043864908
 5\C,0,-0.3167966707,-0.1360990501,-0.0207302726\C,0,0.4264738309,1.050
 2369774,0.0068145731\C,0,1.802125405,1.0328647502,0.0148986098\C,0,2.5
 151764022,-0.1741139358,-0.0015876465\C,0,-1.5530243561,2.3323581271,0
 .0428797635\C,0,-2.3362426025,1.1720326027,0.0123964678\C,0,-3.7206907
 993,1.3142767525,0.0273379848\H,0,-4.3415848724,0.4283551727,0.0079044
 966\C,0,-4.3064453287,2.57435435,0.0669628001\C,0,-3.5190185449,3.7109
 121058,0.0943644605\C,0,-2.133897665,3.5826063574,0.0831874786\H,0,-0.
 1602561575,-2.268606166,-0.0798224109\H,0,2.3179930577,1.983618234,0.0
 576862862\H,0,-5.3856788675,2.6544199682,0.0767030499\N,0,-1.706594091
 7,-0.0720708522,-0.0276888205\C,0,-2.4819765235,-1.2722470266,-0.04724
 10414\C,0,-2.9146469644,-1.792356101,-1.2596103715\C,0,-2.7956991468,-
 1.9102461429,1.1454179657\C,0,-3.6666782704,-2.9574951299,-1.276431496
 8\C,0,-3.5455420156,-3.0765928066,1.1221588347\H,0,-2.448290413,-1.489
 2006706,2.081008435\C,0,-3.9815408488,-3.5998424641,-0.0871851235\H,0,
 -3.7903917788,-3.5766135987,2.0506584433\H,0,-4.5677111677,-4.50990816
 07,-0.1026971749\H,0,-1.4875859375,4.4507215484,0.1055905382\H,0,2.279
 2853983,-2.3092370664,-0.0709484607\C,0,3.9856073981,-0.1852755958,0.0
 051455229\C,0,4.722361529,0.8809141091,-0.5235035937\C,0,4.697911272,-
 1.265054508,0.5403066171\C,0,6.1074185631,0.8671872455,-0.5188028854\H
 ,0,4.2025791148,1.7232395629,-0.9634545058\C,0,6.082613929,-1.27909079
 63,0.5434203057\H,0,4.1584443318,-2.0954944986,0.9789390008\C,0,6.7970
 569949,-0.2129319269,0.0141678257\H,0,6.6513662412,1.7030285757,-0.941
 6346625\H,0,6.6072580658,-2.1248199698,0.9709569141\O,0,-0.1808368662,
 2.2812919028,0.0330161319\H,0,-3.9671800766,4.6950109368,0.125265701\H
 ,0,7.8796804072,-0.2234479146,0.0180666073\H,0,-4.0058560198,-3.364318
 3261,-2.2206102377\H,0,-2.6601237021,-1.2793787837,-2.1790607922\\Vers
 ion=ES64L-G09RevE.01\State=1-A\HF=-1055.0185355\RMSD=7.172e-09\PG=C01 
 [X(C24H17N1O1)]\\@


 WE'RE IN THE POSITION OF A VISITOR FROM ANOTHER
 DIMENSION WHO COMES TO EARTH AND SEES A CHESS MATCH.
 ASSUMING HE KNOWS IT'S A GAME, HE'S GOT TWO PROBLEMS:
 FIRST, FIGURE OUT THE RULES, AND SECOND, FIGURE OUT HOW TO WIN.
 NINETY PERCENT OF SCIENCE (INCLUDING VIRTUALLY ALL OF CHEMISRY)
 IS IN THAT SECOND CATEGORY.  THEY'RE TRYING TO APPLY
 THE LAWS THAT ARE ALREADY KNOWN.

                     -- SHELDON GLASHOW, 1979
 Job cpu time:       1 days 13 hours 13 minutes 40.9 seconds.
 File lengths (MBytes):  RWF=   3243 Int=      0 D2E=      0 Chk=    736 Scr=      1
 Normal termination of Gaussian 09 at Wed Feb 17 18:08:39 2021.
