
                                 *****************
                                 * O   R   C   A *
                                 *****************

                                            #,                                       
                                            ###                                      
                                            ####                                     
                                            #####                                    
                                            ######                                   
                                           ########,                                 
                                     ,,################,,,,,                         
                               ,,#################################,,                 
                          ,,##########################################,,             
                       ,#########################################, ''#####,          
                    ,#############################################,,   '####,        
                  ,##################################################,,,,####,       
                ,###########''''           ''''###############################       
              ,#####''   ,,,,##########,,,,          '''####'''          '####       
            ,##' ,,,,###########################,,,                        '##       
           ' ,,###''''                  '''############,,,                           
         ,,##''                                '''############,,,,        ,,,,,,###''
      ,#''                                            '''#######################'''  
     '                                                          ''''####''''         
             ,#######,   #######,   ,#######,      ##                                
            ,#'     '#,  ##    ##  ,#'     '#,    #''#        ######   ,####,        
            ##       ##  ##   ,#'  ##            #'  '#       #        #'  '#        
            ##       ##  #######   ##           ,######,      #####,   #    #        
            '#,     ,#'  ##    ##  '#,     ,#' ,#      #,         ##   #,  ,#        
             '#######'   ##     ##  '#######'  #'      '#     #####' # '####'        



                  #######################################################
                  #                        -***-                        #
                  #          Department of theory and spectroscopy      #
                  #    Directorship and core code : Frank Neese         #
                  #        Max Planck Institute fuer Kohlenforschung    #
                  #                Kaiser Wilhelm Platz 1               #
                  #                 D-45470 Muelheim/Ruhr               #
                  #                      Germany                        #
                  #                                                     #
                  #                  All rights reserved                #
                  #                        -***-                        #
                  #######################################################


                         Program Version 5.0.2 -  RELEASE  -


 With contributions from (in alphabetic order):
   Daniel Aravena         : Magnetic Suceptibility
   Michael Atanasov       : Ab Initio Ligand Field Theory (pilot matlab implementation)
   Alexander A. Auer      : GIAO ZORA, VPT2 properties, NMR spectrum
   Ute Becker             : Parallelization
   Giovanni Bistoni       : ED, misc. LED, open-shell LED, HFLD
   Martin Brehm           : Molecular dynamics
   Dmytro Bykov           : SCF Hessian
   Vijay G. Chilkuri      : MRCI spin determinant printing, contributions to CSF-ICE
   Dipayan Datta          : RHF DLPNO-CCSD density
   Achintya Kumar Dutta   : EOM-CC, STEOM-CC
   Dmitry Ganyushin       : Spin-Orbit,Spin-Spin,Magnetic field MRCI
   Miquel Garcia          : C-PCM and meta-GGA Hessian, CC/C-PCM, Gaussian charge scheme
   Yang Guo               : DLPNO-NEVPT2, F12-NEVPT2, CIM, IAO-localization
   Andreas Hansen         : Spin unrestricted coupled pair/coupled cluster methods
   Benjamin Helmich-Paris : MC-RPA, TRAH-SCF, COSX integrals
   Lee Huntington         : MR-EOM, pCC
   Robert Izsak           : Overlap fitted RIJCOSX, COSX-SCS-MP3, EOM
   Marcus Kettner         : VPT2
   Christian Kollmar      : KDIIS, OOCD, Brueckner-CCSD(T), CCSD density, CASPT2, CASPT2-K
   Simone Kossmann        : Meta GGA functionals, TD-DFT gradient, OOMP2, MP2 Hessian
   Martin Krupicka        : Initial AUTO-CI
   Lucas Lang             : DCDCAS
   Marvin Lechner         : AUTO-CI (C++ implementation), FIC-MRCC
   Dagmar Lenk            : GEPOL surface, SMD
   Dimitrios Liakos       : Extrapolation schemes; Compound Job, initial MDCI parallelization
   Dimitrios Manganas     : Further ROCIS development; embedding schemes
   Dimitrios Pantazis     : SARC Basis sets
   Anastasios Papadopoulos: AUTO-CI, single reference methods and gradients
   Taras Petrenko         : DFT Hessian,TD-DFT gradient, ASA, ECA, R-Raman, ABS, FL, XAS/XES, NRVS
   Peter Pinski           : DLPNO-MP2, DLPNO-MP2 Gradient
   Christoph Reimann      : Effective Core Potentials
   Marius Retegan         : Local ZFS, SOC
   Christoph Riplinger    : Optimizer, TS searches, QM/MM, DLPNO-CCSD(T), (RO)-DLPNO pert. Triples
   Tobias Risthaus        : Range-separated hybrids, TD-DFT gradient, RPA, STAB
   Michael Roemelt        : Original ROCIS implementation
   Masaaki Saitow         : Open-shell DLPNO-CCSD energy and density
   Barbara Sandhoefer     : DKH picture change effects
   Avijit Sen             : IP-ROCIS
   Kantharuban Sivalingam : CASSCF convergence, NEVPT2, FIC-MRCI
   Bernardo de Souza      : ESD, SOC TD-DFT
   Georgi Stoychev        : AutoAux, RI-MP2 NMR, DLPNO-MP2 response
   Willem Van den Heuvel  : Paramagnetic NMR
   Boris Wezisla          : Elementary symmetry handling
   Frank Wennmohs         : Technical directorship


 We gratefully acknowledge several colleagues who have allowed us to
 interface, adapt or use parts of their codes:
   Stefan Grimme, W. Hujo, H. Kruse, P. Pracht,  : VdW corrections, initial TS optimization,
                  C. Bannwarth, S. Ehlert          DFT functionals, gCP, sTDA/sTD-DF
   Ed Valeev, F. Pavosevic, A. Kumar             : LibInt (2-el integral package), F12 methods
   Garnet Chan, S. Sharma, J. Yang, R. Olivares  : DMRG
   Ulf Ekstrom                                   : XCFun DFT Library
   Mihaly Kallay                                 : mrcc  (arbitrary order and MRCC methods)
   Jiri Pittner, Ondrej Demel                    : Mk-CCSD
   Frank Weinhold                                : gennbo (NPA and NBO analysis)
   Christopher J. Cramer and Donald G. Truhlar   : smd solvation model
   Lars Goerigk                                  : TD-DFT with DH, B97 family of functionals
   V. Asgeirsson, H. Jonsson                     : NEB implementation
   FAccTs GmbH                                   : IRC, NEB, NEB-TS, DLPNO-Multilevel, CI-OPT
                                                   MM, QMMM, 2- and 3-layer-ONIOM, Crystal-QMMM,
                                                   LR-CPCM, SF, NACMEs, symmetry and pop. for TD-DFT,
                                                   nearIR, NL-DFT gradient (VV10), updates on ESD,
                                                   ML-optimized integration grids
   S Lehtola, MJT Oliveira, MAL Marques          : LibXC Library
   Liviu Ungur et al                             : ANISO software


 Your calculation uses the libint2 library for the computation of 2-el integrals
 For citations please refer to: http://libint.valeyev.net

 Your ORCA version has been built with support for libXC version: 5.1.0
 For citations please refer to: https://tddft.org/programs/libxc/

 This ORCA versions uses:
   CBLAS   interface :  Fast vector & matrix operations
   LAPACKE interface :  Fast linear algebra routines
   SCALAPACK package :  Parallel linear algebra routines
   Shared memory     :  Shared parallel matrices
   BLAS/LAPACK       :  OpenBLAS 0.3.15  USE64BITINT DYNAMIC_ARCH NO_AFFINITY Zen SINGLE_THREADED
        Core in use  :  Zen
   Copyright (c) 2011-2014, The OpenBLAS Project


Your calculation utilizes the SMD solvation module
Please cite in your paper:
A.V. Marenich, C.J. Cramer, D.G. Truhlar J. Phys. Chem. B, 113, (2009), 6378 

================================================================================

----- Orbital basis set information -----
Your calculation utilizes the basis: def2-TZVP
   F. Weigend and R. Ahlrichs, Phys. Chem. Chem. Phys. 7, 3297 (2005).

----- AuxJ basis set information -----
Your calculation utilizes the auxiliary basis: def2/J
   F. Weigend, Phys. Chem. Chem. Phys. 8, 1057 (2006).

----- AuxC basis set information -----
Your calculation utilizes the auxiliary basis: def2-TZVP/C
  H-La, Hf-Rn : A. Hellweg, C. Hattig, S. Hofener and W. Klopper, Theor. Chem. Acc. 117, 587 (2007).
        Ce-Lu : J. Chmela and M. E. Harding, Mol. Phys. (2018).

================================================================================
                                        WARNINGS
                       Please study these warnings very carefully!
================================================================================


WARNING: Post HF methods need fully converged wavefunctions
  ===> : Setting SCFConvForced true
         You can overwrite this default with %scf ConvForced false 


WARNING: MDCI localization with Augmented Hessian Foster-Boys
  ===> : Switching off randomization!

INFO   : the flag for use of the SHARK integral package has been found!

================================================================================
                                       INPUT FILE
================================================================================
NAME = NCE_2_STEOM-DLPNO-CCSD_DEF2-TZVP_RIJCOSX_SMD_suretoconv.inp
|  1> %maxcore 38400
|  2> %pal
|  3>  nprocs= 4
|  4> end
|  5> !STEOM-DLPNO-CCSD DEF2-TZVP DEF2-TZVP/C def2/J TightSCF TightPNO CPCM
|  6> %MDCI
|  7>    Dorootwise true
|  8>    OTHRESH 0.005
|  9>    VTHRESH 0.005
| 10>    TCutPNOSingles 1e-11
| 11>    DTol 1e-5
| 12>    NROOTS  25
| 13>    DOSOLV  TRUE
| 14>    MAXITER 500
| 15> END
| 16> %CPCM
| 17>    SMD          TRUE
| 18>    SMDsolvent   "ACETONITRILE"
| 19> END
| 20> 
| 21> 
| 22> * xyz 0 1
| 23> C                  -2.79293800    4.12055100    0.00048800
| 24> C                  -1.46622100    3.79291700    0.00034500
| 25> C                  -1.05286200    2.44017500    0.00020200
| 26> C                  -2.04168300    1.41007400    0.00019500
| 27> C                  -3.40652800    1.78994200    0.00035800
| 28> C                  -3.77190700    3.10832400    0.00049900
| 29> C                   0.30285200    2.09382800    0.00008900
| 30> C                  -1.62929500    0.05246500    0.00004900
| 31> C                  -0.26938100   -0.25631800   -0.00007400
| 32> C                   0.71709800    0.78004900   -0.00003500
| 33> C                   2.11986200    0.41216600   -0.00011900
| 34> C                   2.46183500   -0.94127600   -0.00017400
| 35> C                   0.15746000   -1.66057700   -0.00032100
| 36> H                   1.02838400    2.89659300    0.00011500
| 37> H                  -3.09646100    5.15987500    0.00060100
| 38> H                  -0.70465800    4.56360300    0.00034600
| 39> H                  -4.16865700    1.02183200    0.00037600
| 40> H                  -4.82047400    3.37711400    0.00062600
| 41> C                  -2.69458300   -0.98341100    0.00007100
| 42> C                  -3.22739400   -1.44695400    1.19996100
| 43> C                  -3.22796800   -1.44642400   -1.19977000
| 44> C                  -4.25500700   -2.37793300    1.19964400
| 45> H                  -2.82614200   -1.08022700    2.13758000
| 46> C                  -4.25557000   -2.37741500   -1.19937300
| 47> H                  -2.82717400   -1.07927300   -2.13741900
| 48> C                  -4.77009800   -2.84971300    0.00015400
| 49> H                  -4.65586800   -2.73442000    2.14055200
| 50> H                  -4.65686900   -2.73350100   -2.14024600
| 51> H                  -5.57268300   -3.57650600    0.00018600
| 52> O                  -0.55376000   -2.63420400   -0.00045200
| 53> O                   1.50506500   -1.91615600   -0.00020200
| 54> C                   3.18326000    1.32007500   -0.00012700
| 55> C                   3.76940100   -1.38466800   -0.00022200
| 56> C                   4.80184500   -0.45358900   -0.00023000
| 57> C                   4.50132600    0.91224300   -0.00018400
| 58> H                   5.28952700    1.65075600   -0.00019000
| 59> H                   2.97751300    2.38210700   -0.00008700
| 60> H                   3.98545000   -2.44422900   -0.00026600
| 61> O                   6.05250400   -0.95690400   -0.00028400
| 62> C                   7.13492200   -0.03735000   -0.00035300
| 63> H                   7.12357600    0.59473400    0.89029100
| 64> H                   8.04005000   -0.63818000   -0.00042600
| 65> H                   7.12344400    0.59475500   -0.89098000
| 66> *
| 67> 
| 68> 
| 69>                          ****END OF INPUT****
================================================================================

                       ****************************
                       * Single Point Calculation *
                       ****************************

---------------------------------
CARTESIAN COORDINATES (ANGSTROEM)
---------------------------------
  C     -2.792938    4.120551    0.000488
  C     -1.466221    3.792917    0.000345
  C     -1.052862    2.440175    0.000202
  C     -2.041683    1.410074    0.000195
  C     -3.406528    1.789942    0.000358
  C     -3.771907    3.108324    0.000499
  C      0.302852    2.093828    0.000089
  C     -1.629295    0.052465    0.000049
  C     -0.269381   -0.256318   -0.000074
  C      0.717098    0.780049   -0.000035
  C      2.119862    0.412166   -0.000119
  C      2.461835   -0.941276   -0.000174
  C      0.157460   -1.660577   -0.000321
  H      1.028384    2.896593    0.000115
  H     -3.096461    5.159875    0.000601
  H     -0.704658    4.563603    0.000346
  H     -4.168657    1.021832    0.000376
  H     -4.820474    3.377114    0.000626
  C     -2.694583   -0.983411    0.000071
  C     -3.227394   -1.446954    1.199961
  C     -3.227968   -1.446424   -1.199770
  C     -4.255007   -2.377933    1.199644
  H     -2.826142   -1.080227    2.137580
  C     -4.255570   -2.377415   -1.199373
  H     -2.827174   -1.079273   -2.137419
  C     -4.770098   -2.849713    0.000154
  H     -4.655868   -2.734420    2.140552
  H     -4.656869   -2.733501   -2.140246
  H     -5.572683   -3.576506    0.000186
  O     -0.553760   -2.634204   -0.000452
  O      1.505065   -1.916156   -0.000202
  C      3.183260    1.320075   -0.000127
  C      3.769401   -1.384668   -0.000222
  C      4.801845   -0.453589   -0.000230
  C      4.501326    0.912243   -0.000184
  H      5.289527    1.650756   -0.000190
  H      2.977513    2.382107   -0.000087
  H      3.985450   -2.444229   -0.000266
  O      6.052504   -0.956904   -0.000284
  C      7.134922   -0.037350   -0.000353
  H      7.123576    0.594734    0.890291
  H      8.040050   -0.638180   -0.000426
  H      7.123444    0.594755   -0.890980

----------------------------
CARTESIAN COORDINATES (A.U.)
----------------------------
  NO LB      ZA    FRAG     MASS         X           Y           Z
   0 C     6.0000    0    12.011   -5.277888    7.786713    0.000922
   1 C     6.0000    0    12.011   -2.770756    7.167574    0.000652
   2 C     6.0000    0    12.011   -1.989621    4.611262    0.000382
   3 C     6.0000    0    12.011   -3.858222    2.664654    0.000368
   4 C     6.0000    0    12.011   -6.437405    3.382500    0.000677
   5 C     6.0000    0    12.011   -7.127871    5.873881    0.000943
   6 C     6.0000    0    12.011    0.572307    3.956761    0.000168
   7 C     6.0000    0    12.011   -3.078921    0.099144    0.000093
   8 C     6.0000    0    12.011   -0.509056   -0.484371   -0.000140
   9 C     6.0000    0    12.011    1.355119    1.474079   -0.000066
  10 C     6.0000    0    12.011    4.005959    0.778881   -0.000225
  11 C     6.0000    0    12.011    4.652194   -1.778754   -0.000329
  12 C     6.0000    0    12.011    0.297556   -3.138036   -0.000607
  13 H     1.0000    0     1.008    1.943364    5.473767    0.000217
  14 H     1.0000    0     1.008   -5.851463    9.750751    0.001136
  15 H     1.0000    0     1.008   -1.331611    8.623960    0.000654
  16 H     1.0000    0     1.008   -7.877620    1.930983    0.000711
  17 H     1.0000    0     1.008   -9.109376    6.381821    0.001183
  18 C     6.0000    0    12.011   -5.092024   -1.858377    0.000134
  19 C     6.0000    0    12.011   -6.098891   -2.734347    2.267598
  20 C     6.0000    0    12.011   -6.099975   -2.733345   -2.267237
  21 C     6.0000    0    12.011   -8.040798   -4.493642    2.266999
  22 H     1.0000    0     1.008   -5.340634   -2.041333    4.039441
  23 C     6.0000    0    12.011   -8.041862   -4.492663   -2.266487
  24 H     1.0000    0     1.008   -5.342585   -2.039530   -4.039137
  25 C     6.0000    0    12.011   -9.014179   -5.385177    0.000291
  26 H     1.0000    0     1.008   -8.798315   -5.167305    4.045057
  27 H     1.0000    0     1.008   -8.800207   -5.165568   -4.044479
  28 H     1.0000    0     1.008  -10.530845   -6.758617    0.000351
  29 O     8.0000    0    15.999   -1.046455   -4.977924   -0.000854
  30 O     8.0000    0    15.999    2.844161   -3.621010   -0.000382
  31 C     6.0000    0    12.011    6.015490    2.494580   -0.000240
  32 C     6.0000    0    12.011    7.123136   -2.616643   -0.000420
  33 C     6.0000    0    12.011    9.074172   -0.857159   -0.000435
  34 C     6.0000    0    12.011    8.506273    1.723889   -0.000348
  35 H     1.0000    0     1.008    9.995757    3.119477   -0.000359
  36 H     1.0000    0     1.008    5.626684    4.501530   -0.000164
  37 H     1.0000    0     1.008    7.531409   -4.618923   -0.000503
  38 O     8.0000    0    15.999   11.437575   -1.808286   -0.000537
  39 C     6.0000    0    12.011   13.483049   -0.070581   -0.000667
  40 H     1.0000    0     1.008   13.461608    1.123884    1.682406
  41 H     1.0000    0     1.008   15.193493   -1.205985   -0.000805
  42 H     1.0000    0     1.008   13.461358    1.123924   -1.683708

--------------------------------
INTERNAL COORDINATES (ANGSTROEM)
--------------------------------
 C      0   0   0     0.000000000000     0.00000000     0.00000000
 C      1   0   0     1.366573106897     0.00000000     0.00000000
 C      2   1   0     1.414488105957   120.86334715     0.00000000
 C      3   2   1     1.427891816732   119.17969472     0.00000000
 C      4   3   2     1.416722131548   118.27554400     0.00000000
 C      5   4   3     1.368076361701   121.04340454     0.00000000
 C      3   2   1     1.399255768962   121.32258626   180.00163140
 C      4   3   2     1.418860839103   119.27462801   179.99987604
 C      8   4   3     1.394529685455   119.68942320     0.00000000
 C      7   3   2     1.377539482096   121.83146153   179.99923321
 C     10   7   3     1.450201623376   122.19573234   180.00156995
 C     11  10   7     1.395976641322   118.87530004   179.99674262
 C      9   8   4     1.467697734335   119.69997810   180.00431275
 H      7   3   2     1.082048210074   117.77605670     0.00000000
 H      1   2   3     1.082737549582   120.15156007   179.99973230
 H      2   1   3     1.083482862608   120.78716160   180.00046883
 H      5   4   3     1.082050638864   119.22294056   180.00126924
 H      6   5   4     1.082469784206   119.86792155   180.00022076
 C      8   4   3     1.485892866530   117.30131840   179.99898524
 C     19   8   4     1.392298705979   120.42924291   271.87415868
 C     19   8   4     1.392299903640   120.42952446    88.10272996
 C     20  19   8     1.386618360148   120.46022552   177.65406527
 H     20  19   8     1.083799450634   119.42153874   357.12498540
 C     21  19   8     1.386618285648   120.46020344   182.34517649
 H     21  19   8     1.083799489960   119.42160007     2.87419822
 C     24  21  19     1.388045203629   120.22599169     0.49807671
 H     22  20  19     1.083088356024   119.67447788   179.62328375
 H     24  21  19     1.083088236907   119.67454346   180.37788153
 H     26  24  21     1.082760706757   120.21122995   179.98480865
 O     13   9   8     1.205729422669   126.94516459     0.00000000
 O     12  11  10     1.365942842173   121.35706906     0.00000000
 C     11  10   7     1.398253932141   124.81471644     0.00000000
 C     12  11  10     1.380697400709   122.91174140   180.00163340
 C     33  12  11     1.390269296734   119.22356148     0.00000000
 C     32  11  10     1.379719146721   122.31697483   179.99877918
 H     35  32  11     1.080121413363   119.67111891   179.99987278
 H     32  11  10     1.081778072727   119.52600151     0.00000000
 H     33  12  11     1.081363345531   120.25651895   180.00013730
 O     34  33  12     1.348137206082   116.03339800   180.00029516
 C     39  34  33     1.420284580780   117.72905367   179.99730763
 H     40  39  34     1.092202201750   111.51437890    61.22756752
 H     40  39  34     1.086394675343   106.07440018   180.00207498
 H     40  39  34     1.092201871743   111.51435949   298.77670615

---------------------------
INTERNAL COORDINATES (A.U.)
---------------------------
 C      0   0   0     0.000000000000     0.00000000     0.00000000
 C      1   0   0     2.582448914017     0.00000000     0.00000000
 C      2   1   0     2.672995139948   120.86334715     0.00000000
 C      3   2   1     2.698324482491   119.17969472     0.00000000
 C      4   3   2     2.677216836491   118.27554400     0.00000000
 C      5   4   3     2.585289653907   121.04340454     0.00000000
 C      3   2   1     2.644210194648   121.32258626   180.00163140
 C      4   3   2     2.681258408051   119.27462801   179.99987604
 C      8   4   3     2.635279191132   119.68942320     0.00000000
 C      7   3   2     2.603172359825   121.83146153   179.99923321
 C     10   7   3     2.740483907148   122.19573234   180.00156995
 C     11  10   7     2.638013541451   118.87530004   179.99674262
 C      9   8   4     2.773546765269   119.69997810   180.00431275
 H      7   3   2     2.044774780740   117.77605670     0.00000000
 H      1   2   3     2.046077443622   120.15156007   179.99973230
 H      2   1   3     2.047485881127   120.78716160   180.00046883
 H      5   4   3     2.044779370487   119.22294056   180.00126924
 H      6   5   4     2.045571440393   119.86792155   180.00022076
 C      8   4   3     2.807930582088   117.30131840   179.99898524
 C     19   8   4     2.631063250913   120.42924291   271.87415868
 C     19   8   4     2.631065514164   120.42952446    88.10272996
 C     20  19   8     2.620328952946   120.46022552   177.65406527
 H     20  19   8     2.048084145792   119.42153874   357.12498540
 C     21  19   8     2.620328812163   120.46020344   182.34517649
 H     21  19   8     2.048084220108   119.42160007     2.87419822
 C     24  21  19     2.623025296361   120.22599169     0.49807671
 H     22  20  19     2.046740371724   119.67447788   179.62328375
 H     24  21  19     2.046740146626   119.67454346   180.37788153
 H     26  24  21     2.046121204343   120.21122995   179.98480865
 O     13   9   8     2.278498400456   126.94516459     0.00000000
 O     12  11  10     2.581257886297   121.35706906     0.00000000
 C     11  10   7     2.642316997426   124.81471644     0.00000000
 C     12  11  10     2.609139961157   122.91174140   180.00163340
 C     33  12  11     2.627228223226   119.22356148     0.00000000
 C     32  11  10     2.607291329031   122.31697483   179.99877918
 H     35  32  11     2.041133662641   119.67111891   179.99987278
 H     32  11  10     2.044264295135   119.52600151     0.00000000
 H     33  12  11     2.043480574314   120.25651895   180.00013730
 O     34  33  12     2.547610110444   116.03339800   180.00029516
 C     39  34  33     2.683948889905   117.72905367   179.99730763
 H     40  39  34     2.063963044174   111.51437890    61.22756752
 H     40  39  34     2.052988409748   106.07440018   180.00207498
 H     40  39  34     2.063962420550   111.51435949   298.77670615

---------------------
BASIS SET INFORMATION
---------------------
There are 3 groups of distinct atoms

 Group   1 Type C   : 11s6p2d1f contracted to 5s3p2d1f pattern {62111/411/11/1}
 Group   2 Type H   : 5s1p contracted to 3s1p pattern {311/1}
 Group   3 Type O   : 11s6p2d1f contracted to 5s3p2d1f pattern {62111/411/11/1}

Atom   0C    basis set group =>   1
Atom   1C    basis set group =>   1
Atom   2C    basis set group =>   1
Atom   3C    basis set group =>   1
Atom   4C    basis set group =>   1
Atom   5C    basis set group =>   1
Atom   6C    basis set group =>   1
Atom   7C    basis set group =>   1
Atom   8C    basis set group =>   1
Atom   9C    basis set group =>   1
Atom  10C    basis set group =>   1
Atom  11C    basis set group =>   1
Atom  12C    basis set group =>   1
Atom  13H    basis set group =>   2
Atom  14H    basis set group =>   2
Atom  15H    basis set group =>   2
Atom  16H    basis set group =>   2
Atom  17H    basis set group =>   2
Atom  18C    basis set group =>   1
Atom  19C    basis set group =>   1
Atom  20C    basis set group =>   1
Atom  21C    basis set group =>   1
Atom  22H    basis set group =>   2
Atom  23C    basis set group =>   1
Atom  24H    basis set group =>   2
Atom  25C    basis set group =>   1
Atom  26H    basis set group =>   2
Atom  27H    basis set group =>   2
Atom  28H    basis set group =>   2
Atom  29O    basis set group =>   3
Atom  30O    basis set group =>   3
Atom  31C    basis set group =>   1
Atom  32C    basis set group =>   1
Atom  33C    basis set group =>   1
Atom  34C    basis set group =>   1
Atom  35H    basis set group =>   2
Atom  36H    basis set group =>   2
Atom  37H    basis set group =>   2
Atom  38O    basis set group =>   3
Atom  39C    basis set group =>   1
Atom  40H    basis set group =>   2
Atom  41H    basis set group =>   2
Atom  42H    basis set group =>   2
---------------------------------
AUXILIARY/J BASIS SET INFORMATION
---------------------------------
There are 3 groups of distinct atoms

 Group   1 Type C   : 12s5p4d2f1g contracted to 6s4p3d1f1g pattern {711111/2111/211/2/1}
 Group   2 Type H   : 5s2p1d contracted to 3s1p1d pattern {311/2/1}
 Group   3 Type O   : 12s5p4d2f1g contracted to 6s4p3d1f1g pattern {711111/2111/211/2/1}

Atom   0C    basis set group =>   1
Atom   1C    basis set group =>   1
Atom   2C    basis set group =>   1
Atom   3C    basis set group =>   1
Atom   4C    basis set group =>   1
Atom   5C    basis set group =>   1
Atom   6C    basis set group =>   1
Atom   7C    basis set group =>   1
Atom   8C    basis set group =>   1
Atom   9C    basis set group =>   1
Atom  10C    basis set group =>   1
Atom  11C    basis set group =>   1
Atom  12C    basis set group =>   1
Atom  13H    basis set group =>   2
Atom  14H    basis set group =>   2
Atom  15H    basis set group =>   2
Atom  16H    basis set group =>   2
Atom  17H    basis set group =>   2
Atom  18C    basis set group =>   1
Atom  19C    basis set group =>   1
Atom  20C    basis set group =>   1
Atom  21C    basis set group =>   1
Atom  22H    basis set group =>   2
Atom  23C    basis set group =>   1
Atom  24H    basis set group =>   2
Atom  25C    basis set group =>   1
Atom  26H    basis set group =>   2
Atom  27H    basis set group =>   2
Atom  28H    basis set group =>   2
Atom  29O    basis set group =>   3
Atom  30O    basis set group =>   3
Atom  31C    basis set group =>   1
Atom  32C    basis set group =>   1
Atom  33C    basis set group =>   1
Atom  34C    basis set group =>   1
Atom  35H    basis set group =>   2
Atom  36H    basis set group =>   2
Atom  37H    basis set group =>   2
Atom  38O    basis set group =>   3
Atom  39C    basis set group =>   1
Atom  40H    basis set group =>   2
Atom  41H    basis set group =>   2
Atom  42H    basis set group =>   2
---------------------------------
AUXILIARY/C BASIS SET INFORMATION
---------------------------------
There are 3 groups of distinct atoms

 Group   1 Type C   : 8s6p5d3f1g contracted to 8s6p4d3f1g pattern {11111111/111111/2111/111/1}
 Group   2 Type H   : 4s3p2d contracted to 4s2p1d pattern {1111/21/2}
 Group   3 Type O   : 8s6p5d3f1g contracted to 8s6p4d3f1g pattern {11111111/111111/2111/111/1}

Atom   0C    basis set group =>   1
Atom   1C    basis set group =>   1
Atom   2C    basis set group =>   1
Atom   3C    basis set group =>   1
Atom   4C    basis set group =>   1
Atom   5C    basis set group =>   1
Atom   6C    basis set group =>   1
Atom   7C    basis set group =>   1
Atom   8C    basis set group =>   1
Atom   9C    basis set group =>   1
Atom  10C    basis set group =>   1
Atom  11C    basis set group =>   1
Atom  12C    basis set group =>   1
Atom  13H    basis set group =>   2
Atom  14H    basis set group =>   2
Atom  15H    basis set group =>   2
Atom  16H    basis set group =>   2
Atom  17H    basis set group =>   2
Atom  18C    basis set group =>   1
Atom  19C    basis set group =>   1
Atom  20C    basis set group =>   1
Atom  21C    basis set group =>   1
Atom  22H    basis set group =>   2
Atom  23C    basis set group =>   1
Atom  24H    basis set group =>   2
Atom  25C    basis set group =>   1
Atom  26H    basis set group =>   2
Atom  27H    basis set group =>   2
Atom  28H    basis set group =>   2
Atom  29O    basis set group =>   3
Atom  30O    basis set group =>   3
Atom  31C    basis set group =>   1
Atom  32C    basis set group =>   1
Atom  33C    basis set group =>   1
Atom  34C    basis set group =>   1
Atom  35H    basis set group =>   2
Atom  36H    basis set group =>   2
Atom  37H    basis set group =>   2
Atom  38O    basis set group =>   3
Atom  39C    basis set group =>   1
Atom  40H    basis set group =>   2
Atom  41H    basis set group =>   2
Atom  42H    basis set group =>   2


           ************************************************************
           *        Program running with 4 parallel MPI-processes     *
           *              working on a common directory               *
           ************************************************************
------------------------------------------------------------------------------
                           ORCA GTO INTEGRAL CALCULATION
------------------------------------------------------------------------------
------------------------------------------------------------------------------
                   ___                                                        
                  /   \      - P O W E R E D   B Y -                         
                 /     \                                                     
                 |  |  |   _    _      __       _____    __    __             
                 |  |  |  | |  | |    /  \     |  _  \  |  |  /  |          
                  \  \/   | |  | |   /    \    | | | |  |  | /  /          
                 / \  \   | |__| |  /  /\  \   | |_| |  |  |/  /          
                |  |  |   |  __  | /  /__\  \  |    /   |      \           
                |  |  |   | |  | | |   __   |  |    \   |  |\   \          
                \     /   | |  | | |  |  |  |  | |\  \  |  | \   \       
                 \___/    |_|  |_| |__|  |__|  |_| \__\ |__|  \__/        
                                                                              
                      - O R C A' S   B I G   F R I E N D -                    
                                      &                                       
                       - I N T E G R A L  F E E D E R -                       
                                                                              
 v1 FN, 2020, v2 2021                                                         
------------------------------------------------------------------------------


Reading SHARK input file NCE_2_STEOM-DLPNO-CCSD_DEF2-TZVP_RIJCOSX_SMD_suretoconv.SHARKINP.tmp ... ok
----------------------
SHARK INTEGRAL PACKAGE
----------------------

Number of atoms                             ...     43
Number of basis functions                   ...    933
Number of shells                            ...    361
Maximum angular momentum                    ...      3
Integral batch strategy                     ... SHARK/LIBINT Hybrid
RI-J (if used) integral strategy            ... SPLIT-RIJ (Revised 2003 algorithm where possible)
Printlevel                                  ...      1
Contraction scheme used                     ... SEGMENTED contraction
Coulomb Range Separation                    ... NOT USED
Exchange Range Separation                   ... NOT USED
Finite Nucleus Model                        ... NOT USED
Auxiliary Coulomb fitting basis             ... AVAILABLE
   # of basis functions in Aux-J            ...   1499
   # of shells in Aux-J                     ...    485
   Maximum angular momentum in Aux-J        ...      4
Auxiliary J/K fitting basis                 ... NOT available
Auxiliary Correlation fitting basis         ... AVAILABLE
   # of basis functions in Aux-C            ...   2292
   # of shells in Aux-C                     ...    706
   Maximum angular momentum in Aux-C        ...      4
Auxiliary 'external' fitting basis          ... NOT available
Integral threshold                          ...     2.500000e-11
Primitive cut-off                           ...     2.500000e-12
Primitive pair pre-selection threshold      ...     2.500000e-12

Calculating pre-screening integrals         ... done (  0.1 sec) Dimension = 361
Organizing shell pair data                  ... done (  0.4 sec)
Shell pair information
Total number of shell pairs                 ...     65341
Shell pairs after pre-screening             ...     42268
Total number of primitive shell pairs       ...    203208
Primitive shell pairs kept                  ...     86334
          la=0 lb=0:  10191 shell pairs
          la=1 lb=0:  12070 shell pairs
          la=1 lb=1:   3547 shell pairs
          la=2 lb=0:   6114 shell pairs
          la=2 lb=1:   3668 shell pairs
          la=2 lb=2:    956 shell pairs
          la=3 lb=0:   2878 shell pairs
          la=3 lb=1:   1749 shell pairs
          la=3 lb=2:    872 shell pairs
          la=3 lb=3:    223 shell pairs

Calculating one electron integrals          ... done (  0.1 sec)
Calculating RI/J V-Matrix + Cholesky decomp.... done (  0.1 sec)
Calculating RI/C V-Matrix + Cholesky decomp.... done (  0.2 sec)
Calculating Nuclear repulsion               ... done (  0.0 sec) ENN=   2255.519740715050 Eh

SHARK setup successfully completed in   1.4 seconds

Maximum memory used throughout the entire GTOINT-calculation: 85.6 MB


           ************************************************************
           *        Program running with 4 parallel MPI-processes     *
           *              working on a common directory               *
           ************************************************************
-------------------------------------------------------------------------------
                                 ORCA SCF
-------------------------------------------------------------------------------

------------
SCF SETTINGS
------------
Hamiltonian:
 Ab initio Hamiltonian  Method          .... Hartree-Fock(GTOs)


General Settings:
 Integral files         IntName         .... NCE_2_STEOM-DLPNO-CCSD_DEF2-TZVP_RIJCOSX_SMD_suretoconv
 Hartree-Fock type      HFTyp           .... RHF
 Total Charge           Charge          ....    0
 Multiplicity           Mult            ....    1
 Number of Electrons    NEL             ....  184
 Basis Dimension        Dim             ....  933
 Nuclear Repulsion      ENuc            ....   2255.5197407151 Eh

Convergence Acceleration:
 DIIS                   CNVDIIS         .... on
   Start iteration      DIISMaxIt       ....    12
   Startup error        DIISStart       ....  0.200000
   # of expansion vecs  DIISMaxEq       ....     5
   Bias factor          DIISBfac        ....   1.050
   Max. coefficient     DIISMaxC        ....  10.000
 Trust-Rad. Augm. Hess. CNVTRAH         .... auto
   Auto Start mean grad. ratio tolernc. ....  1.125000
   Auto Start start iteration           ....    20
   Auto Start num. interpolation iter.  ....    10
   Max. Number of Micro iterations      ....    16
   Max. Number of Macro iterations      .... Maxiter - #DIIS iter
   Number of Davidson start vectors     ....     2
   Converg. threshold I  (grad. norm)   ....   1.000e-05
   Converg. threshold II (energy diff.) ....   1.000e-08
   Grad. Scal. Fac. for Micro threshold ....   0.100
   Minimum threshold for Micro iter.    ....   0.010
   NR start threshold (gradient norm)   ....   0.001
   Initial trust radius                 ....   0.400
   Minimum AH scaling param. (alpha)    ....   1.000
   Maximum AH scaling param. (alpha)    .... 1000.000
   Orbital update algorithm             .... Taylor
   White noise on init. David. guess    .... on
   Maximum white noise                  ....   0.010
   Quad. conv. algorithm                .... NR
 SOSCF                  CNVSOSCF        .... on
   Start iteration      SOSCFMaxIt      ....   150
   Startup grad/error   SOSCFStart      ....  0.003300
 Level Shifting         CNVShift        .... on
   Level shift para.    LevelShift      ....    0.2500
   Turn off err/grad.   ShiftErr        ....    0.0010
 Zerner damping         CNVZerner       .... off
 Static damping         CNVDamp         .... on
   Fraction old density DampFac         ....    0.7000
   Max. Damping (<1)    DampMax         ....    0.9800
   Min. Damping (>=0)   DampMin         ....    0.0000
   Turn off err/grad.   DampErr         ....    0.1000
 Fernandez-Rico         CNVRico         .... off

SCF Procedure:
 Maximum # iterations   MaxIter         ....   125
 SCF integral mode      SCFMode         .... Direct
   Integral package                     .... SHARK and LIBINT hybrid scheme
 Reset frequency        DirectResetFreq ....    20
 Integral Threshold     Thresh          ....  2.500e-11 Eh
 Primitive CutOff       TCut            ....  2.500e-12 Eh

Convergence Tolerance:
 Convergence Check Mode ConvCheckMode   .... Total+1el-Energy
 Convergence forced     ConvForced      .... 1
 Energy Change          TolE            ....  1.000e-08 Eh
 1-El. energy change                    ....  1.000e-05 Eh
 Orbital Gradient       TolG            ....  1.000e-05
 Orbital Rotation angle TolX            ....  1.000e-05
 DIIS Error             TolErr          ....  5.000e-07


Diagonalization of the overlap matrix:
Smallest eigenvalue                        ... 2.636e-06
Time for diagonalization                   ...    0.167 sec
Threshold for overlap eigenvalues          ... 1.000e-08
Number of eigenvalues below threshold      ... 0
Time for construction of square roots      ...    0.083 sec
Total time needed                          ...    0.252 sec

Time for model grid setup =    0.407 sec

------------------------------
INITIAL GUESS: MODEL POTENTIAL
------------------------------
Loading Hartree-Fock densities                     ... done
Calculating cut-offs                               ... done
Initializing the effective Hamiltonian             ... done
Setting up the integral package (SHARK)            ... done
Starting the Coulomb interaction                   ... done (   1.2 sec)
Reading the grid                                   ... done
Mapping shells                                     ... done
Starting the XC term evaluation                    ... done (   0.3 sec)
Transforming the Hamiltonian                       ... done (   0.1 sec)
Diagonalizing the Hamiltonian                      ... done (   0.1 sec)
Back transforming the eigenvectors                 ... done (   0.0 sec)
Now organizing SCF variables                       ... done
                      ------------------
                      INITIAL GUESS DONE (   2.1 sec)
                      ------------------

--------------------
CPCM SOLVATION MODEL
--------------------
CPCM parameters:
  Epsilon                                         ...      35.6880
  Refrac                                          ...       1.3442
  Rsolv                                           ...       1.3000
  Surface type                                    ... GAUSSIAN VDW
  Epsilon function type                           ...         CPCM
Solvent:                                     ... ACETONITRILE
SMD-CDS solvent descriptors:
  Soln                                       ...    1.3442
  Soln25                                     ...    1.3416
  Sola                                       ...    0.0700
  Solb                                       ...    0.3200
  Solg                                       ...   41.2500
  Solc                                       ...    0.0000
  Solh                                       ...    0.0000
Radii:
 Radius for C  used is    3.4960 Bohr (=   1.8500 Ang.)
 Radius for H  used is    2.2677 Bohr (=   1.2000 Ang.)
 Radius for O  used is    4.0969 Bohr (=   2.1680 Ang.)
Calculating surface                               ...        done! (  0.0s)
GEPOL surface points                              ...         2327
GEPOL Volume                                      ...    2514.0930
GEPOL Surface-area                                ...    1309.7577
Calculating surface distance matrix               ...        done! (  0.0s)
Performing Cholesky decomposition & store         ...        done! (  0.1s)
Overall time for CPCM initialization              ...                 0.2s
--------------
SCF ITERATIONS
--------------
ITER       Energy         Delta-E        Max-DP      RMS-DP      [F,P]     Damp
               ***  Starting incremental Fock matrix formation  ***
  0  -1142.2385174642   0.000000000000 0.05739125  0.00081380  0.3024529 0.7000
  1  -1142.5545445598  -0.316027095594 0.06109674  0.00069204  0.2203421 0.7000
                               ***Turning on DIIS***
  2  -1142.7566079435  -0.202063383717 0.04003321  0.00050355  0.1627659 0.7000
  3  -1145.4873536646  -2.730745721113 0.03156639  0.00037991  0.1203443 0.7000
  4  -1145.2778083946   0.209545269975 0.08952686  0.00095052  0.0841972 0.0000
  5  -1143.3040184315   1.973789963132 0.01264277  0.00010571  0.0112194 0.0000
  6  -1143.2087917685   0.095226662977 0.00821820  0.00005328  0.0055899 0.0000
                      *** Initiating the SOSCF procedure ***
                           *** Shutting down DIIS ***
                      *** Re-Reading the Fockian *** 
                      *** Removing any level shift *** 
ITER      Energy       Delta-E        Grad      Rot      Max-DP    RMS-DP
  7  -1143.20123051   0.0075612570  0.001438  0.001438  0.003041  0.000028
               *** Restarting incremental Fock matrix formation ***
  8  -1143.19826066   0.0029698558  0.000772  0.001808  0.002038  0.000016
  9  -1143.19829250  -0.0000318458  0.000415  0.002589  0.001689  0.000018
 10  -1143.19830807  -0.0000155701  0.000124  0.000316  0.000636  0.000005
 11  -1143.19830933  -0.0000012611  0.000072  0.000258  0.000256  0.000002
 12  -1143.19830981  -0.0000004741  0.000043  0.000332  0.000222  0.000002
 13  -1143.19831000  -0.0000001918  0.000016  0.000065  0.000051  0.000001
 14  -1143.19831002  -0.0000000225  0.000007  0.000015  0.000040  0.000000
                  ***Gradient check signals convergence***
              ***Rediagonalizing the Fockian in SOSCF/NRSCF***

               *****************************************************
               *                     SUCCESS                       *
               *           SCF CONVERGED AFTER  15 CYCLES          *
               *****************************************************


SMD CDS free energy correction energy :                -5.20989     Kcal/mol
Total Energy after SMD CDS correction =             -1143.206612494 Eh

----------------
TOTAL SCF ENERGY
----------------

Total Energy       :        -1143.20661249 Eh          -31108.23344 eV

Components:
Nuclear Repulsion  :         2255.51974072 Eh           61375.81243 eV
Electronic Energy  :        -3398.72635321 Eh          -92484.04587 eV
One Electron Energy:        -6040.94955028 Eh         -164382.59431 eV
Two Electron Energy:         2642.22319707 Eh           71898.54844 eV
CPCM Dielectric    :           -0.03160152 Eh              -0.85992 eV
SMD CDS (Gcds)     :           -0.00830249 Eh              -0.22592 eV

Virial components:
Potential Energy   :        -2285.43917164 Eh          -62189.96154 eV
Kinetic Energy     :         1142.23255914 Eh           31081.72810 eV
Virial Ratio       :            2.00085276

CPCM Solvation Model Properties:
Surface-charge          :           -0.05763690
Charge-correction       :            0.00005979 Eh               0.00163 eV
Free-energy (cav+disp)  :           -0.00830249 Eh              -0.22592 eV

---------------
SCF CONVERGENCE
---------------

  Last Energy change         ...    1.5614e-08  Tolerance :   1.0000e-08
  Last MAX-Density change    ...    4.1482e-05  Tolerance :   1.0000e-07
  Last RMS-Density change    ...    3.0658e-07  Tolerance :   5.0000e-09
  Last Orbital Gradient      ...    2.3826e-06  Tolerance :   1.0000e-05
  Last Orbital Rotation      ...    9.3518e-06  Tolerance :   1.0000e-05

             **** THE GBW FILE WAS UPDATED (NCE_2_STEOM-DLPNO-CCSD_DEF2-TZVP_RIJCOSX_SMD_suretoconv.gbw) ****
             **** DENSITY NCE_2_STEOM-DLPNO-CCSD_DEF2-TZVP_RIJCOSX_SMD_suretoconv.scfp WAS UPDATED ****
             **** ENERGY FILE WAS UPDATED (NCE_2_STEOM-DLPNO-CCSD_DEF2-TZVP_RIJCOSX_SMD_suretoconv.en.tmp) ****
             **** THE GBW FILE WAS UPDATED (NCE_2_STEOM-DLPNO-CCSD_DEF2-TZVP_RIJCOSX_SMD_suretoconv.gbw) ****
             **** DENSITY NCE_2_STEOM-DLPNO-CCSD_DEF2-TZVP_RIJCOSX_SMD_suretoconv.scfp WAS UPDATED ****
----------------
ORBITAL ENERGIES
----------------

  NO   OCC          E(Eh)            E(eV) 
   0   2.0000     -20.622140      -561.1570 
   1   2.0000     -20.587826      -560.2232 
   2   2.0000     -20.542059      -558.9778 
   3   2.0000     -11.394560      -310.0617 
   4   2.0000     -11.317430      -307.9629 
   5   2.0000     -11.310654      -307.7785 
   6   2.0000     -11.275399      -306.8192 
   7   2.0000     -11.270286      -306.6801 
   8   2.0000     -11.265915      -306.5611 
   9   2.0000     -11.259158      -306.3773 
  10   2.0000     -11.254549      -306.2519 
  11   2.0000     -11.248588      -306.0896 
  12   2.0000     -11.248160      -306.0780 
  13   2.0000     -11.243112      -305.9406 
  14   2.0000     -11.242244      -305.9170 
  15   2.0000     -11.239116      -305.8319 
  16   2.0000     -11.237610      -305.7909 
  17   2.0000     -11.233032      -305.6663 
  18   2.0000     -11.232916      -305.6632 
  19   2.0000     -11.231788      -305.6325 
  20   2.0000     -11.229157      -305.5609 
  21   2.0000     -11.228894      -305.5537 
  22   2.0000     -11.227276      -305.5097 
  23   2.0000     -11.227273      -305.5096 
  24   2.0000     -11.227247      -305.5089 
  25   2.0000     -11.227162      -305.5066 
  26   2.0000     -11.226413      -305.4862 
  27   2.0000      -1.480337       -40.2820 
  28   2.0000      -1.418404       -38.5967 
  29   2.0000      -1.377195       -37.4754 
  30   2.0000      -1.202151       -32.7122 
  31   2.0000      -1.167379       -31.7660 
  32   2.0000      -1.156867       -31.4800 
  33   2.0000      -1.131051       -30.7774 
  34   2.0000      -1.084346       -29.5066 
  35   2.0000      -1.052867       -28.6500 
  36   2.0000      -1.032369       -28.0922 
  37   2.0000      -1.023456       -27.8497 
  38   2.0000      -1.016920       -27.6718 
  39   2.0000      -1.014069       -27.5942 
  40   2.0000      -0.981491       -26.7077 
  41   2.0000      -0.942637       -25.6505 
  42   2.0000      -0.909362       -24.7450 
  43   2.0000      -0.870024       -23.6746 
  44   2.0000      -0.869537       -23.6613 
  45   2.0000      -0.841219       -22.8907 
  46   2.0000      -0.831102       -22.6154 
  47   2.0000      -0.825202       -22.4549 
  48   2.0000      -0.784803       -21.3556 
  49   2.0000      -0.774830       -21.0842 
  50   2.0000      -0.755946       -20.5703 
  51   2.0000      -0.718310       -19.5462 
  52   2.0000      -0.717914       -19.5354 
  53   2.0000      -0.697662       -18.9844 
  54   2.0000      -0.683507       -18.5992 
  55   2.0000      -0.676249       -18.4017 
  56   2.0000      -0.667322       -18.1588 
  57   2.0000      -0.659002       -17.9324 
  58   2.0000      -0.652972       -17.7683 
  59   2.0000      -0.645755       -17.5719 
  60   2.0000      -0.639915       -17.4130 
  61   2.0000      -0.633541       -17.2395 
  62   2.0000      -0.628387       -17.0993 
  63   2.0000      -0.610657       -16.6168 
  64   2.0000      -0.606399       -16.5010 
  65   2.0000      -0.598913       -16.2972 
  66   2.0000      -0.586722       -15.9655 
  67   2.0000      -0.583747       -15.8846 
  68   2.0000      -0.582386       -15.8475 
  69   2.0000      -0.569598       -15.4996 
  70   2.0000      -0.557559       -15.1719 
  71   2.0000      -0.548471       -14.9247 
  72   2.0000      -0.543893       -14.8001 
  73   2.0000      -0.538201       -14.6452 
  74   2.0000      -0.527727       -14.3602 
  75   2.0000      -0.508868       -13.8470 
  76   2.0000      -0.508573       -13.8390 
  77   2.0000      -0.504307       -13.7229 
  78   2.0000      -0.503188       -13.6924 
  79   2.0000      -0.490609       -13.3502 
  80   2.0000      -0.487419       -13.2633 
  81   2.0000      -0.487113       -13.2550 
  82   2.0000      -0.472669       -12.8620 
  83   2.0000      -0.456296       -12.4165 
  84   2.0000      -0.445034       -12.1100 
  85   2.0000      -0.396737       -10.7958 
  86   2.0000      -0.357233        -9.7208 
  87   2.0000      -0.341209        -9.2848 
  88   2.0000      -0.337867        -9.1938 
  89   2.0000      -0.329506        -8.9663 
  90   2.0000      -0.318046        -8.6545 
  91   2.0000      -0.273862        -7.4522 
  92   0.0000       0.052354         1.4246 
  93   0.0000       0.069942         1.9032 
  94   0.0000       0.117074         3.1858 
  95   0.0000       0.124021         3.3748 
  96   0.0000       0.129329         3.5192 
  97   0.0000       0.145935         3.9711 
  98   0.0000       0.156799         4.2667 
  99   0.0000       0.158041         4.3005 
 100   0.0000       0.168341         4.5808 
 101   0.0000       0.168929         4.5968 
 102   0.0000       0.176530         4.8036 
 103   0.0000       0.179336         4.8800 
 104   0.0000       0.189263         5.1501 
 105   0.0000       0.190125         5.1736 
 106   0.0000       0.194614         5.2957 
 107   0.0000       0.201483         5.4826 
 108   0.0000       0.201739         5.4896 
 109   0.0000       0.207912         5.6576 
 110   0.0000       0.212842         5.7917 
 111   0.0000       0.217126         5.9083 
 112   0.0000       0.222412         6.0521 
 113   0.0000       0.223720         6.0877 
 114   0.0000       0.231183         6.2908 
 115   0.0000       0.233924         6.3654 
 116   0.0000       0.245272         6.6742 
 117   0.0000       0.247566         6.7366 
 118   0.0000       0.256819         6.9884 
 119   0.0000       0.263669         7.1748 
 120   0.0000       0.280603         7.6356 
 121   0.0000       0.282491         7.6870 
 122   0.0000       0.291568         7.9340 
 123   0.0000       0.297841         8.1047 
 124   0.0000       0.299406         8.1473 
 125   0.0000       0.299901         8.1607 
 126   0.0000       0.304294         8.2803 
 127   0.0000       0.315589         8.5876 
 128   0.0000       0.320690         8.7264 
 129   0.0000       0.321178         8.7397 
 130   0.0000       0.326133         8.8745 
 131   0.0000       0.328610         8.9419 
 132   0.0000       0.334327         9.0975 
 133   0.0000       0.339120         9.2279 
 134   0.0000       0.342259         9.3133 
 135   0.0000       0.349346         9.5062 
 136   0.0000       0.350630         9.5411 
 137   0.0000       0.352558         9.5936 
 138   0.0000       0.362128         9.8540 
 139   0.0000       0.363099         9.8804 
 140   0.0000       0.367772        10.0076 
 141   0.0000       0.373533        10.1643 
 142   0.0000       0.374864        10.2006 
 143   0.0000       0.380936        10.3658 
 144   0.0000       0.386101        10.5064 
 145   0.0000       0.387362        10.5407 
 146   0.0000       0.392975        10.6934 
 147   0.0000       0.397741        10.8231 
 148   0.0000       0.399994        10.8844 
 149   0.0000       0.405246        11.0273 
 150   0.0000       0.410277        11.1642 
 151   0.0000       0.417528        11.3615 
 152   0.0000       0.423700        11.5295 
 153   0.0000       0.425165        11.5693 
 154   0.0000       0.428243        11.6531 
 155   0.0000       0.434119        11.8130 
 156   0.0000       0.441707        12.0195 
 157   0.0000       0.443201        12.0601 
 158   0.0000       0.448945        12.2164 
 159   0.0000       0.454888        12.3781 
 160   0.0000       0.455761        12.4019 
 161   0.0000       0.473563        12.8863 
 162   0.0000       0.473822        12.8934 
 163   0.0000       0.482013        13.1162 
 164   0.0000       0.483728        13.1629 
 165   0.0000       0.485412        13.2087 
 166   0.0000       0.486291        13.2327 
 167   0.0000       0.488943        13.3048 
 168   0.0000       0.498089        13.5537 
 169   0.0000       0.500966        13.6320 
 170   0.0000       0.502326        13.6690 
 171   0.0000       0.507556        13.8113 
 172   0.0000       0.509481        13.8637 
 173   0.0000       0.516760        14.0618 
 174   0.0000       0.519960        14.1488 
 175   0.0000       0.526453        14.3255 
 176   0.0000       0.531757        14.4698 
 177   0.0000       0.532653        14.4942 
 178   0.0000       0.534966        14.5572 
 179   0.0000       0.539498        14.6805 
 180   0.0000       0.542186        14.7536 
 181   0.0000       0.549829        14.9616 
 182   0.0000       0.553682        15.0664 
 183   0.0000       0.557253        15.1636 
 184   0.0000       0.560439        15.2503 
 185   0.0000       0.563491        15.3334 
 186   0.0000       0.564871        15.3709 
 187   0.0000       0.567551        15.4438 
 188   0.0000       0.572756        15.5855 
 189   0.0000       0.576671        15.6920 
 190   0.0000       0.577257        15.7080 
 191   0.0000       0.580114        15.7857 
 192   0.0000       0.585866        15.9422 
 193   0.0000       0.597467        16.2579 
 194   0.0000       0.600943        16.3525 
 195   0.0000       0.603932        16.4338 
 196   0.0000       0.610593        16.6151 
 197   0.0000       0.611304        16.6344 
 198   0.0000       0.614720        16.7274 
 199   0.0000       0.624091        16.9824 
 200   0.0000       0.624857        17.0032 
 201   0.0000       0.625826        17.0296 
 202   0.0000       0.631314        17.1789 
 203   0.0000       0.634265        17.2592 
 204   0.0000       0.647425        17.6173 
 205   0.0000       0.650396        17.6982 
 206   0.0000       0.651308        17.7230 
 207   0.0000       0.657742        17.8981 
 208   0.0000       0.660188        17.9646 
 209   0.0000       0.662971        18.0404 
 210   0.0000       0.670012        18.2319 
 211   0.0000       0.672982        18.3128 
 212   0.0000       0.677732        18.4420 
 213   0.0000       0.685075        18.6418 
 214   0.0000       0.687683        18.7128 
 215   0.0000       0.687872        18.7179 
 216   0.0000       0.695579        18.9277 
 217   0.0000       0.700311        19.0564 
 218   0.0000       0.702064        19.1041 
 219   0.0000       0.713051        19.4031 
 220   0.0000       0.720924        19.6173 
 221   0.0000       0.724546        19.7159 
 222   0.0000       0.735752        20.0208 
 223   0.0000       0.736979        20.0542 
 224   0.0000       0.747887        20.3510 
 225   0.0000       0.753329        20.4991 
 226   0.0000       0.754912        20.5422 
 227   0.0000       0.766879        20.8678 
 228   0.0000       0.773630        21.0515 
 229   0.0000       0.777492        21.1566 
 230   0.0000       0.785975        21.3875 
 231   0.0000       0.794648        21.6235 
 232   0.0000       0.801373        21.8065 
 233   0.0000       0.804418        21.8893 
 234   0.0000       0.810425        22.0528 
 235   0.0000       0.813250        22.1297 
 236   0.0000       0.816248        22.2112 
 237   0.0000       0.820165        22.3178 
 238   0.0000       0.833901        22.6916 
 239   0.0000       0.836876        22.7726 
 240   0.0000       0.837483        22.7891 
 241   0.0000       0.842796        22.9336 
 242   0.0000       0.846580        23.0366 
 243   0.0000       0.852270        23.1914 
 244   0.0000       0.859505        23.3883 
 245   0.0000       0.860716        23.4213 
 246   0.0000       0.867413        23.6035 
 247   0.0000       0.869371        23.6568 
 248   0.0000       0.873310        23.7640 
 249   0.0000       0.879029        23.9196 
 250   0.0000       0.888422        24.1752 
 251   0.0000       0.891408        24.2565 
 252   0.0000       0.899571        24.4786 
 253   0.0000       0.901494        24.5309 
 254   0.0000       0.904401        24.6100 
 255   0.0000       0.908197        24.7133 
 256   0.0000       0.914430        24.8829 
 257   0.0000       0.918517        24.9941 
 258   0.0000       0.923929        25.1414 
 259   0.0000       0.928860        25.2756 
 260   0.0000       0.932914        25.3859 
 261   0.0000       0.941883        25.6299 
 262   0.0000       0.943871        25.6840 
 263   0.0000       0.944466        25.7002 
 264   0.0000       0.947592        25.7853 
 265   0.0000       0.957885        26.0654 
 266   0.0000       0.959341        26.1050 
 267   0.0000       0.966112        26.2892 
 268   0.0000       0.967654        26.3312 
 269   0.0000       0.973494        26.4901 
 270   0.0000       0.977661        26.6035 
 271   0.0000       0.978065        26.6145 
 272   0.0000       0.983018        26.7493 
 273   0.0000       0.994933        27.0735 
 274   0.0000       1.001856        27.2619 
 275   0.0000       1.002062        27.2675 
 276   0.0000       1.005485        27.3606 
 277   0.0000       1.010165        27.4880 
 278   0.0000       1.023584        27.8531 
 279   0.0000       1.035334        28.1729 
 280   0.0000       1.038568        28.2609 
 281   0.0000       1.042735        28.3743 
 282   0.0000       1.045833        28.4586 
 283   0.0000       1.047852        28.5135 
 284   0.0000       1.055436        28.7199 
 285   0.0000       1.058689        28.8084 
 286   0.0000       1.068250        29.0686 
 287   0.0000       1.073521        29.2120 
 288   0.0000       1.082092        29.4452 
 289   0.0000       1.085071        29.5263 
 290   0.0000       1.087868        29.6024 
 291   0.0000       1.092089        29.7172 
 292   0.0000       1.103607        30.0307 
 293   0.0000       1.107623        30.1400 
 294   0.0000       1.108315        30.1588 
 295   0.0000       1.113605        30.3027 
 296   0.0000       1.119886        30.4737 
 297   0.0000       1.131961        30.8022 
 298   0.0000       1.139715        31.0132 
 299   0.0000       1.142767        31.0963 
 300   0.0000       1.148426        31.2503 
 301   0.0000       1.162937        31.6451 
 302   0.0000       1.171412        31.8758 
 303   0.0000       1.176569        32.0161 
 304   0.0000       1.182579        32.1796 
 305   0.0000       1.188677        32.3455 
 306   0.0000       1.193969        32.4896 
 307   0.0000       1.203328        32.7442 
 308   0.0000       1.214190        33.0398 
 309   0.0000       1.218093        33.1460 
 310   0.0000       1.231783        33.5185 
 311   0.0000       1.232545        33.5393 
 312   0.0000       1.245198        33.8836 
 313   0.0000       1.251242        34.0480 
 314   0.0000       1.252294        34.0766 
 315   0.0000       1.265365        34.4323 
 316   0.0000       1.276105        34.7246 
 317   0.0000       1.297967        35.3195 
 318   0.0000       1.303202        35.4619 
 319   0.0000       1.304783        35.5050 
 320   0.0000       1.312801        35.7231 
 321   0.0000       1.313608        35.7451 
 322   0.0000       1.317185        35.8424 
 323   0.0000       1.329700        36.1830 
 324   0.0000       1.337415        36.3929 
 325   0.0000       1.356166        36.9032 
 326   0.0000       1.359007        36.9805 
 327   0.0000       1.363592        37.1052 
 328   0.0000       1.373867        37.3848 
 329   0.0000       1.379909        37.5492 
 330   0.0000       1.394479        37.9457 
 331   0.0000       1.398251        38.0483 
 332   0.0000       1.402329        38.1593 
 333   0.0000       1.424065        38.7508 
 334   0.0000       1.425765        38.7970 
 335   0.0000       1.429707        38.9043 
 336   0.0000       1.430458        38.9247 
 337   0.0000       1.435885        39.0724 
 338   0.0000       1.445752        39.3409 
 339   0.0000       1.459239        39.7079 
 340   0.0000       1.467191        39.9243 
 341   0.0000       1.473124        40.0857 
 342   0.0000       1.479364        40.2555 
 343   0.0000       1.483714        40.3739 
 344   0.0000       1.487825        40.4858 
 345   0.0000       1.493837        40.6494 
 346   0.0000       1.495360        40.6908 
 347   0.0000       1.504965        40.9522 
 348   0.0000       1.509424        41.0735 
 349   0.0000       1.512720        41.1632 
 350   0.0000       1.525001        41.4974 
 351   0.0000       1.539506        41.8921 
 352   0.0000       1.548310        42.1316 
 353   0.0000       1.554007        42.2867 
 354   0.0000       1.556441        42.3529 
 355   0.0000       1.562083        42.5064 
 356   0.0000       1.573865        42.8270 
 357   0.0000       1.585552        43.1451 
 358   0.0000       1.587172        43.1892 
 359   0.0000       1.602329        43.6016 
 360   0.0000       1.618436        44.0399 
 361   0.0000       1.632474        44.4219 
 362   0.0000       1.639723        44.6191 
 363   0.0000       1.641280        44.6615 
 364   0.0000       1.650394        44.9095 
 365   0.0000       1.654256        45.0146 
 366   0.0000       1.676499        45.6198 
 367   0.0000       1.678102        45.6635 
 368   0.0000       1.684478        45.8370 
 369   0.0000       1.687236        45.9120 
 370   0.0000       1.689893        45.9843 
 371   0.0000       1.703259        46.3480 
 372   0.0000       1.704704        46.3874 
 373   0.0000       1.720338        46.8128 
 374   0.0000       1.721183        46.8358 
 375   0.0000       1.730282        47.0834 
 376   0.0000       1.737233        47.2725 
 377   0.0000       1.739760        47.3413 
 378   0.0000       1.740266        47.3550 
 379   0.0000       1.753805        47.7235 
 380   0.0000       1.763300        47.9818 
 381   0.0000       1.765142        48.0320 
 382   0.0000       1.772803        48.2404 
 383   0.0000       1.773906        48.2704 
 384   0.0000       1.786378        48.6098 
 385   0.0000       1.791846        48.7586 
 386   0.0000       1.792086        48.7651 
 387   0.0000       1.797627        48.9159 
 388   0.0000       1.801261        49.0148 
 389   0.0000       1.811833        49.3025 
 390   0.0000       1.815268        49.3959 
 391   0.0000       1.818311        49.4788 
 392   0.0000       1.818661        49.4883 
 393   0.0000       1.826933        49.7134 
 394   0.0000       1.839995        50.0688 
 395   0.0000       1.841205        50.1017 
 396   0.0000       1.847200        50.2649 
 397   0.0000       1.851898        50.3927 
 398   0.0000       1.863933        50.7202 
 399   0.0000       1.869262        50.8652 
 400   0.0000       1.875601        51.0377 
 401   0.0000       1.884539        51.2809 
 402   0.0000       1.886402        51.3316 
 403   0.0000       1.895124        51.5690 
 404   0.0000       1.902095        51.7586 
 405   0.0000       1.902262        51.7632 
 406   0.0000       1.915647        52.1274 
 407   0.0000       1.928821        52.4859 
 408   0.0000       1.934092        52.6293 
 409   0.0000       1.943880        52.8957 
 410   0.0000       1.956661        53.2435 
 411   0.0000       1.964191        53.4484 
 412   0.0000       1.965035        53.4713 
 413   0.0000       1.971767        53.6545 
 414   0.0000       1.982898        53.9574 
 415   0.0000       1.988533        54.1107 
 416   0.0000       1.993070        54.2342 
 417   0.0000       1.994784        54.2808 
 418   0.0000       2.000096        54.4254 
 419   0.0000       2.000185        54.4278 
 420   0.0000       2.005921        54.5839 
 421   0.0000       2.016947        54.8839 
 422   0.0000       2.019280        54.9474 
 423   0.0000       2.023731        55.0685 
 424   0.0000       2.028461        55.1972 
 425   0.0000       2.039147        55.4880 
 426   0.0000       2.051991        55.8375 
 427   0.0000       2.053728        55.8848 
 428   0.0000       2.057157        55.9781 
 429   0.0000       2.064545        56.1791 
 430   0.0000       2.069894        56.3247 
 431   0.0000       2.087578        56.8059 
 432   0.0000       2.090554        56.8869 
 433   0.0000       2.096463        57.0477 
 434   0.0000       2.103158        57.2298 
 435   0.0000       2.120626        57.7052 
 436   0.0000       2.122353        57.7521 
 437   0.0000       2.139041        58.2063 
 438   0.0000       2.147416        58.4341 
 439   0.0000       2.155823        58.6629 
 440   0.0000       2.161664        58.8219 
 441   0.0000       2.165075        58.9147 
 442   0.0000       2.178274        59.2738 
 443   0.0000       2.188142        59.5424 
 444   0.0000       2.197874        59.8072 
 445   0.0000       2.200287        59.8728 
 446   0.0000       2.211549        60.1793 
 447   0.0000       2.215719        60.2928 
 448   0.0000       2.220412        60.4205 
 449   0.0000       2.235211        60.8232 
 450   0.0000       2.247871        61.1677 
 451   0.0000       2.259136        61.4742 
 452   0.0000       2.263293        61.5873 
 453   0.0000       2.271388        61.8076 
 454   0.0000       2.278216        61.9934 
 455   0.0000       2.289071        62.2888 
 456   0.0000       2.296119        62.4806 
 457   0.0000       2.302677        62.6590 
 458   0.0000       2.308942        62.8295 
 459   0.0000       2.313855        62.9632 
 460   0.0000       2.321127        63.1611 
 461   0.0000       2.339874        63.6712 
 462   0.0000       2.342156        63.7333 
 463   0.0000       2.355373        64.0930 
 464   0.0000       2.364057        64.3293 
 465   0.0000       2.373628        64.5897 
 466   0.0000       2.388657        64.9987 
 467   0.0000       2.407554        65.5129 
 468   0.0000       2.408143        65.5289 
 469   0.0000       2.408388        65.5356 
 470   0.0000       2.424115        65.9635 
 471   0.0000       2.431830        66.1735 
 472   0.0000       2.436834        66.3096 
 473   0.0000       2.441832        66.4456 
 474   0.0000       2.454522        66.7909 
 475   0.0000       2.457009        66.8586 
 476   0.0000       2.470679        67.2306 
 477   0.0000       2.472669        67.2848 
 478   0.0000       2.475120        67.3514 
 479   0.0000       2.484591        67.6092 
 480   0.0000       2.491958        67.8096 
 481   0.0000       2.503521        68.1243 
 482   0.0000       2.513061        68.3839 
 483   0.0000       2.522658        68.6450 
 484   0.0000       2.528101        68.7931 
 485   0.0000       2.538609        69.0791 
 486   0.0000       2.544931        69.2511 
 487   0.0000       2.554644        69.5154 
 488   0.0000       2.564139        69.7738 
 489   0.0000       2.567715        69.8711 
 490   0.0000       2.579278        70.1857 
 491   0.0000       2.582907        70.2845 
 492   0.0000       2.591821        70.5270 
 493   0.0000       2.596210        70.6465 
 494   0.0000       2.610260        71.0288 
 495   0.0000       2.615363        71.1676 
 496   0.0000       2.618927        71.2646 
 497   0.0000       2.624334        71.4118 
 498   0.0000       2.625158        71.4342 
 499   0.0000       2.649103        72.0857 
 500   0.0000       2.653080        72.1940 
 501   0.0000       2.663880        72.4879 
 502   0.0000       2.673238        72.7425 
 503   0.0000       2.677533        72.8594 
 504   0.0000       2.689910        73.1962 
 505   0.0000       2.690404        73.2096 
 506   0.0000       2.707119        73.6645 
 507   0.0000       2.725832        74.1737 
 508   0.0000       2.735629        74.4403 
 509   0.0000       2.742649        74.6313 
 510   0.0000       2.750308        74.8397 
 511   0.0000       2.768725        75.3408 
 512   0.0000       2.784434        75.7683 
 513   0.0000       2.787484        75.8513 
 514   0.0000       2.793566        76.0168 
 515   0.0000       2.796711        76.1024 
 516   0.0000       2.808624        76.4265 
 517   0.0000       2.822509        76.8044 
 518   0.0000       2.823187        76.8228 
 519   0.0000       2.839008        77.2533 
 520   0.0000       2.841486        77.3208 
 521   0.0000       2.854798        77.6830 
 522   0.0000       2.856818        77.7380 
 523   0.0000       2.862062        77.8807 
 524   0.0000       2.864645        77.9510 
 525   0.0000       2.873916        78.2032 
 526   0.0000       2.883331        78.4594 
 527   0.0000       2.897342        78.8407 
 528   0.0000       2.903593        79.0108 
 529   0.0000       2.922374        79.5218 
 530   0.0000       2.923874        79.5627 
 531   0.0000       2.929254        79.7091 
 532   0.0000       2.934420        79.8496 
 533   0.0000       2.939113        79.9773 
 534   0.0000       2.951527        80.3151 
 535   0.0000       2.955161        80.4140 
 536   0.0000       2.957477        80.4770 
 537   0.0000       2.960030        80.5465 
 538   0.0000       2.966056        80.7105 
 539   0.0000       2.978333        81.0446 
 540   0.0000       2.984679        81.2172 
 541   0.0000       2.994477        81.4839 
 542   0.0000       2.994593        81.4870 
 543   0.0000       2.998741        81.5999 
 544   0.0000       3.003018        81.7163 
 545   0.0000       3.005478        81.7832 
 546   0.0000       3.012058        81.9623 
 547   0.0000       3.013619        82.0048 
 548   0.0000       3.023706        82.2792 
 549   0.0000       3.029427        82.4349 
 550   0.0000       3.029564        82.4386 
 551   0.0000       3.038236        82.6746 
 552   0.0000       3.038951        82.6941 
 553   0.0000       3.049702        82.9866 
 554   0.0000       3.054717        83.1231 
 555   0.0000       3.056098        83.1606 
 556   0.0000       3.066631        83.4473 
 557   0.0000       3.070489        83.5523 
 558   0.0000       3.076263        83.7094 
 559   0.0000       3.079754        83.8044 
 560   0.0000       3.082586        83.8814 
 561   0.0000       3.087281        84.0092 
 562   0.0000       3.101108        84.3854 
 563   0.0000       3.101292        84.3904 
 564   0.0000       3.105687        84.5100 
 565   0.0000       3.114981        84.7629 
 566   0.0000       3.117880        84.8418 
 567   0.0000       3.133117        85.2565 
 568   0.0000       3.133585        85.2692 
 569   0.0000       3.135449        85.3199 
 570   0.0000       3.141595        85.4872 
 571   0.0000       3.150668        85.7340 
 572   0.0000       3.151045        85.7443 
 573   0.0000       3.155641        85.8694 
 574   0.0000       3.158463        85.9461 
 575   0.0000       3.163549        86.0845 
 576   0.0000       3.171543        86.3021 
 577   0.0000       3.178194        86.4831 
 578   0.0000       3.178673        86.4961 
 579   0.0000       3.188946        86.7756 
 580   0.0000       3.196406        86.9786 
 581   0.0000       3.202496        87.1443 
 582   0.0000       3.204769        87.2062 
 583   0.0000       3.211016        87.3762 
 584   0.0000       3.212825        87.4254 
 585   0.0000       3.219647        87.6110 
 586   0.0000       3.224405        87.7405 
 587   0.0000       3.227704        87.8303 
 588   0.0000       3.237806        88.1052 
 589   0.0000       3.237999        88.1104 
 590   0.0000       3.250012        88.4373 
 591   0.0000       3.257105        88.6303 
 592   0.0000       3.261227        88.7425 
 593   0.0000       3.268813        88.9489 
 594   0.0000       3.272290        89.0435 
 595   0.0000       3.282254        89.3147 
 596   0.0000       3.289316        89.5068 
 597   0.0000       3.299439        89.7823 
 598   0.0000       3.301345        89.8342 
 599   0.0000       3.306984        89.9876 
 600   0.0000       3.308210        90.0210 
 601   0.0000       3.308545        90.0301 
 602   0.0000       3.322028        90.3970 
 603   0.0000       3.337297        90.8125 
 604   0.0000       3.337728        90.8242 
 605   0.0000       3.341182        90.9182 
 606   0.0000       3.350514        91.1721 
 607   0.0000       3.354200        91.2724 
 608   0.0000       3.373441        91.7960 
 609   0.0000       3.375013        91.8388 
 610   0.0000       3.378564        91.9354 
 611   0.0000       3.389872        92.2431 
 612   0.0000       3.399439        92.5034 
 613   0.0000       3.403842        92.6233 
 614   0.0000       3.413848        92.8955 
 615   0.0000       3.413884        92.8965 
 616   0.0000       3.417938        93.0068 
 617   0.0000       3.430998        93.3622 
 618   0.0000       3.432049        93.3908 
 619   0.0000       3.435997        93.4982 
 620   0.0000       3.444849        93.7391 
 621   0.0000       3.446349        93.7799 
 622   0.0000       3.452134        93.9373 
 623   0.0000       3.454171        93.9928 
 624   0.0000       3.458320        94.1057 
 625   0.0000       3.469730        94.4162 
 626   0.0000       3.476397        94.5976 
 627   0.0000       3.477752        94.6344 
 628   0.0000       3.488639        94.9307 
 629   0.0000       3.492542        95.0369 
 630   0.0000       3.506641        95.4205 
 631   0.0000       3.506797        95.4248 
 632   0.0000       3.507648        95.4480 
 633   0.0000       3.510503        95.5256 
 634   0.0000       3.520209        95.7898 
 635   0.0000       3.524140        95.8967 
 636   0.0000       3.525943        95.9458 
 637   0.0000       3.535774        96.2133 
 638   0.0000       3.543233        96.4163 
 639   0.0000       3.546120        96.4948 
 640   0.0000       3.546950        96.5174 
 641   0.0000       3.551045        96.6289 
 642   0.0000       3.565936        97.0340 
 643   0.0000       3.566967        97.0621 
 644   0.0000       3.576933        97.3333 
 645   0.0000       3.583005        97.4985 
 646   0.0000       3.591409        97.7272 
 647   0.0000       3.594224        97.8038 
 648   0.0000       3.598815        97.9287 
 649   0.0000       3.606944        98.1499 
 650   0.0000       3.610358        98.2428 
 651   0.0000       3.614467        98.3547 
 652   0.0000       3.618855        98.4741 
 653   0.0000       3.627320        98.7044 
 654   0.0000       3.635284        98.9211 
 655   0.0000       3.646551        99.2277 
 656   0.0000       3.654400        99.4413 
 657   0.0000       3.656131        99.4884 
 658   0.0000       3.657635        99.5293 
 659   0.0000       3.661236        99.6273 
 660   0.0000       3.666378        99.7672 
 661   0.0000       3.667808        99.8061 
 662   0.0000       3.676336       100.0382 
 663   0.0000       3.676450       100.0413 
 664   0.0000       3.683418       100.2309 
 665   0.0000       3.695244       100.5527 
 666   0.0000       3.701021       100.7099 
 667   0.0000       3.702219       100.7425 
 668   0.0000       3.711941       101.0071 
 669   0.0000       3.717237       101.1512 
 670   0.0000       3.721412       101.2648 
 671   0.0000       3.725865       101.3859 
 672   0.0000       3.728506       101.4578 
 673   0.0000       3.731997       101.5528 
 674   0.0000       3.741312       101.8063 
 675   0.0000       3.744752       101.8999 
 676   0.0000       3.748574       102.0039 
 677   0.0000       3.753576       102.1400 
 678   0.0000       3.763225       102.4025 
 679   0.0000       3.765937       102.4764 
 680   0.0000       3.769537       102.5743 
 681   0.0000       3.772293       102.6493 
 682   0.0000       3.783260       102.9477 
 683   0.0000       3.785199       103.0005 
 684   0.0000       3.794087       103.2424 
 685   0.0000       3.801529       103.4449 
 686   0.0000       3.805350       103.5488 
 687   0.0000       3.805711       103.5586 
 688   0.0000       3.808315       103.6295 
 689   0.0000       3.818582       103.9089 
 690   0.0000       3.821109       103.9777 
 691   0.0000       3.825452       104.0958 
 692   0.0000       3.833501       104.3149 
 693   0.0000       3.839145       104.4684 
 694   0.0000       3.846291       104.6629 
 695   0.0000       3.853965       104.8717 
 696   0.0000       3.856574       104.9427 
 697   0.0000       3.860191       105.0411 
 698   0.0000       3.864703       105.1639 
 699   0.0000       3.875490       105.4575 
 700   0.0000       3.880238       105.5866 
 701   0.0000       3.883228       105.6680 
 702   0.0000       3.883752       105.6823 
 703   0.0000       3.892886       105.9308 
 704   0.0000       3.895044       105.9895 
 705   0.0000       3.911148       106.4277 
 706   0.0000       3.912363       106.4608 
 707   0.0000       3.913660       106.4961 
 708   0.0000       3.921438       106.7077 
 709   0.0000       3.935432       107.0885 
 710   0.0000       3.940037       107.2139 
 711   0.0000       3.942788       107.2887 
 712   0.0000       3.944395       107.3324 
 713   0.0000       3.962705       107.8307 
 714   0.0000       3.970598       108.0455 
 715   0.0000       3.978830       108.2695 
 716   0.0000       3.981400       108.3394 
 717   0.0000       3.991666       108.6188 
 718   0.0000       4.000551       108.8605 
 719   0.0000       4.008100       109.0660 
 720   0.0000       4.023311       109.4799 
 721   0.0000       4.023591       109.4875 
 722   0.0000       4.029092       109.6372 
 723   0.0000       4.038906       109.9042 
 724   0.0000       4.044363       110.0527 
 725   0.0000       4.049137       110.1826 
 726   0.0000       4.052701       110.2796 
 727   0.0000       4.078533       110.9825 
 728   0.0000       4.088831       111.2627 
 729   0.0000       4.101572       111.6095 
 730   0.0000       4.115510       111.9887 
 731   0.0000       4.131594       112.4264 
 732   0.0000       4.132392       112.4481 
 733   0.0000       4.137300       112.5817 
 734   0.0000       4.151027       112.9552 
 735   0.0000       4.178226       113.6953 
 736   0.0000       4.181738       113.7909 
 737   0.0000       4.194597       114.1408 
 738   0.0000       4.204587       114.4126 
 739   0.0000       4.218844       114.8006 
 740   0.0000       4.224346       114.9503 
 741   0.0000       4.244250       115.4919 
 742   0.0000       4.251168       115.6802 
 743   0.0000       4.280373       116.4749 
 744   0.0000       4.285360       116.6106 
[...]
  Ground state amplitude:  0.017219

Percentage Active Character     81.48

Warning:: the state may have not converged with respect to active space 
-------------------- Handle with Care -------------------- 

  Amplitude    Excitation in Canonical Basis
   0.181125    84 ->  92
   0.383635    84 ->  93
   0.131834    85 ->  93
   0.114895    86 ->  94
   0.174567    87 ->  94
  -0.202894    88 ->  96
   0.136765    89 ->  95
  -0.114019    89 ->  97
  -0.118597    90 ->  96
  -0.271877    90 ->  97
   0.131138    90 ->  98
  -0.114560    90 -> 102
   0.195363    91 ->  97
  -0.381701    91 ->  99
  -0.222074    91 -> 100
  -0.139187    91 -> 101
   0.155398    91 -> 102
  -0.101741    91 -> 105
   0.162309    91 -> 108
  -0.116884    91 -> 109

IROOT= 24:  0.284979 au     7.755 eV   62545.6 cm**-1
  Amplitude    Excitation
   0.115430    84 ->  93
  -0.108488    85 ->  93
   0.273485    86 ->  97
   0.116467    86 -> 100
   0.112461    86 -> 101
  -0.102585    87 ->  98
   0.261967    90 -> 100
   0.136851    90 -> 101
  -0.275364    91 -> 100
  -0.514841    91 -> 101
   0.493921    91 -> 102
   0.102336    91 -> 103
  -0.112161    91 -> 104
  Ground state amplitude: -0.006911

Percentage Active Character     92.26

Warning:: the state may have not converged with respect to active space 
-------------------- Handle with Care -------------------- 

  Amplitude    Excitation in Canonical Basis
  -0.137118    84 ->  93
  -0.100163    85 ->  93
   0.272246    86 ->  97
  -0.152837    86 -> 100
   0.100886    87 -> 101
   0.273439    90 -> 100
   0.396295    91 -> 100
   0.498285    91 -> 102
   0.374746    91 -> 103
  -0.142598    91 -> 107

IROOT= 25:  0.285228 au     7.761 eV   62600.3 cm**-1
  Amplitude    Excitation
   0.149379    86 ->  97
   0.117368    86 -> 100
   0.126210    86 -> 101
   0.274874    90 -> 100
   0.161113    90 -> 101
  -0.284768    91 -> 100
  -0.538833    91 -> 101
   0.550803    91 -> 102
  -0.139015    91 -> 104
  Ground state amplitude: -0.004455

Percentage Active Character     91.98

Warning:: the state may have not converged with respect to active space 
-------------------- Handle with Care -------------------- 

  Amplitude    Excitation in Canonical Basis
   0.149787    86 ->  97
  -0.162810    86 -> 100
   0.302324    90 -> 100
   0.418417    91 -> 100
   0.549586    91 -> 102
   0.398829    91 -> 103
  -0.157017    91 -> 107



-------------------
CPCM SOLVENT SHIFT
-------------------

Reading the CPCM data                  ... done
Making difference densities            ... done
Computing the potentials               ... done
Calculating charges                    ... done

---------------------------------
     CALCULATED SOLVENT SHIFTS   
            CPCM  MODEL          
---------------------------------

Contributions of the 'fast' term to the solvent shift

 State Shift(Eh) Shift(eV) Shift(cm**-1) Shift(nm) Esteom(eV)  Esteom+SHIFT(eV)
-------------------------------------------------------------------------------
   0: -0.0018506 -0.050     -406.2        5.7      3.332          3.282
   1: -0.0004279 -0.012      -93.9        0.9      3.999          3.988
   2: -0.0003503 -0.010      -76.9        0.6      4.320          4.310
   3: -0.0086818 -0.236    -1905.4       15.5      4.468          4.231
   4: -0.0008136 -0.022     -178.6        1.3      4.677          4.655
   5: -0.0002171 -0.006      -47.7        0.3      4.774          4.768
   6: -0.0028416 -0.077     -623.7        4.1      4.863          4.786
   7: -0.0117285 -0.319    -2574.1       14.9      5.320          5.001
   8: -0.0109697 -0.299    -2407.6       13.8      5.322          5.024
   9: -0.0114266 -0.311    -2507.9       13.5      5.497          5.186
  10: -0.0104020 -0.283    -2283.0       12.2      5.507          5.224
  11: -0.0020153 -0.055     -442.3        2.2      5.629          5.574
  12: -0.0017397 -0.047     -381.8        1.9      5.652          5.605
  13: -0.0013455 -0.037     -295.3        1.4      5.773          5.737
  14: -0.0152201 -0.414    -3340.4       16.0      5.870          5.456
  15: -0.0008300 -0.023     -182.2        0.8      5.897          5.875
  16: -0.0008748 -0.024     -192.0        0.8      6.084          6.060
  17: -0.0235511 -0.641    -5168.9       23.4      6.154          5.513
  18: -0.0002628 -0.007      -57.7        0.2      6.238          6.231
  19: -0.0002251 -0.006      -49.4        0.2      6.309          6.303
  20: -0.0161390 -0.439    -3542.1       14.1      6.437          5.998
  21: -0.0034079 -0.093     -747.9        2.4      6.953          6.860
  22: -0.0022961 -0.062     -503.9        1.4      7.360          7.297
  23: -0.0056625 -0.154    -1242.8        3.2      7.755          7.601
  24: -0.0072353 -0.197    -1588.0        4.2      7.761          7.565

-------------------
CPCM SOLVENT SHIFT
-------------------

Reading the CPCM data                  ... done
Making difference densities            ... done
Computing the potentials               ... done
Calculating charges                    ... done

R0 correction
 State Shift(Eh) Shift(eV)
--------------------------
   0: -0.0018796 -0.051
   1: -0.0004194 -0.011
   2: -0.0003613 -0.010
   3: -0.0086819 -0.236
   4: -0.0008298 -0.023
   5: -0.0002171 -0.006
   6: -0.0028589 -0.078
   7: -0.0117394 -0.319
   8: -0.0109847 -0.299
   9: -0.0114409 -0.311
  10: -0.0104023 -0.283
  11: -0.0020692 -0.056
  12: -0.0017468 -0.048
  13: -0.0013318 -0.036
  14: -0.0152202 -0.414
  15: -0.0008217 -0.022
  16: -0.0008781 -0.024
  17: -0.0235512 -0.641
  18: -0.0002623 -0.007
  19: -0.0002244 -0.006
  20: -0.0161330 -0.439
  21: -0.0034098 -0.093
  22: -0.0022842 -0.062
  23: -0.0056578 -0.154
  24: -0.0072329 -0.197

STEOM-CCSD done (18070.4 sec)

PAIRWISE REDUNDANCY FOUND (L1=1.996077E+00,L2=3.922785E-03) AND REMOVED FOR IROOT=8 and IROOT=9!

PAIRWISE REDUNDANCY FOUND (L1=1.973680E+00,L2=2.632015E-02) AND REMOVED FOR IROOT=24 and IROOT=25!

Calculating the Dipole integrals                  ... done
Transforming integrals                            ... done
Calculating the Linear Momentum integrals         ... done
Transforming integrals                            ... done
Calculating angular momentum integrals            ... done
Transforming integrals                            ... done

--------------------------------------------------------------------
               UNRELAXED EXCITED STATE DIPOLE MOMENTS
--------------------------------------------------------------------
               E(eV)     DX(au)      DY(au)      DZ(au)      |D|(D)
IROOT=  0:     0.000    1.046434    2.987517   -0.000906    8.046019
IROOT=  1:     3.282    2.568695    3.162127   -0.000773   10.355211
IROOT=  2:     3.988    0.803843    2.210014    0.001141    5.977455
IROOT=  3:     4.310    0.554274    3.392184    0.004448    8.736597
IROOT=  4:     4.231   -0.501456    0.396107   -0.004960    1.624333
IROOT=  5:     4.655    1.924621    3.063391    0.006780    9.195752
IROOT=  6:     4.768    2.014810    4.009488   -0.003987   11.405699
IROOT=  7:     4.786    3.474643    2.590213    0.001757   11.015800
IROOT=  8:     5.001    5.126088    1.800995    0.007510   13.810274
IROOT=  9:     5.186   -1.832178    0.407806    0.018332    4.771218
IROOT= 10:     5.224   -0.823751   -0.543446    0.002093    2.508413
IROOT= 11:     5.574    1.639103    0.687949    0.008093    4.518399
IROOT= 12:     5.605    3.657456    2.501211   -0.004994   11.262507
IROOT= 13:     5.737    1.576441    2.449553    0.002636    7.404221
IROOT= 14:     5.456   -2.658615   -0.947134   -0.014045    7.173770
IROOT= 15:     5.875    2.410590    2.845597   -0.004923    9.479369
IROOT= 16:     6.060    0.197736    3.016442    0.001823    7.683643
IROOT= 17:     5.513    7.094326    8.606841   -0.003687   28.350698
IROOT= 18:     6.231    1.269976    3.400554   -0.001579    9.226625
IROOT= 19:     6.303    1.149051    2.709791   -0.000917    7.481391
IROOT= 20:     5.998    6.243435    7.398416    0.006554   24.606532
IROOT= 21:     6.860    3.496460    5.219275   -0.131294   15.971575
IROOT= 22:     7.297    3.883478    4.161300    0.022509   14.467793
IROOT= 23:     7.601    5.055190    0.740381    0.025151   12.986510
--------------------------------------------------------------------

-----------------------------------------------------------------------------
         ABSORPTION SPECTRUM VIA TRANSITION ELECTRIC DIPOLE MOMENTS
-----------------------------------------------------------------------------
State   Energy  Wavelength   fosc         T2         TX        TY        TZ  
        (cm-1)    (nm)                  (au**2)     (au)      (au)      (au) 
-----------------------------------------------------------------------------
   1   26468.1    377.8   0.049469834   0.61531   0.65172   0.43528   0.00042
   2   32163.5    310.9   0.282201803   2.88850   1.51325   0.77322   0.00085
   3   34763.7    287.7   0.063864870   0.60480   0.71978   0.28757   0.00090
   4   34128.5    293.0   0.000322538   0.00311   0.04112   0.01272   0.01326
   5   37547.3    266.3   1.089080651   9.54899   2.87374   1.13324   0.00092
   6   38458.0    260.0   0.000686843   0.00588   0.05890   0.00624   0.04378
   7   38601.9    259.1   0.127749856   1.08950   0.70789   0.71795   0.00390
   8   40337.4    247.9   0.061083037   0.49853   0.63479   0.30889   0.00312
   9   41829.9    239.1   0.108221688   0.85173   0.54506   0.74398   0.00092
  10   42132.7    237.3   0.002140029   0.01672   0.09202   0.05845   0.06900
  11   44955.6    222.4   0.383851183   2.81096   0.26407   1.63751   0.00389
  12   45206.3    221.2   0.064378933   0.46884   0.31755   0.59132   0.00105
  13   46269.4    216.1   0.449757988   3.20008   0.85082   1.57072   0.00664
  14   44008.0    227.2   0.004333073   0.03241   0.03197   0.04915   0.16945
  15   47383.7    211.0   0.022079377   0.15340   0.38599   0.06584   0.00266
  16   48880.5    204.6   0.019096341   0.12861   0.34757   0.08779   0.00133
  17   44464.6    224.9   0.000155616   0.00115   0.00907   0.02742   0.01067
  18   50258.8    199.0   0.001096669   0.00718   0.07894   0.02406   0.00637
  19   50836.0    196.7   0.068602625   0.44427   0.65994   0.08963   0.01203
  20   48375.9    206.7   0.002541587   0.01730   0.04553   0.12022   0.00743
  21   55332.5    180.7   0.042923304   0.25538   0.33036   0.36502   0.09875
  22   58857.2    169.9   0.037955158   0.21230   0.24072   0.36528   0.13151
  23   61302.9    163.1   0.009663712   0.05190   0.05824   0.13499   0.15336

-------------------------------------------------------------------
                             CD SPECTRUM
-------------------------------------------------------------------
State   Energy Wavelength       R         MX        MY        MZ   
        (cm-1)   (nm)       (1e40*cgs)   (au)      (au)      (au)  
-------------------------------------------------------------------
   1     377.8   26468.1     -0.04065  -0.00054   0.00236  -0.25943
   2     310.9   32163.5     -0.08414   0.00314   0.00028   0.38000
   3     287.7   34763.7      0.00358  -0.00243   0.00577   0.26246
   4     293.0   34128.5     -0.22732   0.05969   0.06108  -0.04253
   5     266.3   37547.3      0.01481  -0.00115  -0.00661   0.16462
   6     260.0   38458.0     -0.03023  -0.01378   0.00852   0.00506
   7     259.1   38601.9     -0.04916   0.00118  -0.00174   0.10761
   8     247.9   40337.4      0.08426   0.00218   0.00240  -0.46247
   9     239.1   41829.9      0.07648  -0.00032   0.00495  -0.14510
  10     237.3   42132.7     -1.01909  -0.14366  -0.13694   0.05728
  11     222.4   44955.6      0.46064   0.00011   0.00815  -0.17445
  12     221.2   45206.3      0.09420  -0.00301  -0.00264   0.23663
  13     216.1   46269.4     -0.09870  -0.00716  -0.00940   0.39590
  14     227.2   44008.0     -0.28363   0.06931   0.01310  -0.02587
  15     211.0   47383.7     -0.23373  -0.00109  -0.00407  -0.33018
  16     204.6   48880.5     -0.08119  -0.00011  -0.00063   0.23982
  17     224.9   44464.6      0.04018   0.09478   0.07858  -0.02383
  18     199.0   50258.8     -0.12035   0.00069  -0.00519  -0.06502
  19     196.7   50836.0     -0.10336   0.00174  -0.00174  -0.02592
  20     206.7   48375.9      0.08005   0.00057  -0.00525  -0.12174
  21     180.7   55332.5      0.49594   0.01704   0.01980  -0.14999
  22     169.9   58857.2      0.40642   0.00791  -0.10650  -0.18781
  23     163.1   61302.9      5.99324  -0.00976   0.24807  -0.27956

TDM done (18205.5 sec)
STEOM-CCSD done in (18205.8)


--------------------------------------------------------------------------------
                                    TIMINGS
--------------------------------------------------------------------------------


Total execution time                   ...    61384.153 sec

Localization of occupied MO's          ...        3.662 sec (  0.0%)
Fock Matrix Formation                  ...      212.007 sec (  0.3%)
Global overlap, Fock, MKN matrices     ...        1.012 sec (  0.0%)
Differential overlap integrals         ...        4.656 sec (  0.0%)
Organizing maps                        ...        0.092 sec (  0.0%)
RI 3-index integral generations        ...       69.177 sec (  0.1%)
RI-PNO integral transformation         ...     5448.241 sec (  8.9%)
Initial Guess                          ...     1078.622 sec (  1.8%)
DIIS Solver                            ...       10.598 sec (  0.0%)
State Vector Update                    ...        0.092 sec (  0.0%)
Sigma-vector construction              ...     4421.419 sec (  7.2%)
  <0|H|D>                              ...        0.006 sec (  0.0% of sigma)
  <D|H|D>(0-ext)                       ...      219.282 sec (  5.0% of sigma)
  <D|H|D>(2-ext Fock)                  ...        0.265 sec (  0.0% of sigma)
  <D|H|D>(2-ext)                       ...      956.786 sec ( 21.6% of sigma)
  <D|H|D>(4-ext)                       ...      294.634 sec (  6.7% of sigma)
  <D|H|D>(4-ext-corr)                  ...     1827.568 sec ( 41.3% of sigma)
  CCSD doubles correction              ...        4.333 sec (  0.1% of sigma)
  <S|H|S>                              ...      203.641 sec (  4.6% of sigma)
  <S|H|D>(1-ext)                       ...       25.306 sec (  0.6% of sigma)
  <D|H|S>(1-ext)                       ...        0.248 sec (  0.0% of sigma)
  <S|H|D>(3-ext)                       ...        4.483 sec (  0.1% of sigma)
  CCSD singles correction              ...        0.005 sec (  0.0% of sigma)
  Fock-dressing                        ...      643.955 sec ( 14.6% of sigma)
  Singles amplitudes                   ...       15.567 sec (  0.4% of sigma)
  (ik|jl)-dressing                     ...      171.773 sec (  3.9% of sigma)
  (ij|ab),(ia|jb)-dressing             ...       52.664 sec (  1.2% of sigma)
  Pair energies                        ...        0.064 sec (  0.0% of sigma)
Total Time for computing EOM-CCSD      ...    29947.710 sec ( 48.8% of ALL)
  Dressing integrals                   ...      168.456 sec (  0.6% of (EOM))
  Initial EOM-Guess                    ...        0.006 sec (  0.0% of (EOM))
  EOM Singles                          ...      800.024 sec (  2.7% of (EOM))
  EOM Doubles                          ...    28086.099 sec ( 93.8% of (EOM))
  Build Hamiltonian                    ...      104.829 sec (  0.4% of (EOM))
  Diagonalize Hamiltonian              ...        6.225 sec (  0.0% of (EOM))
  Ritz vectors                         ...      172.805 sec (  0.6% of (EOM))
  Residual vectors                     ...      184.979 sec (  0.6% of (EOM))
One-particle density matrix            ...       11.358 sec (  0.0%)


Maximum memory used throughout the entire MDCI-calculation: 38760.9 MB

-------------------------   --------------------
FINAL SINGLE POINT ENERGY     -1147.508557015807
-------------------------   --------------------


                            ***************************************
                            *     ORCA property calculations      *
                            ***************************************

                                    ---------------------
                                    Active property flags
                                    ---------------------
   (+) Dipole Moment


------------------------------------------------------------------------------
                       ORCA ELECTRIC PROPERTIES CALCULATION
------------------------------------------------------------------------------

Dipole Moment Calculation                       ... on
Quadrupole Moment Calculation                   ... off
Polarizability Calculation                      ... off
GBWName                                         ... NCE_2_STEOM-DLPNO-CCSD_DEF2-TZVP_RIJCOSX_SMD_suretoconv.gbw
Electron density                                ... NCE_2_STEOM-DLPNO-CCSD_DEF2-TZVP_RIJCOSX_SMD_suretoconv.scfp
The origin for moment calculation is the CENTER OF MASS  = (-0.012521, -0.041934 -0.000006)

-------------
DIPOLE MOMENT
-------------
                                X             Y             Z
Electronic contribution:     -1.28351      -4.49611      -0.00077
Nuclear contribution   :      2.30387       7.71586       0.00102
                        -----------------------------------------
Total Dipole Moment    :      1.02036       3.21975       0.00025
                        -----------------------------------------
Magnitude (a.u.)       :      3.37756
Magnitude (Debye)      :      8.58508



--------------------
Rotational spectrum 
--------------------
 
Rotational constants in cm-1:     0.011445     0.004004     0.003062 
Rotational constants in MHz :   343.117137   120.023996    91.800824 

 Dipole components along the rotational axes: 
x,y,z [a.u.] :    -0.992145     3.228557     0.000094 
x,y,z [Debye]:    -2.521832     8.206340     0.000239 

 

                           *** MDCI DENSITY ***

------------------------------------------------------------------------------
                       ORCA ELECTRIC PROPERTIES CALCULATION
------------------------------------------------------------------------------

Dipole Moment Calculation                       ... on
Quadrupole Moment Calculation                   ... off
Polarizability Calculation                      ... off
GBWName                                         ... NCE_2_STEOM-DLPNO-CCSD_DEF2-TZVP_RIJCOSX_SMD_suretoconv.gbw
Electron density                                ... NCE_2_STEOM-DLPNO-CCSD_DEF2-TZVP_RIJCOSX_SMD_suretoconv.mdcip
The origin for moment calculation is the CENTER OF MASS  = (-0.012521, -0.041934 -0.000006)

-------------
DIPOLE MOMENT
-------------
                                X             Y             Z
Electronic contribution:     -1.26170      -4.77792      -0.00194
Nuclear contribution   :      2.30387       7.71586       0.00102
                        -----------------------------------------
Total Dipole Moment    :      1.04217       2.93793      -0.00091
                        -----------------------------------------
Magnitude (a.u.)       :      3.11730
Magnitude (Debye)      :      7.92356



--------------------
Rotational spectrum 
--------------------
 
Rotational constants in cm-1:     0.011445     0.004004     0.003062 
Rotational constants in MHz :   343.117137   120.023996    91.800824 

 Dipole components along the rotational axes: 
x,y,z [a.u.] :    -1.016423     2.946941    -0.001051 
x,y,z [Debye]:    -2.583542     7.490530    -0.002672 

 

Timings for individual modules:

Sum of individual times         ...    63198.162 sec (=1053.303 min)
GTO integral calculation        ...        3.053 sec (=   0.051 min)   0.0 %
SCF iterations                  ...     1801.478 sec (=  30.025 min)   2.9 %
MDCI module                     ...    61393.632 sec (=1023.227 min)  97.1 %
                             ****ORCA TERMINATED NORMALLY****
TOTAL RUN TIME: 0 days 17 hours 33 minutes 20 seconds 346 msec
