 Entering Gaussian System, Link 0=g09
 Input=/home/png4rjv/fotokatalizis/benchmark/OPCs/NCE_2_CAM-B3LYP-D3_def2TZVP.gjf
 Output=/home/png4rjv/fotokatalizis/benchmark/OPCs/NCE_2_CAM-B3LYP-D3_def2TZVP.log
 Initial command:
 /opt/nce/packages/global/g09/l1.exe "/home/png4rjv/fotokatalizis/benchmark/OPCs/NCE_2_CAM-B3LYP-D3_def2TZVP/Gau-53340.inp" -scrdir="/home/png4rjv/fotokatalizis/benchmark/OPCs/NCE_2_CAM-B3LYP-D3_def2TZVP/"
 Default is to use a total of  12 processors:
                               12 via shared-memory
                                1 via Linda
 Entering Link 1 = /opt/nce/packages/global/g09/l1.exe PID=     53341.
  
 Copyright (c) 1988,1990,1992,1993,1995,1998,2003,2009,2015,
            Gaussian, Inc.  All Rights Reserved.
  
 This is part of the Gaussian(R) 09 program.  It is based on
 the Gaussian(R) 03 system (copyright 2003, Gaussian, Inc.),
 the Gaussian(R) 98 system (copyright 1998, Gaussian, Inc.),
 the Gaussian(R) 94 system (copyright 1995, Gaussian, Inc.),
 the Gaussian 92(TM) system (copyright 1992, Gaussian, Inc.),
 the Gaussian 90(TM) system (copyright 1990, Gaussian, Inc.),
 the Gaussian 88(TM) system (copyright 1988, Gaussian, Inc.),
 the Gaussian 86(TM) system (copyright 1986, Carnegie Mellon
 University), and the Gaussian 82(TM) system (copyright 1983,
 Carnegie Mellon University). Gaussian is a federally registered
 trademark of Gaussian, Inc.
  
 This software contains proprietary and confidential information,
 including trade secrets, belonging to Gaussian, Inc.
  
 This software is provided under written license and may be
 used, copied, transmitted, or stored only in accord with that
 written license.
  
 The following legend is applicable only to US Government
 contracts under FAR:
  
                    RESTRICTED RIGHTS LEGEND
  
 Use, reproduction and disclosure by the US Government is
 subject to restrictions as set forth in subparagraphs (a)
 and (c) of the Commercial Computer Software - Restricted
 Rights clause in FAR 52.227-19.
  
 Gaussian, Inc.
 340 Quinnipiac St., Bldg. 40, Wallingford CT 06492
  
  
 ---------------------------------------------------------------
 Warning -- This program may not be used in any manner that
 competes with the business of Gaussian, Inc. or will provide
 assistance to any competitor of Gaussian, Inc.  The licensee
 of this program is prohibited from giving any competitor of
 Gaussian, Inc. access to this program.  By using this program,
 the user acknowledges that Gaussian, Inc. is engaged in the
 business of creating and licensing software in the field of
 computational chemistry and represents and warrants to the
 licensee that it is not a competitor of Gaussian, Inc. and that
 it will not use this program in any manner prohibited above.
 ---------------------------------------------------------------
  

 Cite this work as:
 Gaussian 09, Revision E.01,
 M. J. Frisch, G. W. Trucks, H. B. Schlegel, G. E. Scuseria, 
 M. A. Robb, J. R. Cheeseman, G. Scalmani, V. Barone, B. Mennucci, 
 G. A. Petersson, H. Nakatsuji, M. Caricato, X. Li, H. P. Hratchian, 
 A. F. Izmaylov, J. Bloino, G. Zheng, J. L. Sonnenberg, M. Hada, 
 M. Ehara, K. Toyota, R. Fukuda, J. Hasegawa, M. Ishida, T. Nakajima, 
 Y. Honda, O. Kitao, H. Nakai, T. Vreven, J. A. Montgomery, Jr., 
 J. E. Peralta, F. Ogliaro, M. Bearpark, J. J. Heyd, E. Brothers, 
 K. N. Kudin, V. N. Staroverov, T. Keith, R. Kobayashi, J. Normand, 
 K. Raghavachari, A. Rendell, J. C. Burant, S. S. Iyengar, J. Tomasi, 
 M. Cossi, N. Rega, J. M. Millam, M. Klene, J. E. Knox, J. B. Cross, 
 V. Bakken, C. Adamo, J. Jaramillo, R. Gomperts, R. E. Stratmann, 
 O. Yazyev, A. J. Austin, R. Cammi, C. Pomelli, J. W. Ochterski, 
 R. L. Martin, K. Morokuma, V. G. Zakrzewski, G. A. Voth, 
 P. Salvador, J. J. Dannenberg, S. Dapprich, A. D. Daniels, 
 O. Farkas, J. B. Foresman, J. V. Ortiz, J. Cioslowski, 
 and D. J. Fox, Gaussian, Inc., Wallingford CT, 2013.
 
 ******************************************
 Gaussian 09:  ES64L-G09RevE.01 30-Nov-2015
                24-Feb-2021 
 ******************************************
 %chk=cp.chk
 Default route:  MaxDisk=500GB
 ----------------------------------------------------------------------
 #p cam-b3lyp/def2TZVP opt freq=noraman nosymm int=ultrafine scrf=(SMD,
 solvent=Acetonitrile) EmpiricalDispersion=GD3BJ
 ----------------------------------------------------------------------
 1/14=-1,18=20,19=15,26=4,38=1/1,3;
 2/9=110,12=2,15=1,17=6,18=5,40=1/2;
 3/5=44,7=101,11=2,16=1,25=1,30=1,70=32201,71=1,72=2,74=-40,75=-5,124=41/1,2,3;
 4//1;
 5/5=2,38=5,53=2/2;
 6/7=2,8=2,9=2,10=2,28=1/1;
 7/30=1/1,2,3,16;
 1/14=-1,18=20,19=15,26=4/3(2);
 2/9=110,15=1/2;
 99//99;
 2/9=110,15=1/2;
 3/5=44,7=101,11=2,16=1,25=1,30=1,70=32205,71=1,72=2,74=-40,75=-5,124=41/1,2,3;
 4/5=5,16=3,69=1/1;
 5/5=2,38=5,53=2/2;
 7/30=1/1,2,3,16;
 1/14=-1,18=20,19=15,26=4/3(-5);
 2/9=110,15=1/2;
 6/7=2,8=2,9=2,10=2,19=2,28=1/1;
 99/9=1/99;
 Leave Link    1 at Wed Feb 24 21:50:56 2021, MaxMem=           0 cpu:         3.7
 (Enter /opt/nce/packages/global/g09/l101.exe)
 -----
 Title
 -----
 Symbolic Z-matrix:
 Charge =  0 Multiplicity = 1
 C                     2.83616   4.13801  -0.00033 
 C                     1.49763   3.81804   0.00012 
 C                     1.07276   2.45851   0.00022 
 C                     2.0598    1.41738  -0.00006 
 C                     3.43724   1.78662  -0.00061 
 C                     3.81502   3.1112   -0.00072 
 C                    -0.29513   2.11384   0.00046 
 C                     1.63681   0.05151   0.0002 
 C                     0.27058  -0.25183   0.0006 
 C                    -0.7164    0.79433   0.00053 
 C                    -2.13316   0.42437   0.0004 
 C                    -2.47319  -0.94145   0.00062 
 C                    -0.16267  -1.67545   0.00151 
 H                    -1.02483   2.92411   0.00054 
 H                     3.14956   5.18473  -0.0004 
 H                     0.73785   4.60362   0.00037 
 H                     4.19266   1.00132  -0.00094 
 H                     4.87503   3.37484  -0.00115 
 C                     2.70205  -0.99602  -0.00017 
 C                     3.23085  -1.46704  -1.20878 
 C                     3.23371  -1.46508   1.20795 
 C                     4.26466  -2.40486  -1.20911 
 H                     2.82116  -1.0996   -2.15239 
 C                     4.2675   -2.40292   1.20735 
 H                     2.82625  -1.09611   2.15193 
 C                     4.78476  -2.87724  -0.00111 
 H                     4.66474  -2.77008  -2.15812 
 H                     4.66981  -2.76664   2.156 
 H                     5.5926   -3.61287  -0.00147 
 O                     0.55535  -2.63793   0.00252 
 O                    -1.51825  -1.91301   0.00107 
 C                    -3.19978   1.33921  -0.00011 
 C                    -3.79389  -1.37958   0.00024 
 C                    -4.83444  -0.44423  -0.00027 
 C                    -4.52977   0.93083  -0.00032 
 H                    -5.31779   1.68215  -0.00064 
 H                    -2.99023   2.40933  -0.00025 
 H                    -4.01342  -2.44676   0.00034 
 O                    -6.0894   -0.94671  -0.00064 
 C                    -7.18604  -0.05988  -0.00098 
 H                    -7.19223   0.58279  -0.89926 
 H                    -8.09033  -0.68218  -0.00115 
 H                    -7.19267   0.58293   0.89719 
 
 NAtoms=     43 NQM=       43 NQMF=       0 NMMI=      0 NMMIF=      0
                NMic=       0 NMicF=      0.
                    Isotopes and Nuclear Properties:
 (Nuclear quadrupole moments (NQMom) in fm**2, nuclear magnetic moments (NMagM)
  in nuclear magnetons)

  Atom         1           2           3           4           5           6           7           8           9          10
 IAtWgt=          12          12          12          12          12          12          12          12          12          12
 AtmWgt=  12.0000000  12.0000000  12.0000000  12.0000000  12.0000000  12.0000000  12.0000000  12.0000000  12.0000000  12.0000000
 NucSpn=           0           0           0           0           0           0           0           0           0           0
 AtZEff=   0.0000000   0.0000000   0.0000000   0.0000000   0.0000000   0.0000000   0.0000000   0.0000000   0.0000000   0.0000000
 NQMom=    0.0000000   0.0000000   0.0000000   0.0000000   0.0000000   0.0000000   0.0000000   0.0000000   0.0000000   0.0000000
 NMagM=    0.0000000   0.0000000   0.0000000   0.0000000   0.0000000   0.0000000   0.0000000   0.0000000   0.0000000   0.0000000
 AtZNuc=   6.0000000   6.0000000   6.0000000   6.0000000   6.0000000   6.0000000   6.0000000   6.0000000   6.0000000   6.0000000

  Atom        11          12          13          14          15          16          17          18          19          20
 IAtWgt=          12          12          12           1           1           1           1           1          12          12
 AtmWgt=  12.0000000  12.0000000  12.0000000   1.0078250   1.0078250   1.0078250   1.0078250   1.0078250  12.0000000  12.0000000
 NucSpn=           0           0           0           1           1           1           1           1           0           0
 AtZEff=   0.0000000   0.0000000   0.0000000   0.0000000   0.0000000   0.0000000   0.0000000   0.0000000   0.0000000   0.0000000
 NQMom=    0.0000000   0.0000000   0.0000000   0.0000000   0.0000000   0.0000000   0.0000000   0.0000000   0.0000000   0.0000000
 NMagM=    0.0000000   0.0000000   0.0000000   2.7928460   2.7928460   2.7928460   2.7928460   2.7928460   0.0000000   0.0000000
 AtZNuc=   6.0000000   6.0000000   6.0000000   1.0000000   1.0000000   1.0000000   1.0000000   1.0000000   6.0000000   6.0000000

  Atom        21          22          23          24          25          26          27          28          29          30
 IAtWgt=          12          12           1          12           1          12           1           1           1          16
 AtmWgt=  12.0000000  12.0000000   1.0078250  12.0000000   1.0078250  12.0000000   1.0078250   1.0078250   1.0078250  15.9949146
 NucSpn=           0           0           1           0           1           0           1           1           1           0
 AtZEff=   0.0000000   0.0000000   0.0000000   0.0000000   0.0000000   0.0000000   0.0000000   0.0000000   0.0000000   0.0000000
 NQMom=    0.0000000   0.0000000   0.0000000   0.0000000   0.0000000   0.0000000   0.0000000   0.0000000   0.0000000   0.0000000
 NMagM=    0.0000000   0.0000000   2.7928460   0.0000000   2.7928460   0.0000000   2.7928460   2.7928460   2.7928460   0.0000000
 AtZNuc=   6.0000000   6.0000000   1.0000000   6.0000000   1.0000000   6.0000000   1.0000000   1.0000000   1.0000000   8.0000000

  Atom        31          32          33          34          35          36          37          38          39          40
 IAtWgt=          16          12          12          12          12           1           1           1          16          12
 AtmWgt=  15.9949146  12.0000000  12.0000000  12.0000000  12.0000000   1.0078250   1.0078250   1.0078250  15.9949146  12.0000000
 NucSpn=           0           0           0           0           0           1           1           1           0           0
 AtZEff=   0.0000000   0.0000000   0.0000000   0.0000000   0.0000000   0.0000000   0.0000000   0.0000000   0.0000000   0.0000000
 NQMom=    0.0000000   0.0000000   0.0000000   0.0000000   0.0000000   0.0000000   0.0000000   0.0000000   0.0000000   0.0000000
 NMagM=    0.0000000   0.0000000   0.0000000   0.0000000   0.0000000   2.7928460   2.7928460   2.7928460   0.0000000   0.0000000
 AtZNuc=   8.0000000   6.0000000   6.0000000   6.0000000   6.0000000   1.0000000   1.0000000   1.0000000   8.0000000   6.0000000

  Atom        41          42          43
 IAtWgt=           1           1           1
 AtmWgt=   1.0078250   1.0078250   1.0078250
 NucSpn=           1           1           1
 AtZEff=   0.0000000   0.0000000   0.0000000
 NQMom=    0.0000000   0.0000000   0.0000000
 NMagM=    2.7928460   2.7928460   2.7928460
 AtZNuc=   1.0000000   1.0000000   1.0000000
 Leave Link  101 at Wed Feb 24 21:50:58 2021, MaxMem=  5242880000 cpu:        12.1
 (Enter /opt/nce/packages/global/g09/l103.exe)

 GradGradGradGradGradGradGradGradGradGradGradGradGradGradGradGradGradGrad
 Berny optimization.
 Initialization pass.
                           ----------------------------
                           !    Initial Parameters    !
                           ! (Angstroms and Degrees)  !
 --------------------------                            --------------------------
 ! Name  Definition              Value          Derivative Info.                !
 --------------------------------------------------------------------------------
 ! R1    R(1,2)                  1.3762         estimate D2E/DX2                !
 ! R2    R(1,6)                  1.4186         estimate D2E/DX2                !
 ! R3    R(1,15)                 1.0926         estimate D2E/DX2                !
 ! R4    R(2,3)                  1.4244         estimate D2E/DX2                !
 ! R5    R(2,16)                 1.0929         estimate D2E/DX2                !
 ! R6    R(3,4)                  1.4346         estimate D2E/DX2                !
 ! R7    R(3,7)                  1.4106         estimate D2E/DX2                !
 ! R8    R(4,5)                  1.4261         estimate D2E/DX2                !
 ! R9    R(4,8)                  1.4299         estimate D2E/DX2                !
 ! R10   R(5,6)                  1.3774         estimate D2E/DX2                !
 ! R11   R(5,17)                 1.0897         estimate D2E/DX2                !
 ! R12   R(6,18)                 1.0923         estimate D2E/DX2                !
 ! R13   R(7,10)                 1.3851         estimate D2E/DX2                !
 ! R14   R(7,14)                 1.0904         estimate D2E/DX2                !
 ! R15   R(8,9)                  1.3995         estimate D2E/DX2                !
 ! R16   R(8,19)                 1.494          estimate D2E/DX2                !
 ! R17   R(9,10)                 1.4383         estimate D2E/DX2                !
 ! R18   R(9,13)                 1.4881         estimate D2E/DX2                !
 ! R19   R(10,11)                1.4643         estimate D2E/DX2                !
 ! R20   R(11,12)                1.4075         estimate D2E/DX2                !
 ! R21   R(11,32)                1.4052         estimate D2E/DX2                !
 ! R22   R(12,31)                1.3623         estimate D2E/DX2                !
 ! R23   R(12,33)                1.3915         estimate D2E/DX2                !
 ! R24   R(13,30)                1.2008         estimate D2E/DX2                !
 ! R25   R(13,31)                1.3762         estimate D2E/DX2                !
 ! R26   R(19,20)                1.4008         estimate D2E/DX2                !
 ! R27   R(19,21)                1.4008         estimate D2E/DX2                !
 ! R28   R(20,22)                1.3958         estimate D2E/DX2                !
 ! R29   R(20,23)                1.0924         estimate D2E/DX2                !
 ! R30   R(21,24)                1.3958         estimate D2E/DX2                !
 ! R31   R(21,25)                1.0924         estimate D2E/DX2                !
 ! R32   R(22,26)                1.3975         estimate D2E/DX2                !
 ! R33   R(22,27)                1.0927         estimate D2E/DX2                !
 ! R34   R(24,26)                1.3975         estimate D2E/DX2                !
 ! R35   R(24,28)                1.0927         estimate D2E/DX2                !
 ! R36   R(26,29)                1.0926         estimate D2E/DX2                !
 ! R37   R(32,35)                1.3913         estimate D2E/DX2                !
 ! R38   R(32,37)                1.0904         estimate D2E/DX2                !
 ! R39   R(33,34)                1.3992         estimate D2E/DX2                !
 ! R40   R(33,38)                1.0895         estimate D2E/DX2                !
 ! R41   R(34,35)                1.4084         estimate D2E/DX2                !
 ! R42   R(34,39)                1.3518         estimate D2E/DX2                !
 ! R43   R(35,36)                1.0888         estimate D2E/DX2                !
 ! R44   R(39,40)                1.4103         estimate D2E/DX2                !
 ! R45   R(40,41)                1.1045         estimate D2E/DX2                !
 ! R46   R(40,42)                1.0977         estimate D2E/DX2                !
 ! R47   R(40,43)                1.1045         estimate D2E/DX2                !
 ! A1    A(2,1,6)              120.1862         estimate D2E/DX2                !
 ! A2    A(2,1,15)             120.1129         estimate D2E/DX2                !
 ! A3    A(6,1,15)             119.7009         estimate D2E/DX2                !
 ! A4    A(1,2,3)              120.7988         estimate D2E/DX2                !
 ! A5    A(1,2,16)             120.5993         estimate D2E/DX2                !
 ! A6    A(3,2,16)             118.6019         estimate D2E/DX2                !
 ! A7    A(2,3,4)              119.1733         estimate D2E/DX2                !
 ! A8    A(2,3,7)              121.4971         estimate D2E/DX2                !
 ! A9    A(4,3,7)              119.3295         estimate D2E/DX2                !
 ! A10   A(3,4,5)              118.4659         estimate D2E/DX2                !
 ! A11   A(3,4,8)              119.3209         estimate D2E/DX2                !
 ! A12   A(5,4,8)              122.2132         estimate D2E/DX2                !
 ! A13   A(4,5,6)              120.9247         estimate D2E/DX2                !
 ! A14   A(4,5,17)             118.8825         estimate D2E/DX2                !
 ! A15   A(6,5,17)             120.1927         estimate D2E/DX2                !
 ! A16   A(1,6,5)              120.451          estimate D2E/DX2                !
 ! A17   A(1,6,18)             119.6638         estimate D2E/DX2                !
 ! A18   A(5,6,18)             119.8852         estimate D2E/DX2                !
 ! A19   A(3,7,10)             121.849          estimate D2E/DX2                !
 ! A20   A(3,7,14)             117.8624         estimate D2E/DX2                !
 ! A21   A(10,7,14)            120.2886         estimate D2E/DX2                !
 ! A22   A(4,8,9)              119.7248         estimate D2E/DX2                !
 ! A23   A(4,8,19)             117.3125         estimate D2E/DX2                !
 ! A24   A(9,8,19)             122.9627         estimate D2E/DX2                !
 ! A25   A(8,9,10)             120.8148         estimate D2E/DX2                !
 ! A26   A(8,9,13)             119.4442         estimate D2E/DX2                !
 ! A27   A(10,9,13)            119.7409         estimate D2E/DX2                !
 ! A28   A(7,10,9)             118.9609         estimate D2E/DX2                !
 ! A29   A(7,10,11)            122.3414         estimate D2E/DX2                !
 ! A30   A(9,10,11)            118.6976         estimate D2E/DX2                !
 ! A31   A(10,11,12)           118.6151         estimate D2E/DX2                !
 ! A32   A(10,11,32)           124.7457         estimate D2E/DX2                !
 ! A33   A(12,11,32)           116.6393         estimate D2E/DX2                !
 ! A34   A(11,12,31)           121.5144         estimate D2E/DX2                !
 ! A35   A(11,12,33)           122.3328         estimate D2E/DX2                !
 ! A36   A(31,12,33)           116.1528         estimate D2E/DX2                !
 ! A37   A(9,13,30)            126.3502         estimate D2E/DX2                !
 ! A38   A(9,13,31)            116.8663         estimate D2E/DX2                !
 ! A39   A(30,13,31)           116.7835         estimate D2E/DX2                !
 ! A40   A(8,19,20)            120.3407         estimate D2E/DX2                !
 ! A41   A(8,19,21)            120.3438         estimate D2E/DX2                !
 ! A42   A(20,19,21)           119.2257         estimate D2E/DX2                !
 ! A43   A(19,20,22)           120.3793         estimate D2E/DX2                !
 ! A44   A(19,20,23)           119.3815         estimate D2E/DX2                !
 ! A45   A(22,20,23)           120.2373         estimate D2E/DX2                !
 ! A46   A(19,21,24)           120.3792         estimate D2E/DX2                !
 ! A47   A(19,21,25)           119.3816         estimate D2E/DX2                !
 ! A48   A(24,21,25)           120.2374         estimate D2E/DX2                !
 ! A49   A(20,22,26)           120.17           estimate D2E/DX2                !
 ! A50   A(20,22,27)           119.7317         estimate D2E/DX2                !
 ! A51   A(26,22,27)           120.0982         estimate D2E/DX2                !
 ! A52   A(21,24,26)           120.17           estimate D2E/DX2                !
 ! A53   A(21,24,28)           119.7317         estimate D2E/DX2                !
 ! A54   A(26,24,28)           120.0982         estimate D2E/DX2                !
 ! A55   A(22,26,24)           119.6711         estimate D2E/DX2                !
 ! A56   A(22,26,29)           120.1644         estimate D2E/DX2                !
 ! A57   A(24,26,29)           120.1645         estimate D2E/DX2                !
 ! A58   A(12,31,13)           124.5656         estimate D2E/DX2                !
 ! A59   A(11,32,35)           122.3112         estimate D2E/DX2                !
 ! A60   A(11,32,37)           119.5397         estimate D2E/DX2                !
 ! A61   A(35,32,37)           118.1491         estimate D2E/DX2                !
 ! A62   A(12,33,34)           119.6953         estimate D2E/DX2                !
 ! A63   A(12,33,38)           119.977          estimate D2E/DX2                !
 ! A64   A(34,33,38)           120.3277         estimate D2E/DX2                !
 ! A65   A(33,34,35)           119.4585         estimate D2E/DX2                !
 ! A66   A(33,34,39)           116.2273         estimate D2E/DX2                !
 ! A67   A(35,34,39)           124.3142         estimate D2E/DX2                !
 ! A68   A(32,35,34)           119.5628         estimate D2E/DX2                !
 ! A69   A(32,35,36)           119.2963         estimate D2E/DX2                !
 ! A70   A(34,35,36)           121.1409         estimate D2E/DX2                !
 ! A71   A(34,39,40)           119.2173         estimate D2E/DX2                !
 ! A72   A(39,40,41)           111.7419         estimate D2E/DX2                !
 ! A73   A(39,40,42)           106.5037         estimate D2E/DX2                !
 ! A74   A(39,40,43)           111.7416         estimate D2E/DX2                !
 ! A75   A(41,40,42)           108.9721         estimate D2E/DX2                !
 ! A76   A(41,40,43)           108.8251         estimate D2E/DX2                !
 ! A77   A(42,40,43)           108.9721         estimate D2E/DX2                !
 ! D1    D(6,1,2,3)              0.0019         estimate D2E/DX2                !
 ! D2    D(6,1,2,16)          -179.9966         estimate D2E/DX2                !
 ! D3    D(15,1,2,3)           180.0            estimate D2E/DX2                !
 ! D4    D(15,1,2,16)            0.0015         estimate D2E/DX2                !
 ! D5    D(2,1,6,5)             -0.0032         estimate D2E/DX2                !
 ! D6    D(2,1,6,18)           179.9956         estimate D2E/DX2                !
 ! D7    D(15,1,6,5)           179.9987         estimate D2E/DX2                !
 ! D8    D(15,1,6,18)           -0.0024         estimate D2E/DX2                !
 ! D9    D(1,2,3,4)              0.0037         estimate D2E/DX2                !
 ! D10   D(1,2,3,7)           -179.99           estimate D2E/DX2                !
 ! D11   D(16,2,3,4)          -179.9978         estimate D2E/DX2                !
 ! D12   D(16,2,3,7)             0.0085         estimate D2E/DX2                !
 ! D13   D(2,3,4,5)             -0.0079         estimate D2E/DX2                !
 ! D14   D(2,3,4,8)            179.9927         estimate D2E/DX2                !
 ! D15   D(7,3,4,5)            179.986          estimate D2E/DX2                !
 ! D16   D(7,3,4,8)             -0.0135         estimate D2E/DX2                !
 ! D17   D(2,3,7,10)           179.9984         estimate D2E/DX2                !
 ! D18   D(2,3,7,14)             0.0017         estimate D2E/DX2                !
 ! D19   D(4,3,7,10)             0.0048         estimate D2E/DX2                !
 ! D20   D(4,3,7,14)          -179.992          estimate D2E/DX2                !
 ! D21   D(3,4,5,6)              0.0067         estimate D2E/DX2                !
 ! D22   D(3,4,5,17)          -179.9931         estimate D2E/DX2                !
 ! D23   D(8,4,5,6)           -179.9939         estimate D2E/DX2                !
 ! D24   D(8,4,5,17)             0.0063         estimate D2E/DX2                !
 ! D25   D(3,4,8,9)              0.006          estimate D2E/DX2                !
 ! D26   D(3,4,8,19)           179.9973         estimate D2E/DX2                !
 ! D27   D(5,4,8,9)           -179.9935         estimate D2E/DX2                !
 ! D28   D(5,4,8,19)            -0.0021         estimate D2E/DX2                !
 ! D29   D(4,5,6,1)             -0.0012         estimate D2E/DX2                !
 ! D30   D(4,5,6,18)           180.0            estimate D2E/DX2                !
 ! D31   D(17,5,6,1)           179.9986         estimate D2E/DX2                !
 ! D32   D(17,5,6,18)           -0.0002         estimate D2E/DX2                !
 ! D33   D(3,7,10,9)             0.0113         estimate D2E/DX2                !
 ! D34   D(3,7,10,11)         -179.9824         estimate D2E/DX2                !
 ! D35   D(14,7,10,9)         -179.9921         estimate D2E/DX2                !
 ! D36   D(14,7,10,11)           0.0143         estimate D2E/DX2                !
 ! D37   D(4,8,9,10)             0.0102         estimate D2E/DX2                !
 ! D38   D(4,8,9,13)          -179.9718         estimate D2E/DX2                !
 ! D39   D(19,8,9,10)         -179.9806         estimate D2E/DX2                !
 ! D40   D(19,8,9,13)            0.0374         estimate D2E/DX2                !
 ! D41   D(4,8,19,20)          -88.3254         estimate D2E/DX2                !
 ! D42   D(4,8,19,21)           88.2026         estimate D2E/DX2                !
 ! D43   D(9,8,19,20)           91.6656         estimate D2E/DX2                !
 ! D44   D(9,8,19,21)          -91.8064         estimate D2E/DX2                !
 ! D45   D(8,9,10,7)            -0.0189         estimate D2E/DX2                !
 ! D46   D(8,9,10,11)          179.975          estimate D2E/DX2                !
 ! D47   D(13,9,10,7)          179.9631         estimate D2E/DX2                !
 ! D48   D(13,9,10,11)          -0.043          estimate D2E/DX2                !
 ! D49   D(8,9,13,30)            0.0331         estimate D2E/DX2                !
 ! D50   D(8,9,13,31)         -179.9628         estimate D2E/DX2                !
 ! D51   D(10,9,13,30)        -179.9491         estimate D2E/DX2                !
 ! D52   D(10,9,13,31)           0.055          estimate D2E/DX2                !
 ! D53   D(7,10,11,12)        -179.9939         estimate D2E/DX2                !
 ! D54   D(7,10,11,32)           0.0149         estimate D2E/DX2                !
 ! D55   D(9,10,11,12)           0.0124         estimate D2E/DX2                !
 ! D56   D(9,10,11,32)        -179.9788         estimate D2E/DX2                !
 ! D57   D(10,11,12,31)          0.0066         estimate D2E/DX2                !
 ! D58   D(10,11,12,33)       -179.9866         estimate D2E/DX2                !
 ! D59   D(32,11,12,31)        179.9985         estimate D2E/DX2                !
 ! D60   D(32,11,12,33)          0.0053         estimate D2E/DX2                !
 ! D61   D(10,11,32,35)        179.9945         estimate D2E/DX2                !
 ! D62   D(10,11,32,37)         -0.0112         estimate D2E/DX2                !
 ! D63   D(12,11,32,35)          0.0031         estimate D2E/DX2                !
 ! D64   D(12,11,32,37)        179.9974         estimate D2E/DX2                !
 ! D65   D(11,12,31,13)          0.0074         estimate D2E/DX2                !
 ! D66   D(33,12,31,13)       -179.999          estimate D2E/DX2                !
 ! D67   D(11,12,33,34)         -0.0053         estimate D2E/DX2                !
 ! D68   D(11,12,33,38)        179.9947         estimate D2E/DX2                !
 ! D69   D(31,12,33,34)       -179.9989         estimate D2E/DX2                !
 ! D70   D(31,12,33,38)          0.0012         estimate D2E/DX2                !
 ! D71   D(9,13,31,12)          -0.0377         estimate D2E/DX2                !
 ! D72   D(30,13,31,12)        179.966          estimate D2E/DX2                !
 ! D73   D(8,19,20,22)         177.327          estimate D2E/DX2                !
 ! D74   D(8,19,20,23)          -3.1628         estimate D2E/DX2                !
 ! D75   D(21,19,20,22)          0.7604         estimate D2E/DX2                !
 ! D76   D(21,19,20,23)       -179.7294         estimate D2E/DX2                !
 ! D77   D(8,19,21,24)        -177.3282         estimate D2E/DX2                !
 ! D78   D(8,19,21,25)           3.1628         estimate D2E/DX2                !
 ! D79   D(20,19,21,24)         -0.7617         estimate D2E/DX2                !
 ! D80   D(20,19,21,25)        179.7293         estimate D2E/DX2                !
 ! D81   D(19,20,22,26)         -0.285          estimate D2E/DX2                !
 ! D82   D(19,20,22,27)        179.5933         estimate D2E/DX2                !
 ! D83   D(23,20,22,26)       -179.7909         estimate D2E/DX2                !
 ! D84   D(23,20,22,27)          0.0874         estimate D2E/DX2                !
 ! D85   D(19,21,24,26)          0.2875         estimate D2E/DX2                !
 ! D86   D(19,21,24,28)       -179.5907         estimate D2E/DX2                !
 ! D87   D(25,21,24,26)        179.7923         estimate D2E/DX2                !
 ! D88   D(25,21,24,28)         -0.0859         estimate D2E/DX2                !
 ! D89   D(20,22,26,24)         -0.1971         estimate D2E/DX2                !
 ! D90   D(20,22,26,29)        179.8741         estimate D2E/DX2                !
 ! D91   D(27,22,26,24)        179.925          estimate D2E/DX2                !
 ! D92   D(27,22,26,29)         -0.0038         estimate D2E/DX2                !
 ! D93   D(21,24,26,22)          0.1958         estimate D2E/DX2                !
 ! D94   D(21,24,26,29)       -179.8754         estimate D2E/DX2                !
 ! D95   D(28,24,26,22)       -179.9264         estimate D2E/DX2                !
 ! D96   D(28,24,26,29)          0.0024         estimate D2E/DX2                !
 ! D97   D(11,32,35,34)         -0.0113         estimate D2E/DX2                !
 ! D98   D(11,32,35,36)        179.9951         estimate D2E/DX2                !
 ! D99   D(37,32,35,34)        179.9944         estimate D2E/DX2                !
 ! D100  D(37,32,35,36)          0.0008         estimate D2E/DX2                !
 ! D101  D(12,33,34,35)         -0.003          estimate D2E/DX2                !
 ! D102  D(12,33,34,39)        179.9985         estimate D2E/DX2                !
 ! D103  D(38,33,34,35)        179.997          estimate D2E/DX2                !
 ! D104  D(38,33,34,39)         -0.0016         estimate D2E/DX2                !
 ! D105  D(33,34,35,32)          0.011          estimate D2E/DX2                !
 ! D106  D(33,34,35,36)       -179.9955         estimate D2E/DX2                !
 ! D107  D(39,34,35,32)       -179.9906         estimate D2E/DX2                !
 ! D108  D(39,34,35,36)          0.0029         estimate D2E/DX2                !
 ! D109  D(33,34,39,40)        179.9917         estimate D2E/DX2                !
 ! D110  D(35,34,39,40)         -0.0067         estimate D2E/DX2                !
 ! D111  D(34,39,40,41)         61.1107         estimate D2E/DX2                !
 ! D112  D(34,39,40,42)       -179.9945         estimate D2E/DX2                !
 ! D113  D(34,39,40,43)        -61.0999         estimate D2E/DX2                !
 --------------------------------------------------------------------------------
 Trust Radius=3.00D-01 FncErr=1.00D-07 GrdErr=1.00D-06
 Number of steps in this run=    247 maximum allowed number of steps=    258.
 GradGradGradGradGradGradGradGradGradGradGradGradGradGradGradGradGradGrad

 Leave Link  103 at Wed Feb 24 21:50:59 2021, MaxMem=  5242880000 cpu:         0.5
 (Enter /opt/nce/packages/global/g09/l202.exe)
                          Input orientation:                          
 ---------------------------------------------------------------------
 Center     Atomic      Atomic             Coordinates (Angstroms)
 Number     Number       Type             X           Y           Z
 ---------------------------------------------------------------------
      1          6           0        2.836155    4.138012   -0.000326
      2          6           0        1.497628    3.818038    0.000115
      3          6           0        1.072762    2.458511    0.000220
      4          6           0        2.059798    1.417378   -0.000060
      5          6           0        3.437236    1.786622   -0.000607
      6          6           0        3.815015    3.111201   -0.000724
      7          6           0       -0.295131    2.113839    0.000460
      8          6           0        1.636808    0.051505    0.000203
      9          6           0        0.270575   -0.251827    0.000602
     10          6           0       -0.716402    0.794333    0.000531
     11          6           0       -2.133156    0.424372    0.000400
     12          6           0       -2.473188   -0.941447    0.000616
     13          6           0       -0.162672   -1.675450    0.001512
     14          1           0       -1.024826    2.924106    0.000536
     15          1           0        3.149561    5.184726   -0.000403
     16          1           0        0.737850    4.603615    0.000367
     17          1           0        4.192656    1.001316   -0.000937
     18          1           0        4.875033    3.374838   -0.001145
     19          6           0        2.702048   -0.996015   -0.000168
     20          6           0        3.230848   -1.467038   -1.208780
     21          6           0        3.233708   -1.465082    1.207951
     22          6           0        4.264658   -2.404859   -1.209107
     23          1           0        2.821157   -1.099597   -2.152393
     24          6           0        4.267501   -2.402924    1.207347
     25          1           0        2.826253   -1.096112    2.151934
     26          6           0        4.784764   -2.877236   -0.001111
     27          1           0        4.664745   -2.770077   -2.158124
     28          1           0        4.669806   -2.766639    2.156004
     29          1           0        5.592600   -3.612867   -0.001473
     30          8           0        0.555353   -2.637934    0.002523
     31          8           0       -1.518251   -1.913010    0.001074
     32          6           0       -3.199783    1.339207   -0.000107
     33          6           0       -3.793885   -1.379576    0.000238
     34          6           0       -4.834443   -0.444233   -0.000267
     35          6           0       -4.529766    0.930827   -0.000322
     36          1           0       -5.317793    1.682154   -0.000636
     37          1           0       -2.990228    2.409331   -0.000249
     38          1           0       -4.013418   -2.446764    0.000337
     39          8           0       -6.089403   -0.946710   -0.000644
     40          6           0       -7.186039   -0.059879   -0.000984
     41          1           0       -7.192233    0.582788   -0.899264
     42          1           0       -8.090330   -0.682182   -0.001152
     43          1           0       -7.192666    0.582928    0.897186
 ---------------------------------------------------------------------
                    Distance matrix (angstroms):
                    1          2          3          4          5
     1  C    0.000000
     2  C    1.376241   0.000000
     3  C    2.435216   1.424368   0.000000
     4  C    2.829237   2.465604   1.434642   0.000000
     5  C    2.427001   2.808688   2.458083   1.426070   0.000000
     6  C    1.418629   2.422788   2.818857   2.439226   1.377398
     7  C    3.728569   2.473516   1.410649   2.455758   3.746683
     8  C    4.258870   3.769104   2.472211   1.429871   2.500434
     9  C    5.084574   4.250819   2.826559   2.446950   3.766035
    10  C    4.878612   3.747629   2.443480   2.845254   4.270521
    11  C    6.203642   4.969865   3.796792   4.308935   5.734544
    12  C    7.347791   6.198393   4.912583   5.109992   6.509645
    13  C    6.541354   5.738903   4.314618   3.808538   4.994525
    14  H    4.047313   2.676171   2.148640   3.432948   4.604766
    15  H    1.092627   2.143996   3.427148   3.921797   3.410259
    16  H    2.149342   1.092883   2.171091   3.449587   3.901555
    17  H    3.417449   3.898346   3.443422   2.173060   1.089663
    18  H    2.177030   3.406361   3.911128   3.428877   2.142356
    19  C    5.135778   4.962432   3.819466   2.497389   2.878119
    20  C    5.747411   5.691881   4.639930   3.339494   3.476864
    21  C    5.745663   5.690712   4.639276   3.338552   3.474999
    22  C    6.805214   6.916872   5.941636   4.575227   4.440001
    23  H    5.662523   5.528847   4.511182   3.398142   3.652396
    24  C    6.803754   6.915922   5.941133   4.574548   4.438557
    25  H    5.659362   5.526702   4.509983   3.396493   3.649231
    26  C    7.280850   7.458683   6.499935   5.086172   4.854627
    27  H    7.464685   7.621803   6.700666   5.383100   5.188946
    28  H    7.462321   7.620272   6.699875   5.382077   5.186751
    29  H    8.226428   8.484524   7.569053   6.146874   5.813783
    30  O    7.149511   6.524374   5.122643   4.325381   5.280337
    31  O    7.454913   6.476144   5.081687   4.888141   6.184184
    32  C    6.653259   5.311334   4.416728   5.260162   6.652083
    33  C    8.625613   7.417230   6.197997   6.487569   7.893917
    34  C    8.935046   7.632960   6.581869   7.141159   8.567228
    35  C    8.033855   6.683223   5.807077   6.607502   8.012834
    36  H    8.515756   7.142266   6.437540   7.382341   8.755652
    37  H    6.077424   4.703755   4.063288   5.146526   6.457558
    38  H    9.501364   8.343822   7.066184   7.198302   8.569353
    39  O   10.272292   8.959122   7.930456   8.485186   9.911002
    40  C   10.865848   9.510222   8.634239   9.363108  10.782557
    41  H   10.677840   9.316083   8.522767   9.333016  10.735102
    42  H   11.942460  10.591549   9.686393  10.365001  11.788968
    43  H   10.678080   9.316216   8.522890   9.333244  10.735443
                    6          7          8          9         10
     6  C    0.000000
     7  C    4.229425   0.000000
     8  C    3.755839   2.825882   0.000000
     9  C    4.886002   2.432365   1.399501   0.000000
    10  C    5.089363   1.385123   2.467669   1.438254   0.000000
    11  C    6.526851   2.496525   3.788358   2.497032   1.464262
    12  C    7.481006   3.752160   4.228241   2.829101   2.469662
    13  C    6.223667   3.791604   2.494094   1.488088   2.531096
    14  H    4.843456   1.090407   3.916137   3.429958   2.151989
    15  H    2.177690   4.614786   5.351484   6.151802   5.849891
    16  H    3.419977   2.695558   4.640025   4.877875   4.077435
    17  H    2.143415   4.623629   2.726628   4.117413   4.913420
    18  H    1.092311   5.321721   4.640113   5.861206   6.158178
    19  C    4.255340   4.319059   1.494000   2.542809   3.858905
    20  C    4.770841   5.168894   2.511688   3.420900   4.707124
    21  C    4.768771   5.169083   2.511729   3.421964   4.708098
    22  C    5.664741   6.532485   3.794964   4.695918   6.042269
    23  H    4.832003   4.967112   2.713188   3.443773   4.553721
    24  C    5.663016   6.532636   3.794992   4.696687   6.043025
    25  H    4.828361   4.967461   2.713255   3.445655   4.555516
    26  C    6.066448   7.121528   4.299669   5.222133   6.613868
    27  H    6.321855   7.287832   4.667773   5.505489   6.805994
    28  H    6.319110   7.288075   4.667814   5.506657   6.807189
    29  H    6.955063   8.213437   5.392209   6.294485   7.695903
    30  O    6.608930   4.827284   2.898729   2.403042   3.660303
    31  O    7.327102   4.208508   3.716681   2.441194   2.823591
    32  C    7.235147   3.006170   5.005076   3.817692   2.542453
    33  C    8.835295   4.944212   5.616086   4.218015   3.767862
    34  C    9.351697   5.210479   6.490212   5.108643   4.300268
    35  C    8.624929   4.396777   6.228952   4.943880   3.815806
    36  H    9.243936   5.041179   7.143213   5.913556   4.686259
    37  H    6.841342   2.711248   5.193150   4.208871   2.788997
    38  H    9.600799   5.884281   6.177896   4.813558   4.623313
    39  O   10.703464   6.552904   7.790428   6.397827   5.648041
    40  C   11.448971   7.225626   8.823550   7.459084   6.525786
    41  H   11.329596   7.122053   8.890628   7.563058   6.541465
    42  H   12.495079   8.281477   9.754769   8.371974   7.520300
    43  H   11.329936   7.122064   8.890815   7.563111   6.541458
                   11         12         13         14         15
    11  C    0.000000
    12  C    1.407510   0.000000
    13  C    2.879594   2.424303   0.000000
    14  H    2.734422   4.127984   4.679661   0.000000
    15  H    7.111123   8.315365   7.617933   4.747200   0.000000
    16  H    5.070379   6.407689   6.343311   2.434703   2.480734
    17  H    6.352068   6.943184   5.112139   5.560507   4.311492
    18  H    7.603944   8.522128   7.133294   5.917051   2.500590
    19  C    5.039514   5.175524   2.944190   5.408968   6.196921
    20  C    5.814816   5.854478   3.608908   6.233406   6.761120
    21  C    5.816480   5.856664   3.610422   6.233613   6.759227
    22  C    7.099259   7.000255   4.647460   7.605245   7.765707
    23  H    5.612684   5.717565   3.724802   5.967987   6.650686
    24  C    7.100615   7.002071   4.648622   7.605417   7.764076
    25  H    5.615755   5.721553   3.727415   5.968373   6.647256
    26  C    7.665392   7.511668   5.091308   8.210171   8.226124
    27  H    7.815062   7.678160   5.400573   8.333952   8.380360
    28  H    7.817255   7.681106   5.402349   8.334234   8.377675
    29  H    8.717030   8.496671   6.072623   9.301739   9.130503
    30  O    4.075022   3.471330   1.200807   5.782150   8.241598
    31  O    2.416912   1.362292   1.376237   4.862218   8.495077
    32  C    1.405210   2.393601   4.279276   2.691160   7.423085
    33  C    2.451989   1.391473   3.643247   5.117555   9.555182
    34  C    2.837504   2.413037   4.831288   5.085164   9.768802
    35  C    2.449538   2.781173   5.085685   4.032092   8.778822
    36  H    3.424022   3.869762   6.152136   4.469006   9.163192
    37  H    2.162090   3.390434   4.967948   2.031699   6.737939
    38  H    3.432027   2.153668   3.927235   6.146375  10.466514
    39  O    4.187094   3.616219   5.971366   6.374414  11.088416
    40  C    5.076035   4.794594   7.206786   6.845781  11.590104
    41  H    5.140890   5.040086   7.438129   6.657952  11.355108
    42  H    6.059075   5.623122   7.989640   7.932633  12.678949
    43  H    5.140818   5.039943   7.437965   6.657878  11.355345
                   16         17         18         19         20
    16  H    0.000000
    17  H    4.991217   0.000000
    18  H    4.315806   2.469665   0.000000
    19  C    5.934133   2.492237   4.881211   0.000000
    20  C    6.673073   2.911483   5.254093   1.400798   0.000000
    21  C    6.672080   2.909314   5.251732   1.400799   2.416733
    22  C    7.938508   3.614815   5.936045   2.426546   1.395805
    23  H    6.442140   3.305088   5.372787   2.158006   1.092367
    24  C    7.937684   3.613088   5.933977   2.426547   2.790735
    25  H    6.440307   3.301684   5.368672   2.158006   3.405243
    26  C    8.505330   3.923488   6.252726   2.806546   2.421111
    27  H    8.628495   4.370324   6.515885   3.414125   2.157597
    28  H    8.627149   4.367786   6.512538   3.414126   3.883469
    29  H    9.543541   4.821880   7.024452   3.899129   3.411751
    30  O    7.243849   5.145301   7.403585   2.702629   3.161728
    31  O    6.896114   6.411533   8.296711   4.318774   4.921034
    32  C    5.114813   7.400157   8.327451   6.347036   7.119615
    33  C    7.505678   8.333876   9.887092   6.507247   7.128552
    34  C    7.518725   9.142107  10.433563   7.556663   8.219218
    35  C    6.421616   8.722707   9.717172   7.484107   8.212019
    36  H    6.723522   9.534788  10.332419   8.455202   9.190010
    37  H    4.325904   7.319585   7.924300   6.633128   7.428901
    38  H    8.501905   8.901062  10.625235   6.870383   7.409536
    39  O    8.798721  10.464967  11.785357   8.791589   9.412620
    40  C    9.194357  11.428072  12.540604   9.932302  10.580662
    41  H    8.936588  11.427942  12.418578  10.059711  10.627239
    42  H   10.289627  12.397819  13.585288  10.796940  11.412425
    43  H    8.936626  11.428352  12.418982  10.060003  10.829917
                   21         22         23         24         25
    21  C    0.000000
    22  C    2.790736   0.000000
    23  H    3.405244   2.162682   0.000000
    24  C    1.395807   2.416456   3.883095   0.000000
    25  H    1.092365   3.883095   4.304331   2.162683   0.000000
    26  C    2.421112   1.397464   3.412296   1.397463   3.412297
    27  H    3.883470   1.092743   2.487841   3.408665   4.975823
    28  H    2.157599   3.408666   4.975823   1.092743   2.487843
    29  H    3.411753   2.163583   4.315539   2.163584   4.315541
    30  O    3.162629   3.909132   3.484826   3.909843   3.486283
    31  O    4.923241   5.928616   4.912181   5.930433   4.916120
    32  C    7.121323   8.437866   6.843378   8.439302   6.846544
    33  C    7.131125   8.213028   6.962111   8.215248   6.966805
    34  C    8.221739   9.386106   7.979308   9.388301   7.983933
    35  C    8.214124   9.483135   7.924020   9.484949   7.927907
    36  H    9.192059  10.487490   8.866268  10.489278   8.870051
    37  H    7.430222   8.790400   7.121551   8.791514   7.124007
    38  H    7.412346   8.366066   7.291126   8.368537   7.296213
    39  O    9.415403  10.525833   9.167959  10.528308   9.173049
    40  C   10.583348  11.750615  10.288515  11.753021  10.293436
    41  H   10.832099  11.844087  10.230774  12.028208  10.606535
    42  H   11.415284  12.532857  11.129359  12.535446  11.134581
    43  H   10.630155  12.026372  10.602239  11.846811  10.235834
                   26         27         28         29         30
    26  C    0.000000
    27  H    2.163005   0.000000
    28  H    2.163005   4.314132   0.000000
    29  H    1.092590   2.494465   2.494465   0.000000
    30  O    4.236177   4.644670   4.645726   5.130728   0.000000
    31  O    6.376342   6.605009   6.607909   7.311205   2.196668
    32  C    9.029473   9.132034   9.134397  10.091037   5.469799
    33  C    8.708399   8.839708   8.843378   9.648507   4.527620
    34  C    9.922129  10.015012  10.018674  10.897865   5.819126
    35  C   10.062893  10.143561  10.146582  11.095380   6.212447
    36  H   11.083758  11.141283  11.144281  12.127404   7.290886
    37  H    9.402037   9.491117   9.492956  10.484837   6.168147
    38  H    8.808707   8.948408   8.952519   9.676538   4.572769
    39  O   11.044204  11.118952  11.123122  11.982387   6.856605
    40  C   12.297871  12.346640  12.350717  13.263383   8.159383
    41  H   12.499076  12.386055  12.698870  13.485604   8.438682
    42  H   13.060869  13.103579  13.107988  13.993266   8.864131
    43  H   12.499540  12.695501  12.390418  13.486115   8.438375
                   31         32         33         34         35
    31  O    0.000000
    32  C    3.661211   0.000000
    33  C    2.337320   2.782937   0.000000
    34  C    3.626905   2.419250   1.399153   0.000000
    35  C    4.142057   1.391269   2.424765   1.408410   0.000000
    36  H    5.230844   2.145595   3.420013   2.180630   1.088797
    37  H    4.566109   1.090449   3.873200   3.397640   2.134514
    38  H    2.551618   3.872412   1.089534   2.164304   3.416831
    39  O    4.672170   3.684470   2.335974   1.351817   2.440822
    40  C    5.963046   4.224651   3.639823   2.382799   2.835011
    41  H    6.263680   4.161768   4.026009   2.724361   2.831600
    42  H    6.686342   5.291830   4.352677   3.264571   3.908889
    43  H    6.263522   4.161755   4.025873   2.724279   2.831535
                   36         37         38         39         40
    36  H    0.000000
    37  H    2.438513   0.000000
    38  H    4.330053   4.962719   0.000000
    39  O    2.739764   4.568139   2.561226   0.000000
    40  C    2.554412   4.868452   3.970232   1.410347   0.000000
    41  H    2.351524   4.669190   4.482447   2.088807   1.104521
    42  H    3.643768   5.963933   4.442405   2.018337   1.097726
    43  H    2.351495   4.669221   4.482297   2.088799   1.104515
                   41         42         43
    41  H    0.000000
    42  H    1.792577   0.000000
    43  H    1.796450   1.792572   0.000000
 Symmetry turned off by external request.
 Stoichiometry    C24H16O3
 Framework group  C1[X(C24H16O3)]
 Deg. of freedom   123
 Full point group                 C1      NOp   1
 Rotational constants (GHZ):      0.3393275      0.1186549      0.0907690
 Leave Link  202 at Wed Feb 24 21:51:00 2021, MaxMem=  5242880000 cpu:         5.4
 (Enter /opt/nce/packages/global/g09/l301.exe)
 Standard basis: def2TZVP (5D, 7F)
 Ernie: Thresh=  0.10000D-02 Tol=  0.10000D-05 Strict=F.
   933 basis functions,  1505 primitive gaussians,  1068 cartesian basis functions
    92 alpha electrons       92 beta electrons
       nuclear repulsion energy      2242.2853937510 Hartrees.
 IExCor=20419 DFT=T Ex+Corr=CAM-B3LYP ExCW=0 ScaHFX=  1.000000
 ScaDFX=  1.000000  1.000000  1.000000  0.810000 ScalE2=  1.000000  1.000000
 IRadAn=      5 IRanWt=     -1 IRanGd=            0 ICorTp=0 IEmpDi=141
  HFx wShort=  0.000000 wLong=  0.330000 cFull=  0.190000 cShort=  0.000000 cLong=  0.460000
  DFx wShort=  0.000000 wLong=  0.330000 cFull=  0.190000 cShort=  0.000000 cLong=  0.460000
 NAtoms=   43 NActive=   43 NUniq=   43 SFac= 1.00D+00 NAtFMM=   60 NAOKFM=F Big=F
 Integral buffers will be    131072 words long.
 Raffenetti 2 integral format.
 Two-electron integral symmetry is turned off.
 R6Disp:  Grimme-D3(BJ) Dispersion energy=       -0.0530897820 Hartrees.
 Nuclear repulsion after empirical dispersion term =     2242.2323039690 Hartrees.
 ------------------------------------------------------------------------------
 Polarizable Continuum Model (PCM)
 =================================
 Model                : PCM (using non-symmetric T matrix).
 Atomic radii         : SMD-Coulomb.
 Polarization charges : Total charges.
 Charge compensation  : None.
 Solution method      : On-the-fly selection.
 Cavity type          : VdW (van der Waals Surface) (Alpha=1.000).
 Cavity algorithm     : GePol (No added spheres)
                        Default sphere list used, NSphG=   43.
                        Lebedev-Laikov grids with approx.  5.0 points / Ang**2.
                        Smoothing algorithm: York/Karplus (Gamma=1.0000).
                        Polarization charges: spherical gaussians, with
                                              point-specific exponents (IZeta= 3).
                        Self-potential: point-specific (ISelfS= 7).
                        Self-field    : sphere-specific E.n sum rule (ISelfD= 2).
 1st derivatives      : Analytical E(r).r(x)/FMM algorithm (CHGder, D1EAlg=3).
                        Cavity 1st derivative terms included.
 Solvent              : Acetonitrile, Eps=  35.688000 Eps(inf)=   1.806874
 ------------------------------------------------------------------------------
 GePol: Number of generator spheres                  =      43
 GePol: Total number of spheres                      =      43
 GePol: Number of exposed spheres                    =      43 (100.00%)
 GePol: Number of points                             =    3289
 GePol: Average weight of points                     =       0.11
 GePol: Minimum weight of points                     =   0.24D-09
 GePol: Maximum weight of points                     =    0.21559
 GePol: Number of points with low weight             =     160
 GePol: Fraction of low-weight points (<1% of avg)   =       4.86%
 GePol: Cavity surface area                          =    371.292 Ang**2
 GePol: Cavity volume                                =    377.339 Ang**3
 ------------------------------------------------------------------------------
 Atomic radii for non-electrostatic terms: SMD-CDS.
 ------------------------------------------------------------------------------
 PCM non-electrostatic energy =        -0.0079595609 Hartrees.
 Nuclear repulsion after PCM non-electrostatic terms =     2242.2243444081 Hartrees.
 Leave Link  301 at Wed Feb 24 21:51:00 2021, MaxMem=  5242880000 cpu:         2.7
 (Enter /opt/nce/packages/global/g09/l302.exe)
 NPDir=0 NMtPBC=     1 NCelOv=     1 NCel=       1 NClECP=     1 NCelD=      1
         NCelK=      1 NCelE2=     1 NClLst=     1 CellRange=     0.0.
 One-electron integrals computed using PRISM.
   1 Symmetry operations used in ECPInt.
 ECPInt:  NShTT=   65341 NPrTT=  203208 LenC2=   53161 LenP2D=  114787.
 LDataN:  DoStor=T MaxTD1= 6 Len=  172
 NBasis=   933 RedAO= T EigKep=  2.87D-06  NBF=   933
 NBsUse=   933 1.00D-06 EigRej= -1.00D+00 NBFU=   933
 Precomputing XC quadrature grid using
 IXCGrd= 4 IRadAn=           5 IRanWt=          -1 IRanGd=           0 AccXCQ= 0.00D+00.
 Generated NRdTot=       0 NPtTot=           0 NUsed=           0 NTot=          32
 NSgBfM=  1027  1027  1027  1027  1027 MxSgAt=    43 MxSgA2=    43.
 Leave Link  302 at Wed Feb 24 21:51:06 2021, MaxMem=  5242880000 cpu:        41.8
 (Enter /opt/nce/packages/global/g09/l303.exe)
 DipDrv:  MaxL=1.
 Leave Link  303 at Wed Feb 24 21:51:07 2021, MaxMem=  5242880000 cpu:         2.3
 (Enter /opt/nce/packages/global/g09/l401.exe)
 ExpMin= 9.52D-02 ExpMax= 2.70D+04 ExpMxC= 9.22D+02 IAcc=3 IRadAn=         5 AccDes= 0.00D+00
 Harris functional with IExCor=20419 and IRadAn=       5 diagonalized for initial guess.
 HarFok:  IExCor=20419 AccDes= 0.00D+00 IRadAn=         5 IDoV= 1 UseB2=F ITyADJ=14
 ICtDFT=  3500011 ScaDFX=  1.000000  1.000000  1.000000  1.000000
 FoFCou: FMM=F IPFlag=           0 FMFlag=      100000 FMFlg1=           0
         NFxFlg=           0 DoJE=T BraDBF=F KetDBF=T FulRan=T
         wScrn=  0.000000 ICntrl=     500 IOpCl=  0 I1Cent=   200000004 NGrid=           0
         NMat0=    1 NMatS0=      1 NMatT0=    0 NMatD0=    1 NMtDS0=    0 NMtDT0=    0
 Symmetry not used in FoFCou.
 Harris En= -1105.47649027324    
 JPrj=0 DoOrth=F DoCkMO=F.
 Leave Link  401 at Wed Feb 24 21:51:37 2021, MaxMem=  5242880000 cpu:       202.6
 (Enter /opt/nce/packages/global/g09/l502.exe)
 Closed shell SCF:
 Using DIIS extrapolation, IDIIS=  1040.
 Two-electron integral symmetry not used.
 IVT=     3459732 IEndB=     3459732 NGot=  5242880000 MDV=  5240578601
 LenX=  5240578601 LenY=  5239436909
 Requested convergence on RMS density matrix=1.00D-08 within 128 cycles.
 Requested convergence on MAX density matrix=1.00D-06.
 Requested convergence on             energy=1.00D-06.
 No special actions if energy rises.
 Fock matrices will be formed incrementally for  20 cycles.

 Cycle   1  Pass 1  IDiag  1:
 FoFJK:  IHMeth= 1 ICntrl=       0 DoSepK=T KAlg= 0 I1Cent=   0 FoldK=F
 IRaf=         1 NMat=   1 IRICut=       1 DoRegI=T DoRafI=F ISym2E= 0.
 FoFCou: FMM=F IPFlag=           0 FMFlag=      100000 FMFlg1=           0
         NFxFlg=           0 DoJE=T BraDBF=F KetDBF=F FulRan=T
         wScrn=  0.000000 ICntrl=     500 IOpCl=  0 I1Cent=           0 NGrid=           0
         NMat0=    1 NMatS0=      1 NMatT0=    0 NMatD0=    1 NMtDS0=    0 NMtDT0=    0
 Symmetry not used in FoFCou.
 Inv3:  Mode=1 IEnd=    32452563.
 Iteration    1 A*A^-1 deviation from unit magnitude is 6.22D-15 for   3269.
 Iteration    1 A*A^-1 deviation from orthogonality  is 2.84D-15 for   3281   3157.
 Iteration    1 A^-1*A deviation from unit magnitude is 6.00D-15 for   3269.
 Iteration    1 A^-1*A deviation from orthogonality  is 1.33D-07 for   3035   1460.
 Iteration    2 A*A^-1 deviation from unit magnitude is 2.22D-15 for    167.
 Iteration    2 A*A^-1 deviation from orthogonality  is 2.44D-15 for   2600    640.
 Iteration    2 A^-1*A deviation from unit magnitude is 1.11D-15 for    256.
 Iteration    2 A^-1*A deviation from orthogonality  is 3.33D-16 for   2845   1073.
 E= -1149.45582866362    
 DIIS: error= 4.41D-02 at cycle   1 NSaved=   1.
 NSaved= 1 IEnMin= 1 EnMin= -1149.45582866362     IErMin= 1 ErrMin= 4.41D-02
 ErrMax= 4.41D-02  0.00D+00 EMaxC= 1.00D-01 BMatC= 2.02D+00 BMatP= 2.02D+00
 IDIUse=3 WtCom= 5.59D-01 WtEn= 4.41D-01
 Coeff-Com:  0.100D+01
 Coeff-En:   0.100D+01
 Coeff:      0.100D+01
 Gap=     0.255 Goal=   None    Shift=    0.000
 GapD=    0.255 DampG=1.000 DampE=0.500 DampFc=0.5000 IDamp=-1.
 Damping current iteration by 5.00D-01
 RMSDP=4.90D-03 MaxDP=5.12D-01              OVMax= 1.59D-01

 Cycle   2  Pass 1  IDiag  1:
 RMSU=  1.53D-03    CP:  7.80D-01
 E= -1149.61033225484     Delta-E=       -0.154503591218 Rises=F Damp=T
 DIIS: error= 2.18D-02 at cycle   2 NSaved=   2.
 NSaved= 2 IEnMin= 2 EnMin= -1149.61033225484     IErMin= 2 ErrMin= 2.18D-02
 ErrMax= 2.18D-02  0.00D+00 EMaxC= 1.00D-01 BMatC= 4.14D-01 BMatP= 2.02D+00
 IDIUse=3 WtCom= 7.82D-01 WtEn= 2.18D-01
 Coeff-Com: -0.536D+00 0.154D+01
 Coeff-En:   0.000D+00 0.100D+01
 Coeff:     -0.420D+00 0.142D+01
 Gap=     0.276 Goal=   None    Shift=    0.000
 RMSDP=1.27D-03 MaxDP=1.23D-01 DE=-1.55D-01 OVMax= 1.69D-01

 Cycle   3  Pass 1  IDiag  1:
 RMSU=  1.14D-03    CP:  7.18D-01  1.11D+00
 E= -1149.66688592577     Delta-E=       -0.056553670937 Rises=F Damp=F
 DIIS: error= 1.05D-02 at cycle   3 NSaved=   3.
 NSaved= 3 IEnMin= 3 EnMin= -1149.66688592577     IErMin= 3 ErrMin= 1.05D-02
 ErrMax= 1.05D-02  0.00D+00 EMaxC= 1.00D-01 BMatC= 1.74D-01 BMatP= 4.14D-01
 IDIUse=3 WtCom= 8.95D-01 WtEn= 1.05D-01
 Coeff-Com: -0.376D+00 0.823D+00 0.552D+00
 Coeff-En:   0.000D+00 0.228D+00 0.772D+00
 Coeff:     -0.336D+00 0.761D+00 0.575D+00
 Gap=     0.234 Goal=   None    Shift=    0.000
 RMSDP=1.47D-03 MaxDP=1.93D-01 DE=-5.66D-02 OVMax= 6.71D-02

 Cycle   4  Pass 1  IDiag  1:
 RMSU=  3.93D-04    CP:  6.29D-01  1.66D+00  2.70D-01
 E= -1149.78552881828     Delta-E=       -0.118642892507 Rises=F Damp=F
 DIIS: error= 2.66D-03 at cycle   4 NSaved=   4.
 NSaved= 4 IEnMin= 4 EnMin= -1149.78552881828     IErMin= 4 ErrMin= 2.66D-03
 ErrMax= 2.66D-03  0.00D+00 EMaxC= 1.00D-01 BMatC= 9.56D-03 BMatP= 1.74D-01
 IDIUse=3 WtCom= 9.73D-01 WtEn= 2.66D-02
 Coeff-Com: -0.176D+00 0.382D+00 0.332D+00 0.462D+00
 Coeff-En:   0.000D+00 0.000D+00 0.000D+00 0.100D+01
 Coeff:     -0.171D+00 0.372D+00 0.323D+00 0.477D+00
 Gap=     0.221 Goal=   None    Shift=    0.000
 RMSDP=2.74D-04 MaxDP=3.07D-02 DE=-1.19D-01 OVMax= 1.55D-02

 Cycle   5  Pass 1  IDiag  1:
 RMSU=  1.14D-04    CP:  6.18D-01  1.68D+00  4.22D-01  6.23D-01
 E= -1149.79172350746     Delta-E=       -0.006194689182 Rises=F Damp=F
 DIIS: error= 3.35D-04 at cycle   5 NSaved=   5.
 NSaved= 5 IEnMin= 5 EnMin= -1149.79172350746     IErMin= 5 ErrMin= 3.35D-04
 ErrMax= 3.35D-04  0.00D+00 EMaxC= 1.00D-01 BMatC= 1.88D-04 BMatP= 9.56D-03
 IDIUse=3 WtCom= 9.97D-01 WtEn= 3.35D-03
 Coeff-Com: -0.286D-01 0.618D-01 0.731D-01 0.170D+00 0.723D+00
 Coeff-En:   0.000D+00 0.000D+00 0.000D+00 0.000D+00 0.100D+01
 Coeff:     -0.285D-01 0.616D-01 0.729D-01 0.170D+00 0.724D+00
 Gap=     0.222 Goal=   None    Shift=    0.000
 RMSDP=4.26D-05 MaxDP=4.32D-03 DE=-6.19D-03 OVMax= 3.04D-03

 Cycle   6  Pass 1  IDiag  1:
 RMSU=  3.20D-05    CP:  6.17D-01  1.68D+00  4.13D-01  6.81D-01  9.22D-01
 E= -1149.79184066634     Delta-E=       -0.000117158882 Rises=F Damp=F
 DIIS: error= 1.75D-04 at cycle   6 NSaved=   6.
 NSaved= 6 IEnMin= 6 EnMin= -1149.79184066634     IErMin= 6 ErrMin= 1.75D-04
 ErrMax= 1.75D-04  0.00D+00 EMaxC= 1.00D-01 BMatC= 6.13D-05 BMatP= 1.88D-04
 IDIUse=3 WtCom= 9.98D-01 WtEn= 1.75D-03
 Coeff-Com:  0.158D-01-0.345D-01-0.186D-01 0.730D-03 0.401D+00 0.636D+00
 Coeff-En:   0.000D+00 0.000D+00 0.000D+00 0.000D+00 0.127D+00 0.873D+00
 Coeff:      0.158D-01-0.345D-01-0.186D-01 0.728D-03 0.400D+00 0.636D+00
 Gap=     0.222 Goal=   None    Shift=    0.000
 RMSDP=2.07D-05 MaxDP=2.26D-03 DE=-1.17D-04 OVMax= 1.58D-03

 Cycle   7  Pass 1  IDiag  1:
 RMSU=  9.53D-06    CP:  6.16D-01  1.69D+00  4.16D-01  6.85D-01  9.99D-01
                    CP:  8.40D-01
 E= -1149.79189448999     Delta-E=       -0.000053823649 Rises=F Damp=F
 DIIS: error= 3.77D-05 at cycle   7 NSaved=   7.
 NSaved= 7 IEnMin= 7 EnMin= -1149.79189448999     IErMin= 7 ErrMin= 3.77D-05
 ErrMax= 3.77D-05  0.00D+00 EMaxC= 1.00D-01 BMatC= 1.46D-06 BMatP= 6.13D-05
 IDIUse=1 WtCom= 1.00D+00 WtEn= 0.00D+00
 Coeff-Com:  0.564D-02-0.123D-01-0.886D-02-0.101D-01 0.602D-01 0.155D+00
 Coeff-Com:  0.810D+00
 Coeff:      0.564D-02-0.123D-01-0.886D-02-0.101D-01 0.602D-01 0.155D+00
 Coeff:      0.810D+00
 Gap=     0.222 Goal=   None    Shift=    0.000
 RMSDP=5.28D-06 MaxDP=5.48D-04 DE=-5.38D-05 OVMax= 8.27D-04

 Cycle   8  Pass 1  IDiag  1:
 RMSU=  2.70D-06    CP:  6.16D-01  1.69D+00  4.17D-01  6.84D-01  1.01D+00
                    CP:  9.33D-01  9.94D-01
 E= -1149.79189697374     Delta-E=       -0.000002483745 Rises=F Damp=F
 DIIS: error= 1.71D-05 at cycle   8 NSaved=   8.
 NSaved= 8 IEnMin= 8 EnMin= -1149.79189697374     IErMin= 8 ErrMin= 1.71D-05
 ErrMax= 1.71D-05  0.00D+00 EMaxC= 1.00D-01 BMatC= 4.93D-07 BMatP= 1.46D-06
 IDIUse=1 WtCom= 1.00D+00 WtEn= 0.00D+00
 Coeff-Com: -0.341D-03 0.788D-03-0.289D-03-0.426D-02-0.406D-01-0.436D-01
 Coeff-Com:  0.361D+00 0.728D+00
 Coeff:     -0.341D-03 0.788D-03-0.289D-03-0.426D-02-0.406D-01-0.436D-01
 Coeff:      0.361D+00 0.728D+00
 Gap=     0.222 Goal=   None    Shift=    0.000
 RMSDP=1.46D-06 MaxDP=1.31D-04 DE=-2.48D-06 OVMax= 3.76D-04

 Cycle   9  Pass 1  IDiag  1:
 RMSU=  1.15D-06    CP:  6.16D-01  1.69D+00  4.17D-01  6.84D-01  1.02D+00
                    CP:  9.44D-01  1.07D+00  1.02D+00
 E= -1149.79189773212     Delta-E=       -0.000000758376 Rises=F Damp=F
 DIIS: error= 6.01D-06 at cycle   9 NSaved=   9.
 NSaved= 9 IEnMin= 9 EnMin= -1149.79189773212     IErMin= 9 ErrMin= 6.01D-06
 ErrMax= 6.01D-06  0.00D+00 EMaxC= 1.00D-01 BMatC= 4.02D-08 BMatP= 4.93D-07
 IDIUse=1 WtCom= 1.00D+00 WtEn= 0.00D+00
 Coeff-Com: -0.654D-03 0.144D-02 0.987D-03-0.164D-03-0.188D-01-0.306D-01
 Coeff-Com: -0.201D-02 0.174D+00 0.876D+00
 Coeff:     -0.654D-03 0.144D-02 0.987D-03-0.164D-03-0.188D-01-0.306D-01
 Coeff:     -0.201D-02 0.174D+00 0.876D+00
 Gap=     0.222 Goal=   None    Shift=    0.000
 RMSDP=9.71D-07 MaxDP=1.46D-04 DE=-7.58D-07 OVMax= 2.20D-04

 Cycle  10  Pass 1  IDiag  1:
 RMSU=  3.51D-07    CP:  6.16D-01  1.69D+00  4.17D-01  6.83D-01  1.02D+00
                    CP:  9.55D-01  1.07D+00  1.15D+00  1.23D+00
 E= -1149.79189782046     Delta-E=       -0.000000088348 Rises=F Damp=F
 DIIS: error= 2.86D-06 at cycle  10 NSaved=  10.
 NSaved=10 IEnMin=10 EnMin= -1149.79189782046     IErMin=10 ErrMin= 2.86D-06
 ErrMax= 2.86D-06  0.00D+00 EMaxC= 1.00D-01 BMatC= 7.59D-09 BMatP= 4.02D-08
 IDIUse=1 WtCom= 1.00D+00 WtEn= 0.00D+00
 Coeff-Com: -0.204D-03 0.444D-03 0.462D-03 0.462D-03-0.244D-02-0.688D-02
 Coeff-Com: -0.438D-01-0.233D-01 0.336D+00 0.739D+00
 Coeff:     -0.204D-03 0.444D-03 0.462D-03 0.462D-03-0.244D-02-0.688D-02
 Coeff:     -0.438D-01-0.233D-01 0.336D+00 0.739D+00
 Gap=     0.222 Goal=   None    Shift=    0.000
 RMSDP=4.17D-07 MaxDP=4.80D-05 DE=-8.83D-08 OVMax= 6.97D-05

 Cycle  11  Pass 1  IDiag  1:
 RMSU=  1.25D-07    CP:  6.16D-01  1.69D+00  4.17D-01  6.83D-01  1.02D+00
                    CP:  9.56D-01  1.08D+00  1.17D+00  1.34D+00  1.13D+00
 E= -1149.79189783457     Delta-E=       -0.000000014107 Rises=F Damp=F
 DIIS: error= 1.21D-06 at cycle  11 NSaved=  11.
 NSaved=11 IEnMin=11 EnMin= -1149.79189783457     IErMin=11 ErrMin= 1.21D-06
 ErrMax= 1.21D-06  0.00D+00 EMaxC= 1.00D-01 BMatC= 1.02D-09 BMatP= 7.59D-09
 IDIUse=1 WtCom= 1.00D+00 WtEn= 0.00D+00
 Coeff-Com:  0.525D-04-0.116D-03-0.125D-04 0.224D-03 0.252D-02 0.293D-02
 Coeff-Com: -0.138D-01-0.385D-01-0.507D-01 0.255D+00 0.842D+00
 Coeff:      0.525D-04-0.116D-03-0.125D-04 0.224D-03 0.252D-02 0.293D-02
 Coeff:     -0.138D-01-0.385D-01-0.507D-01 0.255D+00 0.842D+00
 Gap=     0.222 Goal=   None    Shift=    0.000
 RMSDP=1.67D-07 MaxDP=2.07D-05 DE=-1.41D-08 OVMax= 3.72D-05

 Cycle  12  Pass 1  IDiag  1:
 RMSU=  5.49D-08    CP:  6.16D-01  1.69D+00  4.17D-01  6.83D-01  1.02D+00
                    CP:  9.57D-01  1.08D+00  1.19D+00  1.38D+00  1.23D+00
                    CP:  1.15D+00
 E= -1149.79189783684     Delta-E=       -0.000000002266 Rises=F Damp=F
 DIIS: error= 3.53D-07 at cycle  12 NSaved=  12.
 NSaved=12 IEnMin=12 EnMin= -1149.79189783684     IErMin=12 ErrMin= 3.53D-07
 ErrMax= 3.53D-07  0.00D+00 EMaxC= 1.00D-01 BMatC= 1.33D-10 BMatP= 1.02D-09
 IDIUse=1 WtCom= 1.00D+00 WtEn= 0.00D+00
 Coeff-Com:  0.314D-04-0.688D-04-0.418D-04 0.638D-04 0.104D-02 0.146D-02
 Coeff-Com:  0.436D-03-0.885D-02-0.516D-01-0.897D-03 0.270D+00 0.789D+00
 Coeff:      0.314D-04-0.688D-04-0.418D-04 0.638D-04 0.104D-02 0.146D-02
 Coeff:      0.436D-03-0.885D-02-0.516D-01-0.897D-03 0.270D+00 0.789D+00
 Gap=     0.222 Goal=   None    Shift=    0.000
 RMSDP=2.70D-08 MaxDP=1.50D-06 DE=-2.27D-09 OVMax= 1.16D-05

 Cycle  13  Pass 1  IDiag  1:
 RMSU=  1.76D-08    CP:  6.16D-01  1.69D+00  4.18D-01  6.83D-01  1.02D+00
                    CP:  9.57D-01  1.08D+00  1.19D+00  1.38D+00  1.25D+00
                    CP:  1.24D+00  1.18D+00
 E= -1149.79189783712     Delta-E=       -0.000000000279 Rises=F Damp=F
 DIIS: error= 2.21D-07 at cycle  13 NSaved=  13.
 NSaved=13 IEnMin=13 EnMin= -1149.79189783712     IErMin=13 ErrMin= 2.21D-07
 ErrMax= 2.21D-07  0.00D+00 EMaxC= 1.00D-01 BMatC= 2.58D-11 BMatP= 1.33D-10
 IDIUse=1 WtCom= 1.00D+00 WtEn= 0.00D+00
 Coeff-Com:  0.580D-05-0.123D-04-0.197D-04-0.123D-04-0.347D-04 0.581D-04
 Coeff-Com:  0.303D-02 0.407D-02-0.119D-01-0.537D-01-0.506D-01 0.325D+00
 Coeff-Com:  0.784D+00
 Coeff:      0.580D-05-0.123D-04-0.197D-04-0.123D-04-0.347D-04 0.581D-04
 Coeff:      0.303D-02 0.407D-02-0.119D-01-0.537D-01-0.506D-01 0.325D+00
 Coeff:      0.784D+00
 Gap=     0.222 Goal=   None    Shift=    0.000
 RMSDP=1.48D-08 MaxDP=1.18D-06 DE=-2.79D-10 OVMax= 5.02D-06

 Cycle  14  Pass 1  IDiag  1:
 RMSU=  8.76D-09    CP:  6.16D-01  1.69D+00  4.18D-01  6.83D-01  1.02D+00
                    CP:  9.57D-01  1.08D+00  1.19D+00  1.38D+00  1.26D+00
                    CP:  1.27D+00  1.31D+00  1.17D+00
 E= -1149.79189783719     Delta-E=       -0.000000000078 Rises=F Damp=F
 DIIS: error= 5.95D-08 at cycle  14 NSaved=  14.
 NSaved=14 IEnMin=14 EnMin= -1149.79189783719     IErMin=14 ErrMin= 5.95D-08
 ErrMax= 5.95D-08  0.00D+00 EMaxC= 1.00D-01 BMatC= 2.55D-12 BMatP= 2.58D-11
 IDIUse=1 WtCom= 1.00D+00 WtEn= 0.00D+00
 Coeff-Com: -0.127D-05 0.290D-05-0.147D-07-0.822D-05-0.117D-03-0.113D-03
 Coeff-Com:  0.561D-03 0.189D-02 0.237D-02-0.136D-01-0.371D-01-0.184D-01
 Coeff-Com:  0.193D+00 0.872D+00
 Coeff:     -0.127D-05 0.290D-05-0.147D-07-0.822D-05-0.117D-03-0.113D-03
 Coeff:      0.561D-03 0.189D-02 0.237D-02-0.136D-01-0.371D-01-0.184D-01
 Coeff:      0.193D+00 0.872D+00
 Gap=     0.222 Goal=   None    Shift=    0.000
 RMSDP=9.53D-09 MaxDP=9.73D-07 DE=-7.78D-11 OVMax= 1.66D-06

 Error on total polarization charges =  0.06218
 SCF Done:  E(RCAM-B3LYP) =  -1149.79189784     A.U. after   14 cycles
            NFock= 14  Conv=0.95D-08     -V/T= 2.0051
 KE= 1.143982619475D+03 PE=-7.162137899694D+03 EE= 2.626139037973D+03
 SMD-CDS (non-electrostatic) energy       (kcal/mol) =      -4.99
 (included in total energy above)
 Leave Link  502 at Wed Feb 24 22:16:32 2021, MaxMem=  5242880000 cpu:     17867.5
 (Enter /opt/nce/packages/global/g09/l601.exe)
 Copying SCF densities to generalized density rwf, IOpCl= 0 IROHF=0.

 **********************************************************************

            Population analysis using the SCF density.

 **********************************************************************

 Alpha  occ. eigenvalues --  -19.26470 -19.23431 -19.19188 -10.39453 -10.32791
 Alpha  occ. eigenvalues --  -10.32212 -10.28918 -10.28556 -10.28125 -10.28034
 Alpha  occ. eigenvalues --  -10.27160 -10.26996 -10.26566 -10.26236 -10.26215
 Alpha  occ. eigenvalues --  -10.25649 -10.25558 -10.25527 -10.25437 -10.25337
 Alpha  occ. eigenvalues --  -10.25090 -10.25056 -10.24839 -10.24832 -10.24741
 Alpha  occ. eigenvalues --  -10.24739 -10.24679  -1.20849  -1.15774  -1.12389
 Alpha  occ. eigenvalues --   -0.97881  -0.95080  -0.94102  -0.92195  -0.88352
 Alpha  occ. eigenvalues --   -0.85905  -0.84396  -0.83674  -0.82774  -0.82481
 Alpha  occ. eigenvalues --   -0.80324  -0.77374  -0.74812  -0.72304  -0.71291
 Alpha  occ. eigenvalues --   -0.69310  -0.68479  -0.67873  -0.64818  -0.63764
 Alpha  occ. eigenvalues --   -0.62999  -0.60011  -0.59752  -0.58065  -0.57177
 Alpha  occ. eigenvalues --   -0.56237  -0.55926  -0.54150  -0.54030  -0.53183
 Alpha  occ. eigenvalues --   -0.52963  -0.52387  -0.52257  -0.50644  -0.50390
 Alpha  occ. eigenvalues --   -0.49737  -0.48720  -0.48433  -0.48385  -0.47386
 Alpha  occ. eigenvalues --   -0.47061  -0.46756  -0.46080  -0.44473  -0.43871
 Alpha  occ. eigenvalues --   -0.43034  -0.42805  -0.41888  -0.41795  -0.41072
 Alpha  occ. eigenvalues --   -0.40592  -0.39639  -0.39018  -0.37908  -0.36334
 Alpha  occ. eigenvalues --   -0.35503  -0.32334  -0.31189  -0.30465  -0.29945
 Alpha  occ. eigenvalues --   -0.29219  -0.25669
 Alpha virt. eigenvalues --   -0.03420  -0.01546   0.02425   0.03122   0.03370
 Alpha virt. eigenvalues --    0.04407   0.06599   0.08725   0.09173   0.09307
 Alpha virt. eigenvalues --    0.10112   0.10751   0.11316   0.12227   0.12628
 Alpha virt. eigenvalues --    0.12723   0.13266   0.13619   0.14625   0.15005
 Alpha virt. eigenvalues --    0.15521   0.15618   0.15910   0.16176   0.16782
 Alpha virt. eigenvalues --    0.17043   0.17612   0.18043   0.18563   0.19841
 Alpha virt. eigenvalues --    0.20245   0.20688   0.21344   0.22220   0.22912
 Alpha virt. eigenvalues --    0.23271   0.23539   0.23791   0.23801   0.24154
 Alpha virt. eigenvalues --    0.24371   0.25211   0.25221   0.25681   0.25739
 Alpha virt. eigenvalues --    0.26276   0.26503   0.26760   0.27434   0.27742
 Alpha virt. eigenvalues --    0.28441   0.28728   0.28891   0.28955   0.29374
 Alpha virt. eigenvalues --    0.29811   0.30052   0.30541   0.31254   0.31639
 Alpha virt. eigenvalues --    0.31936   0.32202   0.32413   0.32867   0.33241
 Alpha virt. eigenvalues --    0.33702   0.34547   0.34819   0.35230   0.35283
 Alpha virt. eigenvalues --    0.35761   0.36709   0.36871   0.37873   0.37975
 Alpha virt. eigenvalues --    0.38729   0.38937   0.39097   0.39457   0.39662
 Alpha virt. eigenvalues --    0.39959   0.40405   0.41216   0.41289   0.41759
 Alpha virt. eigenvalues --    0.42028   0.42341   0.42851   0.43006   0.43731
 Alpha virt. eigenvalues --    0.44135   0.44263   0.45001   0.45048   0.45107
 Alpha virt. eigenvalues --    0.45350   0.45715   0.45993   0.46830   0.47028
 Alpha virt. eigenvalues --    0.47071   0.47689   0.48550   0.48675   0.49191
 Alpha virt. eigenvalues --    0.49474   0.49725   0.50311   0.51055   0.51195
 Alpha virt. eigenvalues --    0.51482   0.52179   0.52388   0.52740   0.52752
 Alpha virt. eigenvalues --    0.53238   0.53770   0.54097   0.54105   0.54837
 Alpha virt. eigenvalues --    0.55191   0.55211   0.56054   0.56537   0.56957
 Alpha virt. eigenvalues --    0.57230   0.57429   0.58495   0.58724   0.60173
 Alpha virt. eigenvalues --    0.60474   0.61445   0.61974   0.62422   0.63085
 Alpha virt. eigenvalues --    0.63394   0.64562   0.64762   0.65550   0.66747
 Alpha virt. eigenvalues --    0.67348   0.67583   0.68140   0.69053   0.69422
 Alpha virt. eigenvalues --    0.69479   0.69915   0.70116   0.70590   0.70755
 Alpha virt. eigenvalues --    0.70867   0.71995   0.72294   0.72538   0.73031
 Alpha virt. eigenvalues --    0.73217   0.74404   0.74673   0.74843   0.74918
 Alpha virt. eigenvalues --    0.75421   0.75709   0.76019   0.76652   0.77124
 Alpha virt. eigenvalues --    0.77532   0.78015   0.78092   0.78481   0.79681
 Alpha virt. eigenvalues --    0.79944   0.80409   0.80436   0.81202   0.81960
 Alpha virt. eigenvalues --    0.82153   0.82856   0.83550   0.83926   0.84044
 Alpha virt. eigenvalues --    0.84542   0.85056   0.85661   0.86121   0.86439
 Alpha virt. eigenvalues --    0.86592   0.87405   0.88451   0.89432   0.89574
 Alpha virt. eigenvalues --    0.89708   0.90675   0.90975   0.91209   0.91970
 Alpha virt. eigenvalues --    0.92161   0.92784   0.93226   0.93261   0.93316
 Alpha virt. eigenvalues --    0.94689   0.95336   0.95785   0.95805   0.97447
 Alpha virt. eigenvalues --    0.97532   0.98390   0.99436   1.00363   1.00495
 Alpha virt. eigenvalues --    1.01297   1.02515   1.03320   1.04114   1.04617
 Alpha virt. eigenvalues --    1.06275   1.06500   1.06982   1.07859   1.08510
 Alpha virt. eigenvalues --    1.08724   1.08944   1.09396   1.10830   1.11527
 Alpha virt. eigenvalues --    1.13077   1.13524   1.14094   1.14370   1.14957
 Alpha virt. eigenvalues --    1.15638   1.16484   1.17637   1.18157   1.18797
 Alpha virt. eigenvalues --    1.19702   1.19973   1.20987   1.21585   1.22450
 Alpha virt. eigenvalues --    1.23835   1.24231   1.24638   1.25796   1.26359
 Alpha virt. eigenvalues --    1.26503   1.27983   1.28290   1.28954   1.29799
 Alpha virt. eigenvalues --    1.30135   1.30766   1.31192   1.31758   1.32164
 Alpha virt. eigenvalues --    1.32692   1.33070   1.34057   1.34541   1.35768
 Alpha virt. eigenvalues --    1.36347   1.37541   1.37947   1.38336   1.38657
 Alpha virt. eigenvalues --    1.39287   1.40930   1.42106   1.42210   1.42498
 Alpha virt. eigenvalues --    1.43040   1.44226   1.45089   1.45827   1.46172
 Alpha virt. eigenvalues --    1.46531   1.47488   1.47702   1.48920   1.49935
 Alpha virt. eigenvalues --    1.50514   1.50523   1.51805   1.52547   1.52811
 Alpha virt. eigenvalues --    1.53585   1.53789   1.54500   1.55188   1.55299
 Alpha virt. eigenvalues --    1.56008   1.56226   1.56734   1.57315   1.57706
 Alpha virt. eigenvalues --    1.58289   1.58519   1.59114   1.59629   1.60203
 Alpha virt. eigenvalues --    1.60213   1.61140   1.62722   1.62885   1.63687
 Alpha virt. eigenvalues --    1.64009   1.64731   1.65095   1.66133   1.67190
 Alpha virt. eigenvalues --    1.67199   1.67734   1.68457   1.68758   1.69609
 Alpha virt. eigenvalues --    1.69967   1.70825   1.72036   1.72252   1.72825
 Alpha virt. eigenvalues --    1.73928   1.74163   1.75094   1.75279   1.75611
 Alpha virt. eigenvalues --    1.76328   1.76654   1.77252   1.77644   1.78466
 Alpha virt. eigenvalues --    1.78773   1.80187   1.80375   1.80512   1.81282
 Alpha virt. eigenvalues --    1.82409   1.83045   1.83557   1.83730   1.85963
 Alpha virt. eigenvalues --    1.86037   1.87001   1.87590   1.89442   1.89530
 Alpha virt. eigenvalues --    1.91113   1.91517   1.92308   1.92504   1.93734
 Alpha virt. eigenvalues --    1.94277   1.95917   1.96520   1.97932   1.98396
 Alpha virt. eigenvalues --    1.98903   1.99821   2.00284   2.01342   2.02532
 Alpha virt. eigenvalues --    2.03774   2.03792   2.04947   2.05920   2.06168
 Alpha virt. eigenvalues --    2.06743   2.07012   2.07380   2.09379   2.10498
 Alpha virt. eigenvalues --    2.11101   2.11504   2.13514   2.14134   2.14636
 Alpha virt. eigenvalues --    2.16283   2.16633   2.16944   2.18053   2.18175
 Alpha virt. eigenvalues --    2.18509   2.18848   2.20346   2.21633   2.22124
 Alpha virt. eigenvalues --    2.22349   2.22688   2.23421   2.23575   2.24535
 Alpha virt. eigenvalues --    2.25357   2.25363   2.26793   2.28056   2.28254
 Alpha virt. eigenvalues --    2.28749   2.30917   2.30976   2.32061   2.32770
 Alpha virt. eigenvalues --    2.33354   2.33690   2.35329   2.36655   2.37101
 Alpha virt. eigenvalues --    2.37371   2.37737   2.39196   2.39919   2.40863
 Alpha virt. eigenvalues --    2.41663   2.43462   2.43488   2.44604   2.44891
 Alpha virt. eigenvalues --    2.47959   2.48460   2.49250   2.50314   2.52179
 Alpha virt. eigenvalues --    2.53218   2.53535   2.53968   2.55106   2.56077
 Alpha virt. eigenvalues --    2.56957   2.57015   2.57921   2.59595   2.59627
 Alpha virt. eigenvalues --    2.60367   2.60467   2.60645   2.61536   2.62067
 Alpha virt. eigenvalues --    2.64237   2.64346   2.66297   2.66456   2.66707
 Alpha virt. eigenvalues --    2.67348   2.67695   2.68958   2.69349   2.69915
 Alpha virt. eigenvalues --    2.70037   2.71036   2.71483   2.72426   2.72569
 Alpha virt. eigenvalues --    2.73204   2.73547   2.74088   2.74721   2.75018
 Alpha virt. eigenvalues --    2.75839   2.75980   2.77034   2.77149   2.77410
 Alpha virt. eigenvalues --    2.78131   2.78320   2.79739   2.80154   2.80345
 Alpha virt. eigenvalues --    2.81062   2.81164   2.82151   2.82341   2.82946
 Alpha virt. eigenvalues --    2.83380   2.83840   2.84305   2.86081   2.86514
 Alpha virt. eigenvalues --    2.86530   2.86930   2.87034   2.87111   2.88412
 Alpha virt. eigenvalues --    2.88704   2.89256   2.89619   2.89881   2.90978
 Alpha virt. eigenvalues --    2.91659   2.91797   2.92202   2.92283   2.93449
 Alpha virt. eigenvalues --    2.93961   2.94138   2.95237   2.95261   2.96162
 Alpha virt. eigenvalues --    2.96603   2.97168   2.97792   2.97968   2.98510
 Alpha virt. eigenvalues --    3.00042   3.00347   3.00497   3.01069   3.02799
 Alpha virt. eigenvalues --    3.03231   3.03630   3.04264   3.04578   3.05822
 Alpha virt. eigenvalues --    3.05985   3.06377   3.06621   3.07974   3.08232
 Alpha virt. eigenvalues --    3.09213   3.09501   3.10286   3.11441   3.11476
 Alpha virt. eigenvalues --    3.12857   3.13091   3.13238   3.15216   3.15639
 Alpha virt. eigenvalues --    3.16207   3.16429   3.16717   3.17377   3.17800
 Alpha virt. eigenvalues --    3.18436   3.18908   3.20214   3.20228   3.20857
 Alpha virt. eigenvalues --    3.21420   3.21563   3.22384   3.22905   3.24042
 Alpha virt. eigenvalues --    3.24337   3.24461   3.24685   3.24874   3.25866
 Alpha virt. eigenvalues --    3.26585   3.27000   3.27192   3.27788   3.28418
 Alpha virt. eigenvalues --    3.28571   3.28932   3.29868   3.30188   3.31307
 Alpha virt. eigenvalues --    3.32258   3.33048   3.33081   3.33833   3.34081
 Alpha virt. eigenvalues --    3.34272   3.34661   3.35650   3.36485   3.36625
 Alpha virt. eigenvalues --    3.37398   3.37703   3.38255   3.38310   3.39194
 Alpha virt. eigenvalues --    3.39652   3.39903   3.40111   3.41122   3.41439
 Alpha virt. eigenvalues --    3.42534   3.42734   3.43709   3.43714   3.44590
 Alpha virt. eigenvalues --    3.44853   3.45258   3.45988   3.46410   3.46970
 Alpha virt. eigenvalues --    3.47632   3.47824   3.48370   3.49169   3.49642
 Alpha virt. eigenvalues --    3.50286   3.50746   3.50874   3.51603   3.51942
 Alpha virt. eigenvalues --    3.52780   3.53085   3.53196   3.54405   3.54910
 Alpha virt. eigenvalues --    3.54981   3.55721   3.56600   3.56920   3.57575
 Alpha virt. eigenvalues --    3.57715   3.57819   3.58822   3.58965   3.59379
 Alpha virt. eigenvalues --    3.59913   3.60212   3.60715   3.61596   3.61646
 Alpha virt. eigenvalues --    3.62170   3.63527   3.64019   3.64524   3.65463
 Alpha virt. eigenvalues --    3.65469   3.67481   3.68544   3.68734   3.69102
 Alpha virt. eigenvalues --    3.71029   3.71350   3.71820   3.72951   3.73323
[...]
     6  C   -0.007759   0.000312   0.000313  -0.000041   0.000031  -0.000041
     7  C   -0.025314   0.000990   0.000991  -0.000050  -0.000073  -0.000050
     8  C    0.277499  -0.110274  -0.110248  -0.011032  -0.006016  -0.011027
     9  C   -0.160682   0.007569   0.007551  -0.002945   0.002926  -0.002947
    10  C    0.054640  -0.001951  -0.001965   0.000000   0.000072  -0.000000
    11  C   -0.004254   0.000105   0.000104  -0.000019  -0.000007  -0.000019
    12  C    0.002718  -0.000121  -0.000121   0.000019   0.000008   0.000019
    13  C   -0.160931   0.003993   0.004011  -0.000482  -0.000560  -0.000482
    14  H    0.000236  -0.000005  -0.000005   0.000000  -0.000001   0.000000
    15  H    0.000008   0.000001   0.000001  -0.000000   0.000000  -0.000000
    16  H    0.000046  -0.000002  -0.000002   0.000000  -0.000000   0.000000
    17  H   -0.001455  -0.003879  -0.003880   0.000414  -0.000008   0.000414
    18  H    0.000061  -0.000002  -0.000002   0.000007   0.000002   0.000007
    19  C    5.847068   0.369871   0.369843  -0.012266  -0.053246  -0.012259
    20  C    0.369871   5.156648  -0.036137   0.437971   0.448744  -0.034732
    21  C    0.369843  -0.036137   5.156665  -0.034727   0.011402   0.437956
    22  C   -0.012266   0.437971  -0.034727   5.065076  -0.052565  -0.027508
    23  H   -0.053246   0.448744   0.011402  -0.052565   0.487385  -0.003237
    24  C   -0.012259  -0.034732   0.437956  -0.027508  -0.003237   5.065092
    25  H   -0.053244   0.011402   0.448745  -0.003237  -0.000104  -0.052564
    26  C   -0.079537  -0.019641  -0.019640   0.420799   0.009262   0.420793
    27  H    0.010604  -0.050097  -0.003002   0.443993  -0.005840   0.009017
    28  H    0.010603  -0.003002  -0.050097   0.009017   0.000033   0.443992
    29  H   -0.001268   0.006370   0.006370  -0.043323  -0.000129  -0.043323
    30  O   -0.047025   0.006088   0.006096   0.004495  -0.000681   0.004493
    31  O   -0.004072  -0.000200  -0.000199   0.000001   0.000027   0.000001
    32  C   -0.000450   0.000004   0.000004  -0.000000  -0.000001  -0.000000
    33  C    0.000347  -0.000005  -0.000005   0.000001   0.000000   0.000001
    34  C   -0.000013   0.000000   0.000000  -0.000000  -0.000000  -0.000000
    35  C    0.000023  -0.000000  -0.000000   0.000000   0.000000   0.000000
    36  H    0.000000  -0.000000  -0.000000   0.000000   0.000000   0.000000
    37  H    0.000001  -0.000000  -0.000000  -0.000000   0.000000  -0.000000
    38  H    0.000014  -0.000000  -0.000000   0.000000   0.000000   0.000000
    39  O   -0.000000   0.000000   0.000000   0.000000   0.000000   0.000000
    40  C    0.000000  -0.000000  -0.000000   0.000000   0.000000   0.000000
    41  H   -0.000000  -0.000000   0.000000  -0.000000   0.000000   0.000000
    42  H   -0.000000   0.000000   0.000000   0.000000  -0.000000   0.000000
    43  H   -0.000000   0.000000  -0.000000   0.000000  -0.000000  -0.000000
              25         26         27         28         29         30
     1  C   -0.000012  -0.000002   0.000000   0.000000   0.000000  -0.000002
     2  C    0.000019   0.000002  -0.000000  -0.000000  -0.000000   0.000005
     3  C    0.000172  -0.000103  -0.000001  -0.000001   0.000000  -0.001403
     4  C    0.003182   0.000526  -0.000058  -0.000058   0.000011   0.006868
     5  C   -0.000464   0.000374   0.000011   0.000011  -0.000009   0.000206
     6  C    0.000031   0.000013  -0.000002  -0.000002  -0.000000   0.000011
     7  C   -0.000073   0.000015  -0.000000  -0.000000  -0.000000   0.002930
     8  C   -0.006020   0.006140  -0.000484  -0.000484   0.000075  -0.035784
     9  C    0.002925   0.001077  -0.000046  -0.000046   0.000003  -0.185862
    10  C    0.000073  -0.000016   0.000000   0.000000   0.000001  -0.004149
    11  C   -0.000007   0.000002  -0.000000  -0.000000   0.000000  -0.003033
    12  C    0.000008  -0.000006   0.000000   0.000000  -0.000000  -0.001946
    13  C   -0.000561   0.000631  -0.000002  -0.000002  -0.000008   0.860183
    14  H   -0.000001  -0.000000   0.000000   0.000000  -0.000000   0.000010
    15  H    0.000000  -0.000000   0.000000   0.000000   0.000000  -0.000000
    16  H   -0.000000  -0.000000  -0.000000  -0.000000   0.000000   0.000000
    17  H   -0.000008   0.000035   0.000000   0.000000   0.000004   0.000014
    18  H    0.000002  -0.000001   0.000000   0.000000  -0.000000   0.000000
    19  C   -0.053244  -0.079537   0.010604   0.010603  -0.001268  -0.047025
    20  C    0.011402  -0.019641  -0.050097  -0.003002   0.006370   0.006088
    21  C    0.448745  -0.019640  -0.003002  -0.050097   0.006370   0.006096
    22  C   -0.003237   0.420799   0.443993   0.009017  -0.043323   0.004495
    23  H   -0.000104   0.009262  -0.005840   0.000033  -0.000129  -0.000681
    24  C   -0.052564   0.420793   0.009017   0.443992  -0.043323   0.004493
    25  H    0.487384   0.009262   0.000033  -0.005840  -0.000129  -0.000680
    26  C    0.009262   5.056485  -0.047205  -0.047204   0.437783  -0.002299
    27  H    0.000033  -0.047205   0.486267  -0.000107  -0.005241   0.000082
    28  H   -0.005840  -0.047204  -0.000107   0.486267  -0.005240   0.000082
    29  H   -0.000129   0.437783  -0.005241  -0.005240   0.484106  -0.000017
    30  O   -0.000680  -0.002299   0.000082   0.000082  -0.000017   7.805944
    31  O    0.000027   0.000005   0.000000   0.000000  -0.000000  -0.105425
    32  C   -0.000001   0.000000  -0.000000  -0.000000   0.000000   0.000400
    33  C    0.000000  -0.000000   0.000000   0.000000  -0.000000  -0.000176
    34  C   -0.000000   0.000000  -0.000000  -0.000000   0.000000   0.000036
    35  C    0.000000  -0.000000   0.000000   0.000000  -0.000000  -0.000035
    36  H    0.000000  -0.000000   0.000000   0.000000   0.000000  -0.000000
    37  H    0.000000   0.000000  -0.000000  -0.000000   0.000000   0.000002
    38  H    0.000000  -0.000000   0.000000   0.000000   0.000000  -0.000093
    39  O    0.000000  -0.000000   0.000000   0.000000   0.000000  -0.000000
    40  C    0.000000  -0.000000   0.000000   0.000000   0.000000   0.000000
    41  H   -0.000000   0.000000   0.000000  -0.000000  -0.000000  -0.000000
    42  H   -0.000000  -0.000000  -0.000000  -0.000000   0.000000  -0.000000
    43  H    0.000000   0.000000  -0.000000   0.000000  -0.000000  -0.000000
              31         32         33         34         35         36
     1  C   -0.000001  -0.000033   0.000000  -0.000000  -0.000000   0.000000
     2  C    0.000004   0.000248  -0.000006   0.000001  -0.000010   0.000000
     3  C   -0.000711  -0.000836   0.000416   0.000098  -0.001014   0.000011
     4  C    0.001426   0.002315  -0.000317   0.000022  -0.000046  -0.000001
     5  C    0.000020  -0.000021  -0.000002   0.000000  -0.000001  -0.000000
     6  C    0.000001   0.000011  -0.000000   0.000000  -0.000000  -0.000000
     7  C    0.001768  -0.001264   0.000222  -0.001023  -0.000417   0.000200
     8  C   -0.003889  -0.010272   0.002892  -0.000526   0.000989   0.000005
     9  C   -0.188825   0.012833   0.036838  -0.003373   0.004291  -0.000011
    10  C   -0.013821  -0.096118  -0.012595   0.005837  -0.012064  -0.000527
    11  C   -0.091024   0.101016   0.148823  -0.185136   0.146703   0.016422
    12  C    0.264868   0.092857   0.259790   0.054223  -0.144685  -0.001987
    13  C    0.494130   0.030393  -0.040785   0.002837  -0.003807  -0.000020
    14  H   -0.000023   0.009590  -0.000054  -0.000036   0.000562   0.000004
    15  H   -0.000000  -0.000000   0.000000  -0.000000  -0.000000   0.000000
    16  H   -0.000000   0.000084  -0.000000   0.000001  -0.000005  -0.000000
    17  H    0.000000   0.000001  -0.000000   0.000000  -0.000000  -0.000000
    18  H    0.000000   0.000000  -0.000000   0.000000   0.000000  -0.000000
    19  C   -0.004072  -0.000450   0.000347  -0.000013   0.000023   0.000000
    20  C   -0.000200   0.000004  -0.000005   0.000000  -0.000000  -0.000000
    21  C   -0.000199   0.000004  -0.000005   0.000000  -0.000000  -0.000000
    22  C    0.000001  -0.000000   0.000001  -0.000000   0.000000   0.000000
    23  H    0.000027  -0.000001   0.000000  -0.000000   0.000000   0.000000
    24  C    0.000001  -0.000000   0.000001  -0.000000   0.000000   0.000000
    25  H    0.000027  -0.000001   0.000000  -0.000000   0.000000   0.000000
    26  C    0.000005   0.000000  -0.000000   0.000000  -0.000000  -0.000000
    27  H    0.000000  -0.000000   0.000000  -0.000000   0.000000   0.000000
    28  H    0.000000  -0.000000   0.000000  -0.000000   0.000000   0.000000
    29  H   -0.000000   0.000000  -0.000000   0.000000  -0.000000   0.000000
    30  O   -0.105425   0.000400  -0.000176   0.000036  -0.000035  -0.000000
    31  O    7.848637   0.008929  -0.019766   0.002735   0.000200   0.000012
    32  C    0.008929   5.663628  -0.236302   0.299810   0.022610  -0.049629
    33  C   -0.019766  -0.236302   5.393440   0.254387   0.168921   0.008854
    34  C    0.002735   0.299810   0.254387   5.103714  -0.063239  -0.067813
    35  C    0.000200   0.022610   0.168921  -0.063239   5.802341   0.463304
    36  H    0.000012  -0.049629   0.008854  -0.067813   0.463304   0.460914
    37  H   -0.000049   0.406912  -0.000648   0.003952  -0.030063  -0.004172
    38  H    0.007495  -0.014670   0.475025  -0.085168   0.030348   0.000264
    39  O   -0.000013   0.019120  -0.079218   0.440701  -0.116191  -0.010585
    40  C    0.000012  -0.011367   0.011002  -0.092497   0.003169   0.006384
    41  H    0.000000  -0.002103   0.001842  -0.012040   0.008460   0.001894
    42  H   -0.000000   0.000653  -0.001454   0.003241  -0.001474  -0.000597
    43  H    0.000000  -0.002106   0.001844  -0.012034   0.008458   0.001893
              37         38         39         40         41         42
     1  C   -0.000005   0.000000  -0.000000   0.000000   0.000000  -0.000000
     2  C    0.000029   0.000000  -0.000000   0.000000  -0.000000  -0.000000
     3  C    0.002210   0.000002   0.000000  -0.000000  -0.000000   0.000000
     4  C    0.000271  -0.000005   0.000000  -0.000000   0.000000  -0.000000
     5  C   -0.000006  -0.000000   0.000000  -0.000000   0.000000  -0.000000
     6  C    0.000001  -0.000000  -0.000000   0.000000   0.000000  -0.000000
     7  C    0.013522   0.000040  -0.000013   0.000004   0.000001   0.000000
     8  C   -0.000248   0.000086  -0.000000   0.000000   0.000000  -0.000000
     9  C   -0.001317   0.002181  -0.000008   0.000002  -0.000000  -0.000000
    10  C   -0.018988  -0.000859   0.000113  -0.000024  -0.000003   0.000000
    11  C   -0.016594   0.025661  -0.004889   0.002972   0.000220  -0.000096
    12  C    0.005542  -0.085213   0.005543  -0.003306  -0.000174   0.000163
    13  C    0.000157  -0.001828   0.000011  -0.000004   0.000000   0.000000
    14  H    0.010152   0.000002  -0.000001   0.000002   0.000000  -0.000000
    15  H    0.000000   0.000000   0.000000  -0.000000  -0.000000   0.000000
    16  H    0.000083  -0.000000   0.000000   0.000000  -0.000000   0.000000
    17  H    0.000000  -0.000000   0.000000  -0.000000  -0.000000   0.000000
    18  H   -0.000000  -0.000000   0.000000  -0.000000   0.000000  -0.000000
    19  C    0.000001   0.000014  -0.000000   0.000000  -0.000000  -0.000000
    20  C   -0.000000  -0.000000   0.000000  -0.000000  -0.000000   0.000000
    21  C   -0.000000  -0.000000   0.000000  -0.000000   0.000000   0.000000
    22  C   -0.000000   0.000000   0.000000   0.000000  -0.000000   0.000000
    23  H    0.000000   0.000000   0.000000   0.000000   0.000000  -0.000000
    24  C   -0.000000   0.000000   0.000000   0.000000   0.000000   0.000000
    25  H    0.000000   0.000000   0.000000   0.000000  -0.000000  -0.000000
    26  C    0.000000  -0.000000  -0.000000  -0.000000   0.000000  -0.000000
    27  H   -0.000000   0.000000   0.000000   0.000000   0.000000  -0.000000
    28  H   -0.000000   0.000000   0.000000   0.000000  -0.000000  -0.000000
    29  H    0.000000   0.000000   0.000000   0.000000  -0.000000   0.000000
    30  O    0.000002  -0.000093  -0.000000   0.000000  -0.000000  -0.000000
    31  O   -0.000049   0.007495  -0.000013   0.000012   0.000000  -0.000000
    32  C    0.406912  -0.014670   0.019120  -0.011367  -0.002103   0.000653
    33  C   -0.000648   0.475025  -0.079218   0.011002   0.001842  -0.001454
    34  C    0.003952  -0.085168   0.440701  -0.092497  -0.012040   0.003241
    35  C   -0.030063   0.030348  -0.116191   0.003169   0.008460  -0.001474
    36  H   -0.004172   0.000264  -0.010585   0.006384   0.001894  -0.000597
    37  H    0.452495  -0.000006   0.000048  -0.000141  -0.000034   0.000003
    38  H   -0.000006   0.483798   0.008138   0.000003   0.000134  -0.000250
    39  O    0.000048   0.008138   7.896554   0.227021  -0.042997  -0.027477
    40  C   -0.000141   0.000003   0.227021   4.872746   0.416149   0.402775
    41  H   -0.000034   0.000134  -0.042997   0.416149   0.545043  -0.020159
    42  H    0.000003  -0.000250  -0.027477   0.402775  -0.020159   0.500402
    43  H   -0.000034   0.000134  -0.043000   0.416150  -0.048517  -0.020157
              43
     1  C    0.000000
     2  C   -0.000000
     3  C   -0.000000
     4  C    0.000000
     5  C    0.000000
     6  C    0.000000
     7  C    0.000001
     8  C    0.000000
     9  C   -0.000000
    10  C   -0.000003
    11  C    0.000220
    12  C   -0.000174
    13  C    0.000000
    14  H    0.000000
    15  H   -0.000000
    16  H   -0.000000
    17  H   -0.000000
    18  H    0.000000
    19  C   -0.000000
    20  C    0.000000
    21  C   -0.000000
    22  C    0.000000
    23  H   -0.000000
    24  C   -0.000000
    25  H    0.000000
    26  C    0.000000
    27  H   -0.000000
    28  H    0.000000
    29  H   -0.000000
    30  O   -0.000000
    31  O    0.000000
    32  C   -0.002106
    33  C    0.001844
    34  C   -0.012034
    35  C    0.008458
    36  H    0.001893
    37  H   -0.000034
    38  H    0.000134
    39  O   -0.043000
    40  C    0.416150
    41  H   -0.048517
    42  H   -0.020157
    43  H    0.545040
 Mulliken charges:
               1
     1  C   -0.137742
     2  C   -0.226433
     3  C    0.096825
     4  C    0.029056
     5  C   -0.205083
     6  C   -0.178797
     7  C   -0.305117
     8  C    0.195310
     9  C   -0.144220
    10  C    0.126516
    11  C    0.040874
    12  C    0.253284
    13  C    0.334658
    14  H    0.163891
    15  H    0.168276
    16  H    0.162089
    17  H    0.190292
    18  H    0.167251
    19  C   -0.003498
    20  C   -0.195070
    21  C   -0.195080
    22  C   -0.190981
    23  H    0.159679
    24  C   -0.190981
    25  H    0.159679
    26  C   -0.147553
    27  H    0.162076
    28  H    0.162075
    29  H    0.163964
    30  O   -0.309335
    31  O   -0.202280
    32  C   -0.246247
    33  C   -0.373312
    34  C    0.351304
    35  C   -0.287329
    36  H    0.175180
    37  H    0.176924
    38  H    0.154768
    39  O   -0.272858
    40  C   -0.251053
    41  H    0.152284
    42  H    0.164428
    43  H    0.152285
 Sum of Mulliken charges =  -0.00000
 Mulliken charges with hydrogens summed into heavy atoms:
               1
     1  C    0.030534
     2  C   -0.064344
     3  C    0.096825
     4  C    0.029056
     5  C   -0.014792
     6  C   -0.011546
     7  C   -0.141226
     8  C    0.195310
     9  C   -0.144220
    10  C    0.126516
    11  C    0.040874
    12  C    0.253284
    13  C    0.334658
    19  C   -0.003498
    20  C   -0.035392
    21  C   -0.035402
    22  C   -0.028905
    24  C   -0.028906
    26  C    0.016411
    30  O   -0.309335
    31  O   -0.202280
    32  C   -0.069323
    33  C   -0.218544
    34  C    0.351304
    35  C   -0.112149
    39  O   -0.272858
    40  C    0.217944
 Electronic spatial extent (au):  <R**2>=          11153.6269
 Charge=             -0.0000 electrons
 Dipole moment (field-independent basis, Debye):
    X=              2.9782    Y=              7.6092    Z=              0.0001  Tot=              8.1713
 Quadrupole moment (field-independent basis, Debye-Ang):
   XX=           -111.1533   YY=           -151.5723   ZZ=           -154.2645
   XY=              9.6370   XZ=             -0.0035   YZ=             -0.0011
 Traceless Quadrupole moment (field-independent basis, Debye-Ang):
   XX=             27.8434   YY=            -12.5756   ZZ=            -15.2678
   XY=              9.6370   XZ=             -0.0035   YZ=             -0.0011
 Octapole moment (field-independent basis, Debye-Ang**2):
  XXX=            237.6466  YYY=             98.4225  ZZZ=             -0.0058  XYY=            -11.9060
  XXY=             44.0527  XXZ=             -0.0216  XZZ=             -5.1778  YZZ=            -29.0697
  YYZ=              0.0176  XYZ=             -0.0053
 Hexadecapole moment (field-independent basis, Debye-Ang**3):
 XXXX=          -8701.5557 YYYY=          -3586.9048 ZZZZ=           -406.9479 XXXY=            371.6672
 XXXZ=              0.1539 YYYX=           -107.5588 YYYZ=             -0.1053 ZZZX=              0.3169
 ZZZY=             -0.1515 XXYY=          -2211.1604 XXZZ=          -1910.6687 YYZZ=           -736.8360
 XXYZ=             -0.0294 YYXZ=              0.0421 ZZXY=             63.2708
 N-N= 2.258191409593D+03 E-N=-7.194955912632D+03  KE= 1.145013896963D+03
 Leave Link  601 at Thu Feb 25 09:12:48 2021, MaxMem=  5242880000 cpu:         6.2
 (Enter /opt/nce/packages/global/g09/l9999.exe)
 1\1\GINC-CN027\SP\RCAM-B3LYP TD-FC\Gen\C24H16O3\PNG4RJV\25-Feb-2021\0\
 \#p cam-b3lyp chkbasis geom=allcheck Guess=Read int=ultrafine scrf=(SM
 D,solvent=Acetonitrile) td=(NStates=30) EmpiricalDispersion=GD3BJ\\Tit
 le\\0,1\C,0,2.8007901487,4.1021663214,-0.000756251\C,0,1.4788179474,3.
 7804038216,-0.0005969437\C,0,1.0649094029,2.4257025044,-0.0004251497\C
 ,0,2.0416199831,1.3997578227,-0.0004155256\C,0,3.4108689713,1.77291857
 13,-0.0005857341\C,0,3.7780789766,3.0842570021,-0.0007517448\C,0,-0.29
 52216739,2.0876324686,-0.0002819904\C,0,1.6231599698,0.0433470455,-0.0
 002455044\C,0,0.2706398221,-0.2554550605,-0.000105108\C,0,-0.709109689
 ,0.7831383506,-0.0001356681\C,0,-2.1237487717,0.4180959532,-0.00003705
 13\C,0,-2.466747098,-0.926860552,-0.0000485702\C,0,-0.1736028022,-1.66
 40836959,0.000098301\H,0,-1.0126738515,2.895430392,-0.0003105476\H,0,3
 .1091587291,5.139547139,-0.0008892215\H,0,0.7191935217,4.5519684301,-0
 .0006017207\H,0,4.1695899443,1.0047328097,-0.0005859451\H,0,4.82676378
 89,3.3508467567,-0.0008836181\C,0,2.6899461024,-0.9950933242,-0.000238
 5833\C,0,3.2193064783,-1.4544033754,-1.1979552522\C,0,3.2196342464,-1.
 4540601576,1.1974656632\C,0,4.2497283529,-2.3795501981,-1.19841698\H,0
 ,2.8184569321,-1.0889090831,-2.1349517215\C,0,4.2500535721,-2.37920730
 07,1.1979101175\H,0,2.8190398567,-1.0882992081,2.1344670145\C,0,4.7662
 92695,-2.8475334045,-0.0002573221\H,0,4.6518353816,-2.7346851397,-2.13
 86646611\H,0,4.6524152714,-2.7340767608,2.1381491225\H,0,5.5723160669,
 -3.5699270684,-0.000263292\O,0,0.53406192,-2.6339153903,0.0001057088\O
 ,0,-1.5103604683,-1.904653476,-0.0000879519\C,0,-3.1798136581,1.327609
 8362,0.0000336428\C,0,-3.7717663549,-1.3689295968,-0.0000106528\C,0,-4
 .8005092468,-0.4392866121,0.0000578595\C,0,-4.4981666148,0.9223708541,
 0.0000840954\H,0,-5.2810157097,1.664790334,0.0001404911\H,0,-2.9764486
 648,2.3886245745,0.0000516602\H,0,-3.9887504436,-2.4280483153,-0.00002
 14301\O,0,-6.0521529789,-0.9371714509,0.0000947924\C,0,-7.1444110042,-
 0.0279957108,0.0002330062\H,0,-7.1346618947,0.6008104191,-0.8920986873
 \H,0,-8.0421035774,-0.6405396048,0.0002792092\H,0,-7.1345085792,0.6007
 220791,0.892625144\\Version=ES64L-G09RevE.01\State=1-A\HF=-1149.797078
 1\RMSD=6.599e-09\PG=C01 [X(C24H16O3)]\\@


 EDUCATION DOESN'T COST 
           ... IT PAYS!

 -- POSTMARK, UNIV. OF MISSISSIPPI, DEC 78
 Job cpu time:       1 days 10 hours 32 minutes 37.8 seconds.
 File lengths (MBytes):  RWF=   4326 Int=      0 D2E=      0 Chk=    780 Scr=      1
 Normal termination of Gaussian 09 at Thu Feb 25 09:12:53 2021.
