 Entering Gaussian System, Link 0=g09
 Input=/home/png4rjv/fotokatalizis/benchmark/OPCs/NCE_2_wB97XD_def2TZVP.gjf
 Output=/home/png4rjv/fotokatalizis/benchmark/OPCs/NCE_2_wB97XD_def2TZVP.log
 Initial command:
 /opt/nce/packages/global/g09/l1.exe "/home/png4rjv/fotokatalizis/benchmark/OPCs/NCE_2_wB97XD_def2TZVP/Gau-60221.inp" -scrdir="/home/png4rjv/fotokatalizis/benchmark/OPCs/NCE_2_wB97XD_def2TZVP/"
 Default is to use a total of  12 processors:
                               12 via shared-memory
                                1 via Linda
 Entering Link 1 = /opt/nce/packages/global/g09/l1.exe PID=     60222.
  
 Copyright (c) 1988,1990,1992,1993,1995,1998,2003,2009,2015,
            Gaussian, Inc.  All Rights Reserved.
  
 This is part of the Gaussian(R) 09 program.  It is based on
 the Gaussian(R) 03 system (copyright 2003, Gaussian, Inc.),
 the Gaussian(R) 98 system (copyright 1998, Gaussian, Inc.),
 the Gaussian(R) 94 system (copyright 1995, Gaussian, Inc.),
 the Gaussian 92(TM) system (copyright 1992, Gaussian, Inc.),
 the Gaussian 90(TM) system (copyright 1990, Gaussian, Inc.),
 the Gaussian 88(TM) system (copyright 1988, Gaussian, Inc.),
 the Gaussian 86(TM) system (copyright 1986, Carnegie Mellon
 University), and the Gaussian 82(TM) system (copyright 1983,
 Carnegie Mellon University). Gaussian is a federally registered
 trademark of Gaussian, Inc.
  
 This software contains proprietary and confidential information,
 including trade secrets, belonging to Gaussian, Inc.
  
 This software is provided under written license and may be
 used, copied, transmitted, or stored only in accord with that
 written license.
  
 The following legend is applicable only to US Government
 contracts under FAR:
  
                    RESTRICTED RIGHTS LEGEND
  
 Use, reproduction and disclosure by the US Government is
 subject to restrictions as set forth in subparagraphs (a)
 and (c) of the Commercial Computer Software - Restricted
 Rights clause in FAR 52.227-19.
  
 Gaussian, Inc.
 340 Quinnipiac St., Bldg. 40, Wallingford CT 06492
  
  
 ---------------------------------------------------------------
 Warning -- This program may not be used in any manner that
 competes with the business of Gaussian, Inc. or will provide
 assistance to any competitor of Gaussian, Inc.  The licensee
 of this program is prohibited from giving any competitor of
 Gaussian, Inc. access to this program.  By using this program,
 the user acknowledges that Gaussian, Inc. is engaged in the
 business of creating and licensing software in the field of
 computational chemistry and represents and warrants to the
 licensee that it is not a competitor of Gaussian, Inc. and that
 it will not use this program in any manner prohibited above.
 ---------------------------------------------------------------
  

 Cite this work as:
 Gaussian 09, Revision E.01,
 M. J. Frisch, G. W. Trucks, H. B. Schlegel, G. E. Scuseria, 
 M. A. Robb, J. R. Cheeseman, G. Scalmani, V. Barone, B. Mennucci, 
 G. A. Petersson, H. Nakatsuji, M. Caricato, X. Li, H. P. Hratchian, 
 A. F. Izmaylov, J. Bloino, G. Zheng, J. L. Sonnenberg, M. Hada, 
 M. Ehara, K. Toyota, R. Fukuda, J. Hasegawa, M. Ishida, T. Nakajima, 
 Y. Honda, O. Kitao, H. Nakai, T. Vreven, J. A. Montgomery, Jr., 
 J. E. Peralta, F. Ogliaro, M. Bearpark, J. J. Heyd, E. Brothers, 
 K. N. Kudin, V. N. Staroverov, T. Keith, R. Kobayashi, J. Normand, 
 K. Raghavachari, A. Rendell, J. C. Burant, S. S. Iyengar, J. Tomasi, 
 M. Cossi, N. Rega, J. M. Millam, M. Klene, J. E. Knox, J. B. Cross, 
 V. Bakken, C. Adamo, J. Jaramillo, R. Gomperts, R. E. Stratmann, 
 O. Yazyev, A. J. Austin, R. Cammi, C. Pomelli, J. W. Ochterski, 
 R. L. Martin, K. Morokuma, V. G. Zakrzewski, G. A. Voth, 
 P. Salvador, J. J. Dannenberg, S. Dapprich, A. D. Daniels, 
 O. Farkas, J. B. Foresman, J. V. Ortiz, J. Cioslowski, 
 and D. J. Fox, Gaussian, Inc., Wallingford CT, 2013.
 
 ******************************************
 Gaussian 09:  ES64L-G09RevE.01 30-Nov-2015
                 1-Apr-2021 
 ******************************************
 %chk=cp.chk
 Default route:  MaxDisk=500GB
 ----------------------------------------------------------------------
 #p wB97XD/def2TZVP opt freq=noraman nosymm int=ultrafine scrf=(SMD,sol
 vent=Acetonitrile)
 ----------------------------------------------------------------------
 1/14=-1,18=20,19=15,26=4,38=1/1,3;
 2/9=110,12=2,15=1,17=6,18=5,40=1/2;
 3/5=44,7=101,11=2,16=1,25=1,30=1,70=32201,71=1,72=2,74=-58,75=-5/1,2,3;
 4//1;
 5/5=2,38=5,53=2/2;
 6/7=2,8=2,9=2,10=2,28=1/1;
 7/30=1/1,2,3,16;
 1/14=-1,18=20,19=15,26=4/3(2);
 2/9=110,15=1/2;
 99//99;
 2/9=110,15=1/2;
 3/5=44,7=101,11=2,16=1,25=1,30=1,70=32205,71=1,72=2,74=-58,75=-5/1,2,3;
 4/5=5,16=3,69=1/1;
 5/5=2,38=5,53=2/2;
 7/30=1/1,2,3,16;
 1/14=-1,18=20,19=15,26=4/3(-5);
 2/9=110,15=1/2;
 6/7=2,8=2,9=2,10=2,19=2,28=1/1;
 99/9=1/99;
 Leave Link    1 at Thu Apr  1 22:50:49 2021, MaxMem=           0 cpu:         3.1
 (Enter /opt/nce/packages/global/g09/l101.exe)
 -----
 Title
 -----
 Symbolic Z-matrix:
 Charge =  0 Multiplicity = 1
 C                     2.83616   4.13801  -0.00033 
 C                     1.49763   3.81804   0.00012 
 C                     1.07276   2.45851   0.00022 
 C                     2.0598    1.41738  -0.00006 
 C                     3.43724   1.78662  -0.00061 
 C                     3.81502   3.1112   -0.00072 
 C                    -0.29513   2.11384   0.00046 
 C                     1.63681   0.05151   0.0002 
 C                     0.27058  -0.25183   0.0006 
 C                    -0.7164    0.79433   0.00053 
 C                    -2.13316   0.42437   0.0004 
 C                    -2.47319  -0.94145   0.00062 
 C                    -0.16267  -1.67545   0.00151 
 H                    -1.02483   2.92411   0.00054 
 H                     3.14956   5.18473  -0.0004 
 H                     0.73785   4.60362   0.00037 
 H                     4.19266   1.00132  -0.00094 
 H                     4.87503   3.37484  -0.00115 
 C                     2.70205  -0.99602  -0.00017 
 C                     3.23085  -1.46704  -1.20878 
 C                     3.23371  -1.46508   1.20795 
 C                     4.26466  -2.40486  -1.20911 
 H                     2.82116  -1.0996   -2.15239 
 C                     4.2675   -2.40292   1.20735 
 H                     2.82625  -1.09611   2.15193 
 C                     4.78476  -2.87724  -0.00111 
 H                     4.66474  -2.77008  -2.15812 
 H                     4.66981  -2.76664   2.156 
 H                     5.5926   -3.61287  -0.00147 
 O                     0.55535  -2.63793   0.00252 
 O                    -1.51825  -1.91301   0.00107 
 C                    -3.19978   1.33921  -0.00011 
 C                    -3.79389  -1.37958   0.00024 
 C                    -4.83444  -0.44423  -0.00027 
 C                    -4.52977   0.93083  -0.00032 
 H                    -5.31779   1.68215  -0.00064 
 H                    -2.99023   2.40933  -0.00025 
 H                    -4.01342  -2.44676   0.00034 
 O                    -6.0894   -0.94671  -0.00064 
 C                    -7.18604  -0.05988  -0.00098 
 H                    -7.19223   0.58279  -0.89926 
 H                    -8.09033  -0.68218  -0.00115 
 H                    -7.19267   0.58293   0.89719 
 
 NAtoms=     43 NQM=       43 NQMF=       0 NMMI=      0 NMMIF=      0
                NMic=       0 NMicF=      0.
                    Isotopes and Nuclear Properties:
 (Nuclear quadrupole moments (NQMom) in fm**2, nuclear magnetic moments (NMagM)
  in nuclear magnetons)

  Atom         1           2           3           4           5           6           7           8           9          10
 IAtWgt=          12          12          12          12          12          12          12          12          12          12
 AtmWgt=  12.0000000  12.0000000  12.0000000  12.0000000  12.0000000  12.0000000  12.0000000  12.0000000  12.0000000  12.0000000
 NucSpn=           0           0           0           0           0           0           0           0           0           0
 AtZEff=   0.0000000   0.0000000   0.0000000   0.0000000   0.0000000   0.0000000   0.0000000   0.0000000   0.0000000   0.0000000
 NQMom=    0.0000000   0.0000000   0.0000000   0.0000000   0.0000000   0.0000000   0.0000000   0.0000000   0.0000000   0.0000000
 NMagM=    0.0000000   0.0000000   0.0000000   0.0000000   0.0000000   0.0000000   0.0000000   0.0000000   0.0000000   0.0000000
 AtZNuc=   6.0000000   6.0000000   6.0000000   6.0000000   6.0000000   6.0000000   6.0000000   6.0000000   6.0000000   6.0000000

  Atom        11          12          13          14          15          16          17          18          19          20
 IAtWgt=          12          12          12           1           1           1           1           1          12          12
 AtmWgt=  12.0000000  12.0000000  12.0000000   1.0078250   1.0078250   1.0078250   1.0078250   1.0078250  12.0000000  12.0000000
 NucSpn=           0           0           0           1           1           1           1           1           0           0
 AtZEff=   0.0000000   0.0000000   0.0000000   0.0000000   0.0000000   0.0000000   0.0000000   0.0000000   0.0000000   0.0000000
 NQMom=    0.0000000   0.0000000   0.0000000   0.0000000   0.0000000   0.0000000   0.0000000   0.0000000   0.0000000   0.0000000
 NMagM=    0.0000000   0.0000000   0.0000000   2.7928460   2.7928460   2.7928460   2.7928460   2.7928460   0.0000000   0.0000000
 AtZNuc=   6.0000000   6.0000000   6.0000000   1.0000000   1.0000000   1.0000000   1.0000000   1.0000000   6.0000000   6.0000000

  Atom        21          22          23          24          25          26          27          28          29          30
 IAtWgt=          12          12           1          12           1          12           1           1           1          16
 AtmWgt=  12.0000000  12.0000000   1.0078250  12.0000000   1.0078250  12.0000000   1.0078250   1.0078250   1.0078250  15.9949146
 NucSpn=           0           0           1           0           1           0           1           1           1           0
 AtZEff=   0.0000000   0.0000000   0.0000000   0.0000000   0.0000000   0.0000000   0.0000000   0.0000000   0.0000000   0.0000000
 NQMom=    0.0000000   0.0000000   0.0000000   0.0000000   0.0000000   0.0000000   0.0000000   0.0000000   0.0000000   0.0000000
 NMagM=    0.0000000   0.0000000   2.7928460   0.0000000   2.7928460   0.0000000   2.7928460   2.7928460   2.7928460   0.0000000
 AtZNuc=   6.0000000   6.0000000   1.0000000   6.0000000   1.0000000   6.0000000   1.0000000   1.0000000   1.0000000   8.0000000

  Atom        31          32          33          34          35          36          37          38          39          40
 IAtWgt=          16          12          12          12          12           1           1           1          16          12
 AtmWgt=  15.9949146  12.0000000  12.0000000  12.0000000  12.0000000   1.0078250   1.0078250   1.0078250  15.9949146  12.0000000
 NucSpn=           0           0           0           0           0           1           1           1           0           0
 AtZEff=   0.0000000   0.0000000   0.0000000   0.0000000   0.0000000   0.0000000   0.0000000   0.0000000   0.0000000   0.0000000
 NQMom=    0.0000000   0.0000000   0.0000000   0.0000000   0.0000000   0.0000000   0.0000000   0.0000000   0.0000000   0.0000000
 NMagM=    0.0000000   0.0000000   0.0000000   0.0000000   0.0000000   2.7928460   2.7928460   2.7928460   0.0000000   0.0000000
 AtZNuc=   8.0000000   6.0000000   6.0000000   6.0000000   6.0000000   1.0000000   1.0000000   1.0000000   8.0000000   6.0000000

  Atom        41          42          43
 IAtWgt=           1           1           1
 AtmWgt=   1.0078250   1.0078250   1.0078250
 NucSpn=           1           1           1
 AtZEff=   0.0000000   0.0000000   0.0000000
 NQMom=    0.0000000   0.0000000   0.0000000
 NMagM=    2.7928460   2.7928460   2.7928460
 AtZNuc=   1.0000000   1.0000000   1.0000000
 Leave Link  101 at Thu Apr  1 22:50:50 2021, MaxMem=  5242880000 cpu:         4.2
 (Enter /opt/nce/packages/global/g09/l103.exe)

 GradGradGradGradGradGradGradGradGradGradGradGradGradGradGradGradGradGrad
 Berny optimization.
 Initialization pass.
                           ----------------------------
                           !    Initial Parameters    !
                           ! (Angstroms and Degrees)  !
 --------------------------                            --------------------------
 ! Name  Definition              Value          Derivative Info.                !
 --------------------------------------------------------------------------------
 ! R1    R(1,2)                  1.3762         estimate D2E/DX2                !
 ! R2    R(1,6)                  1.4186         estimate D2E/DX2                !
 ! R3    R(1,15)                 1.0926         estimate D2E/DX2                !
 ! R4    R(2,3)                  1.4244         estimate D2E/DX2                !
 ! R5    R(2,16)                 1.0929         estimate D2E/DX2                !
 ! R6    R(3,4)                  1.4346         estimate D2E/DX2                !
 ! R7    R(3,7)                  1.4106         estimate D2E/DX2                !
 ! R8    R(4,5)                  1.4261         estimate D2E/DX2                !
 ! R9    R(4,8)                  1.4299         estimate D2E/DX2                !
 ! R10   R(5,6)                  1.3774         estimate D2E/DX2                !
 ! R11   R(5,17)                 1.0897         estimate D2E/DX2                !
 ! R12   R(6,18)                 1.0923         estimate D2E/DX2                !
 ! R13   R(7,10)                 1.3851         estimate D2E/DX2                !
 ! R14   R(7,14)                 1.0904         estimate D2E/DX2                !
 ! R15   R(8,9)                  1.3995         estimate D2E/DX2                !
 ! R16   R(8,19)                 1.494          estimate D2E/DX2                !
 ! R17   R(9,10)                 1.4383         estimate D2E/DX2                !
 ! R18   R(9,13)                 1.4881         estimate D2E/DX2                !
 ! R19   R(10,11)                1.4643         estimate D2E/DX2                !
 ! R20   R(11,12)                1.4075         estimate D2E/DX2                !
 ! R21   R(11,32)                1.4052         estimate D2E/DX2                !
 ! R22   R(12,31)                1.3623         estimate D2E/DX2                !
 ! R23   R(12,33)                1.3915         estimate D2E/DX2                !
 ! R24   R(13,30)                1.2008         estimate D2E/DX2                !
 ! R25   R(13,31)                1.3762         estimate D2E/DX2                !
 ! R26   R(19,20)                1.4008         estimate D2E/DX2                !
 ! R27   R(19,21)                1.4008         estimate D2E/DX2                !
 ! R28   R(20,22)                1.3958         estimate D2E/DX2                !
 ! R29   R(20,23)                1.0924         estimate D2E/DX2                !
 ! R30   R(21,24)                1.3958         estimate D2E/DX2                !
 ! R31   R(21,25)                1.0924         estimate D2E/DX2                !
 ! R32   R(22,26)                1.3975         estimate D2E/DX2                !
 ! R33   R(22,27)                1.0927         estimate D2E/DX2                !
 ! R34   R(24,26)                1.3975         estimate D2E/DX2                !
 ! R35   R(24,28)                1.0927         estimate D2E/DX2                !
 ! R36   R(26,29)                1.0926         estimate D2E/DX2                !
 ! R37   R(32,35)                1.3913         estimate D2E/DX2                !
 ! R38   R(32,37)                1.0904         estimate D2E/DX2                !
 ! R39   R(33,34)                1.3992         estimate D2E/DX2                !
 ! R40   R(33,38)                1.0895         estimate D2E/DX2                !
 ! R41   R(34,35)                1.4084         estimate D2E/DX2                !
 ! R42   R(34,39)                1.3518         estimate D2E/DX2                !
 ! R43   R(35,36)                1.0888         estimate D2E/DX2                !
 ! R44   R(39,40)                1.4103         estimate D2E/DX2                !
 ! R45   R(40,41)                1.1045         estimate D2E/DX2                !
 ! R46   R(40,42)                1.0977         estimate D2E/DX2                !
 ! R47   R(40,43)                1.1045         estimate D2E/DX2                !
 ! A1    A(2,1,6)              120.1862         estimate D2E/DX2                !
 ! A2    A(2,1,15)             120.1129         estimate D2E/DX2                !
 ! A3    A(6,1,15)             119.7009         estimate D2E/DX2                !
 ! A4    A(1,2,3)              120.7988         estimate D2E/DX2                !
 ! A5    A(1,2,16)             120.5993         estimate D2E/DX2                !
 ! A6    A(3,2,16)             118.6019         estimate D2E/DX2                !
 ! A7    A(2,3,4)              119.1733         estimate D2E/DX2                !
 ! A8    A(2,3,7)              121.4971         estimate D2E/DX2                !
 ! A9    A(4,3,7)              119.3295         estimate D2E/DX2                !
 ! A10   A(3,4,5)              118.4659         estimate D2E/DX2                !
 ! A11   A(3,4,8)              119.3209         estimate D2E/DX2                !
 ! A12   A(5,4,8)              122.2132         estimate D2E/DX2                !
 ! A13   A(4,5,6)              120.9247         estimate D2E/DX2                !
 ! A14   A(4,5,17)             118.8825         estimate D2E/DX2                !
 ! A15   A(6,5,17)             120.1927         estimate D2E/DX2                !
 ! A16   A(1,6,5)              120.451          estimate D2E/DX2                !
 ! A17   A(1,6,18)             119.6638         estimate D2E/DX2                !
 ! A18   A(5,6,18)             119.8852         estimate D2E/DX2                !
 ! A19   A(3,7,10)             121.849          estimate D2E/DX2                !
 ! A20   A(3,7,14)             117.8624         estimate D2E/DX2                !
 ! A21   A(10,7,14)            120.2886         estimate D2E/DX2                !
 ! A22   A(4,8,9)              119.7248         estimate D2E/DX2                !
 ! A23   A(4,8,19)             117.3125         estimate D2E/DX2                !
 ! A24   A(9,8,19)             122.9627         estimate D2E/DX2                !
 ! A25   A(8,9,10)             120.8148         estimate D2E/DX2                !
 ! A26   A(8,9,13)             119.4442         estimate D2E/DX2                !
 ! A27   A(10,9,13)            119.7409         estimate D2E/DX2                !
 ! A28   A(7,10,9)             118.9609         estimate D2E/DX2                !
 ! A29   A(7,10,11)            122.3414         estimate D2E/DX2                !
 ! A30   A(9,10,11)            118.6976         estimate D2E/DX2                !
 ! A31   A(10,11,12)           118.6151         estimate D2E/DX2                !
 ! A32   A(10,11,32)           124.7457         estimate D2E/DX2                !
 ! A33   A(12,11,32)           116.6393         estimate D2E/DX2                !
 ! A34   A(11,12,31)           121.5144         estimate D2E/DX2                !
 ! A35   A(11,12,33)           122.3328         estimate D2E/DX2                !
 ! A36   A(31,12,33)           116.1528         estimate D2E/DX2                !
 ! A37   A(9,13,30)            126.3502         estimate D2E/DX2                !
 ! A38   A(9,13,31)            116.8663         estimate D2E/DX2                !
 ! A39   A(30,13,31)           116.7835         estimate D2E/DX2                !
 ! A40   A(8,19,20)            120.3407         estimate D2E/DX2                !
 ! A41   A(8,19,21)            120.3438         estimate D2E/DX2                !
 ! A42   A(20,19,21)           119.2257         estimate D2E/DX2                !
 ! A43   A(19,20,22)           120.3793         estimate D2E/DX2                !
 ! A44   A(19,20,23)           119.3815         estimate D2E/DX2                !
 ! A45   A(22,20,23)           120.2373         estimate D2E/DX2                !
 ! A46   A(19,21,24)           120.3792         estimate D2E/DX2                !
 ! A47   A(19,21,25)           119.3816         estimate D2E/DX2                !
 ! A48   A(24,21,25)           120.2374         estimate D2E/DX2                !
 ! A49   A(20,22,26)           120.17           estimate D2E/DX2                !
 ! A50   A(20,22,27)           119.7317         estimate D2E/DX2                !
 ! A51   A(26,22,27)           120.0982         estimate D2E/DX2                !
 ! A52   A(21,24,26)           120.17           estimate D2E/DX2                !
 ! A53   A(21,24,28)           119.7317         estimate D2E/DX2                !
 ! A54   A(26,24,28)           120.0982         estimate D2E/DX2                !
 ! A55   A(22,26,24)           119.6711         estimate D2E/DX2                !
 ! A56   A(22,26,29)           120.1644         estimate D2E/DX2                !
 ! A57   A(24,26,29)           120.1645         estimate D2E/DX2                !
 ! A58   A(12,31,13)           124.5656         estimate D2E/DX2                !
 ! A59   A(11,32,35)           122.3112         estimate D2E/DX2                !
 ! A60   A(11,32,37)           119.5397         estimate D2E/DX2                !
 ! A61   A(35,32,37)           118.1491         estimate D2E/DX2                !
 ! A62   A(12,33,34)           119.6953         estimate D2E/DX2                !
 ! A63   A(12,33,38)           119.977          estimate D2E/DX2                !
 ! A64   A(34,33,38)           120.3277         estimate D2E/DX2                !
 ! A65   A(33,34,35)           119.4585         estimate D2E/DX2                !
 ! A66   A(33,34,39)           116.2273         estimate D2E/DX2                !
 ! A67   A(35,34,39)           124.3142         estimate D2E/DX2                !
 ! A68   A(32,35,34)           119.5628         estimate D2E/DX2                !
 ! A69   A(32,35,36)           119.2963         estimate D2E/DX2                !
 ! A70   A(34,35,36)           121.1409         estimate D2E/DX2                !
 ! A71   A(34,39,40)           119.2173         estimate D2E/DX2                !
 ! A72   A(39,40,41)           111.7419         estimate D2E/DX2                !
 ! A73   A(39,40,42)           106.5037         estimate D2E/DX2                !
 ! A74   A(39,40,43)           111.7416         estimate D2E/DX2                !
 ! A75   A(41,40,42)           108.9721         estimate D2E/DX2                !
 ! A76   A(41,40,43)           108.8251         estimate D2E/DX2                !
 ! A77   A(42,40,43)           108.9721         estimate D2E/DX2                !
 ! D1    D(6,1,2,3)              0.0019         estimate D2E/DX2                !
 ! D2    D(6,1,2,16)          -179.9966         estimate D2E/DX2                !
 ! D3    D(15,1,2,3)           180.0            estimate D2E/DX2                !
 ! D4    D(15,1,2,16)            0.0015         estimate D2E/DX2                !
 ! D5    D(2,1,6,5)             -0.0032         estimate D2E/DX2                !
 ! D6    D(2,1,6,18)           179.9956         estimate D2E/DX2                !
 ! D7    D(15,1,6,5)           179.9987         estimate D2E/DX2                !
 ! D8    D(15,1,6,18)           -0.0024         estimate D2E/DX2                !
 ! D9    D(1,2,3,4)              0.0037         estimate D2E/DX2                !
 ! D10   D(1,2,3,7)           -179.99           estimate D2E/DX2                !
 ! D11   D(16,2,3,4)          -179.9978         estimate D2E/DX2                !
 ! D12   D(16,2,3,7)             0.0085         estimate D2E/DX2                !
 ! D13   D(2,3,4,5)             -0.0079         estimate D2E/DX2                !
 ! D14   D(2,3,4,8)            179.9927         estimate D2E/DX2                !
 ! D15   D(7,3,4,5)            179.986          estimate D2E/DX2                !
 ! D16   D(7,3,4,8)             -0.0135         estimate D2E/DX2                !
 ! D17   D(2,3,7,10)           179.9984         estimate D2E/DX2                !
 ! D18   D(2,3,7,14)             0.0017         estimate D2E/DX2                !
 ! D19   D(4,3,7,10)             0.0048         estimate D2E/DX2                !
 ! D20   D(4,3,7,14)          -179.992          estimate D2E/DX2                !
 ! D21   D(3,4,5,6)              0.0067         estimate D2E/DX2                !
 ! D22   D(3,4,5,17)          -179.9931         estimate D2E/DX2                !
 ! D23   D(8,4,5,6)           -179.9939         estimate D2E/DX2                !
 ! D24   D(8,4,5,17)             0.0063         estimate D2E/DX2                !
 ! D25   D(3,4,8,9)              0.006          estimate D2E/DX2                !
 ! D26   D(3,4,8,19)           179.9973         estimate D2E/DX2                !
 ! D27   D(5,4,8,9)           -179.9935         estimate D2E/DX2                !
 ! D28   D(5,4,8,19)            -0.0021         estimate D2E/DX2                !
 ! D29   D(4,5,6,1)             -0.0012         estimate D2E/DX2                !
 ! D30   D(4,5,6,18)           180.0            estimate D2E/DX2                !
 ! D31   D(17,5,6,1)           179.9986         estimate D2E/DX2                !
 ! D32   D(17,5,6,18)           -0.0002         estimate D2E/DX2                !
 ! D33   D(3,7,10,9)             0.0113         estimate D2E/DX2                !
 ! D34   D(3,7,10,11)         -179.9824         estimate D2E/DX2                !
 ! D35   D(14,7,10,9)         -179.9921         estimate D2E/DX2                !
 ! D36   D(14,7,10,11)           0.0143         estimate D2E/DX2                !
 ! D37   D(4,8,9,10)             0.0102         estimate D2E/DX2                !
 ! D38   D(4,8,9,13)          -179.9718         estimate D2E/DX2                !
 ! D39   D(19,8,9,10)         -179.9806         estimate D2E/DX2                !
 ! D40   D(19,8,9,13)            0.0374         estimate D2E/DX2                !
 ! D41   D(4,8,19,20)          -88.3254         estimate D2E/DX2                !
 ! D42   D(4,8,19,21)           88.2026         estimate D2E/DX2                !
 ! D43   D(9,8,19,20)           91.6656         estimate D2E/DX2                !
 ! D44   D(9,8,19,21)          -91.8064         estimate D2E/DX2                !
 ! D45   D(8,9,10,7)            -0.0189         estimate D2E/DX2                !
 ! D46   D(8,9,10,11)          179.975          estimate D2E/DX2                !
 ! D47   D(13,9,10,7)          179.9631         estimate D2E/DX2                !
 ! D48   D(13,9,10,11)          -0.043          estimate D2E/DX2                !
 ! D49   D(8,9,13,30)            0.0331         estimate D2E/DX2                !
 ! D50   D(8,9,13,31)         -179.9628         estimate D2E/DX2                !
 ! D51   D(10,9,13,30)        -179.9491         estimate D2E/DX2                !
 ! D52   D(10,9,13,31)           0.055          estimate D2E/DX2                !
 ! D53   D(7,10,11,12)        -179.9939         estimate D2E/DX2                !
 ! D54   D(7,10,11,32)           0.0149         estimate D2E/DX2                !
 ! D55   D(9,10,11,12)           0.0124         estimate D2E/DX2                !
 ! D56   D(9,10,11,32)        -179.9788         estimate D2E/DX2                !
 ! D57   D(10,11,12,31)          0.0066         estimate D2E/DX2                !
 ! D58   D(10,11,12,33)       -179.9866         estimate D2E/DX2                !
 ! D59   D(32,11,12,31)        179.9985         estimate D2E/DX2                !
 ! D60   D(32,11,12,33)          0.0053         estimate D2E/DX2                !
 ! D61   D(10,11,32,35)        179.9945         estimate D2E/DX2                !
 ! D62   D(10,11,32,37)         -0.0112         estimate D2E/DX2                !
 ! D63   D(12,11,32,35)          0.0031         estimate D2E/DX2                !
 ! D64   D(12,11,32,37)        179.9974         estimate D2E/DX2                !
 ! D65   D(11,12,31,13)          0.0074         estimate D2E/DX2                !
 ! D66   D(33,12,31,13)       -179.999          estimate D2E/DX2                !
 ! D67   D(11,12,33,34)         -0.0053         estimate D2E/DX2                !
 ! D68   D(11,12,33,38)        179.9947         estimate D2E/DX2                !
 ! D69   D(31,12,33,34)       -179.9989         estimate D2E/DX2                !
 ! D70   D(31,12,33,38)          0.0012         estimate D2E/DX2                !
 ! D71   D(9,13,31,12)          -0.0377         estimate D2E/DX2                !
 ! D72   D(30,13,31,12)        179.966          estimate D2E/DX2                !
 ! D73   D(8,19,20,22)         177.327          estimate D2E/DX2                !
 ! D74   D(8,19,20,23)          -3.1628         estimate D2E/DX2                !
 ! D75   D(21,19,20,22)          0.7604         estimate D2E/DX2                !
 ! D76   D(21,19,20,23)       -179.7294         estimate D2E/DX2                !
 ! D77   D(8,19,21,24)        -177.3282         estimate D2E/DX2                !
 ! D78   D(8,19,21,25)           3.1628         estimate D2E/DX2                !
 ! D79   D(20,19,21,24)         -0.7617         estimate D2E/DX2                !
 ! D80   D(20,19,21,25)        179.7293         estimate D2E/DX2                !
 ! D81   D(19,20,22,26)         -0.285          estimate D2E/DX2                !
 ! D82   D(19,20,22,27)        179.5933         estimate D2E/DX2                !
 ! D83   D(23,20,22,26)       -179.7909         estimate D2E/DX2                !
 ! D84   D(23,20,22,27)          0.0874         estimate D2E/DX2                !
 ! D85   D(19,21,24,26)          0.2875         estimate D2E/DX2                !
 ! D86   D(19,21,24,28)       -179.5907         estimate D2E/DX2                !
 ! D87   D(25,21,24,26)        179.7923         estimate D2E/DX2                !
 ! D88   D(25,21,24,28)         -0.0859         estimate D2E/DX2                !
 ! D89   D(20,22,26,24)         -0.1971         estimate D2E/DX2                !
 ! D90   D(20,22,26,29)        179.8741         estimate D2E/DX2                !
 ! D91   D(27,22,26,24)        179.925          estimate D2E/DX2                !
 ! D92   D(27,22,26,29)         -0.0038         estimate D2E/DX2                !
 ! D93   D(21,24,26,22)          0.1958         estimate D2E/DX2                !
 ! D94   D(21,24,26,29)       -179.8754         estimate D2E/DX2                !
 ! D95   D(28,24,26,22)       -179.9264         estimate D2E/DX2                !
 ! D96   D(28,24,26,29)          0.0024         estimate D2E/DX2                !
 ! D97   D(11,32,35,34)         -0.0113         estimate D2E/DX2                !
 ! D98   D(11,32,35,36)        179.9951         estimate D2E/DX2                !
 ! D99   D(37,32,35,34)        179.9944         estimate D2E/DX2                !
 ! D100  D(37,32,35,36)          0.0008         estimate D2E/DX2                !
 ! D101  D(12,33,34,35)         -0.003          estimate D2E/DX2                !
 ! D102  D(12,33,34,39)        179.9985         estimate D2E/DX2                !
 ! D103  D(38,33,34,35)        179.997          estimate D2E/DX2                !
 ! D104  D(38,33,34,39)         -0.0016         estimate D2E/DX2                !
 ! D105  D(33,34,35,32)          0.011          estimate D2E/DX2                !
 ! D106  D(33,34,35,36)       -179.9955         estimate D2E/DX2                !
 ! D107  D(39,34,35,32)       -179.9906         estimate D2E/DX2                !
 ! D108  D(39,34,35,36)          0.0029         estimate D2E/DX2                !
 ! D109  D(33,34,39,40)        179.9917         estimate D2E/DX2                !
 ! D110  D(35,34,39,40)         -0.0067         estimate D2E/DX2                !
 ! D111  D(34,39,40,41)         61.1107         estimate D2E/DX2                !
 ! D112  D(34,39,40,42)       -179.9945         estimate D2E/DX2                !
 ! D113  D(34,39,40,43)        -61.0999         estimate D2E/DX2                !
 --------------------------------------------------------------------------------
 Trust Radius=3.00D-01 FncErr=1.00D-07 GrdErr=1.00D-06
 Number of steps in this run=    247 maximum allowed number of steps=    258.
 GradGradGradGradGradGradGradGradGradGradGradGradGradGradGradGradGradGrad

 Leave Link  103 at Thu Apr  1 22:50:50 2021, MaxMem=  5242880000 cpu:         0.2
 (Enter /opt/nce/packages/global/g09/l202.exe)
                          Input orientation:                          
 ---------------------------------------------------------------------
 Center     Atomic      Atomic             Coordinates (Angstroms)
 Number     Number       Type             X           Y           Z
 ---------------------------------------------------------------------
      1          6           0        2.836155    4.138012   -0.000326
      2          6           0        1.497628    3.818038    0.000115
      3          6           0        1.072762    2.458511    0.000220
      4          6           0        2.059798    1.417378   -0.000060
      5          6           0        3.437236    1.786622   -0.000607
      6          6           0        3.815015    3.111201   -0.000724
      7          6           0       -0.295131    2.113839    0.000460
      8          6           0        1.636808    0.051505    0.000203
      9          6           0        0.270575   -0.251827    0.000602
     10          6           0       -0.716402    0.794333    0.000531
     11          6           0       -2.133156    0.424372    0.000400
     12          6           0       -2.473188   -0.941447    0.000616
     13          6           0       -0.162672   -1.675450    0.001512
     14          1           0       -1.024826    2.924106    0.000536
     15          1           0        3.149561    5.184726   -0.000403
     16          1           0        0.737850    4.603615    0.000367
     17          1           0        4.192656    1.001316   -0.000937
     18          1           0        4.875033    3.374838   -0.001145
     19          6           0        2.702048   -0.996015   -0.000168
     20          6           0        3.230848   -1.467038   -1.208780
     21          6           0        3.233708   -1.465082    1.207951
     22          6           0        4.264658   -2.404859   -1.209107
     23          1           0        2.821157   -1.099597   -2.152393
     24          6           0        4.267501   -2.402924    1.207347
     25          1           0        2.826253   -1.096112    2.151934
     26          6           0        4.784764   -2.877236   -0.001111
     27          1           0        4.664745   -2.770077   -2.158124
     28          1           0        4.669806   -2.766639    2.156004
     29          1           0        5.592600   -3.612867   -0.001473
     30          8           0        0.555353   -2.637934    0.002523
     31          8           0       -1.518251   -1.913010    0.001074
     32          6           0       -3.199783    1.339207   -0.000107
     33          6           0       -3.793885   -1.379576    0.000238
     34          6           0       -4.834443   -0.444233   -0.000267
     35          6           0       -4.529766    0.930827   -0.000322
     36          1           0       -5.317793    1.682154   -0.000636
     37          1           0       -2.990228    2.409331   -0.000249
     38          1           0       -4.013418   -2.446764    0.000337
     39          8           0       -6.089403   -0.946710   -0.000644
     40          6           0       -7.186039   -0.059879   -0.000984
     41          1           0       -7.192233    0.582788   -0.899264
     42          1           0       -8.090330   -0.682182   -0.001152
     43          1           0       -7.192666    0.582928    0.897186
 ---------------------------------------------------------------------
                    Distance matrix (angstroms):
                    1          2          3          4          5
     1  C    0.000000
     2  C    1.376241   0.000000
     3  C    2.435216   1.424368   0.000000
     4  C    2.829237   2.465604   1.434642   0.000000
     5  C    2.427001   2.808688   2.458083   1.426070   0.000000
     6  C    1.418629   2.422788   2.818857   2.439226   1.377398
     7  C    3.728569   2.473516   1.410649   2.455758   3.746683
     8  C    4.258870   3.769104   2.472211   1.429871   2.500434
     9  C    5.084574   4.250819   2.826559   2.446950   3.766035
    10  C    4.878612   3.747629   2.443480   2.845254   4.270521
    11  C    6.203642   4.969865   3.796792   4.308935   5.734544
    12  C    7.347791   6.198393   4.912583   5.109992   6.509645
    13  C    6.541354   5.738903   4.314618   3.808538   4.994525
    14  H    4.047313   2.676171   2.148640   3.432948   4.604766
    15  H    1.092627   2.143996   3.427148   3.921797   3.410259
    16  H    2.149342   1.092883   2.171091   3.449587   3.901555
    17  H    3.417449   3.898346   3.443422   2.173060   1.089663
    18  H    2.177030   3.406361   3.911128   3.428877   2.142356
    19  C    5.135778   4.962432   3.819466   2.497389   2.878119
    20  C    5.747411   5.691881   4.639930   3.339494   3.476864
    21  C    5.745663   5.690712   4.639276   3.338552   3.474999
    22  C    6.805214   6.916872   5.941636   4.575227   4.440001
    23  H    5.662523   5.528847   4.511182   3.398142   3.652396
    24  C    6.803754   6.915922   5.941133   4.574548   4.438557
    25  H    5.659362   5.526702   4.509983   3.396493   3.649231
    26  C    7.280850   7.458683   6.499935   5.086172   4.854627
    27  H    7.464685   7.621803   6.700666   5.383100   5.188946
    28  H    7.462321   7.620272   6.699875   5.382077   5.186751
    29  H    8.226428   8.484524   7.569053   6.146874   5.813783
    30  O    7.149511   6.524374   5.122643   4.325381   5.280337
    31  O    7.454913   6.476144   5.081687   4.888141   6.184184
    32  C    6.653259   5.311334   4.416728   5.260162   6.652083
    33  C    8.625613   7.417230   6.197997   6.487569   7.893917
    34  C    8.935046   7.632960   6.581869   7.141159   8.567228
    35  C    8.033855   6.683223   5.807077   6.607502   8.012834
    36  H    8.515756   7.142266   6.437540   7.382341   8.755652
    37  H    6.077424   4.703755   4.063288   5.146526   6.457558
    38  H    9.501364   8.343822   7.066184   7.198302   8.569353
    39  O   10.272292   8.959122   7.930456   8.485186   9.911002
    40  C   10.865848   9.510222   8.634239   9.363108  10.782557
    41  H   10.677840   9.316083   8.522767   9.333016  10.735102
    42  H   11.942460  10.591549   9.686393  10.365001  11.788968
    43  H   10.678080   9.316216   8.522890   9.333244  10.735443
                    6          7          8          9         10
     6  C    0.000000
     7  C    4.229425   0.000000
     8  C    3.755839   2.825882   0.000000
     9  C    4.886002   2.432365   1.399501   0.000000
    10  C    5.089363   1.385123   2.467669   1.438254   0.000000
    11  C    6.526851   2.496525   3.788358   2.497032   1.464262
    12  C    7.481006   3.752160   4.228241   2.829101   2.469662
    13  C    6.223667   3.791604   2.494094   1.488088   2.531096
    14  H    4.843456   1.090407   3.916137   3.429958   2.151989
    15  H    2.177690   4.614786   5.351484   6.151802   5.849891
    16  H    3.419977   2.695558   4.640025   4.877875   4.077435
    17  H    2.143415   4.623629   2.726628   4.117413   4.913420
    18  H    1.092311   5.321721   4.640113   5.861206   6.158178
    19  C    4.255340   4.319059   1.494000   2.542809   3.858905
    20  C    4.770841   5.168894   2.511688   3.420900   4.707124
    21  C    4.768771   5.169083   2.511729   3.421964   4.708098
    22  C    5.664741   6.532485   3.794964   4.695918   6.042269
    23  H    4.832003   4.967112   2.713188   3.443773   4.553721
    24  C    5.663016   6.532636   3.794992   4.696687   6.043025
    25  H    4.828361   4.967461   2.713255   3.445655   4.555516
    26  C    6.066448   7.121528   4.299669   5.222133   6.613868
    27  H    6.321855   7.287832   4.667773   5.505489   6.805994
    28  H    6.319110   7.288075   4.667814   5.506657   6.807189
    29  H    6.955063   8.213437   5.392209   6.294485   7.695903
    30  O    6.608930   4.827284   2.898729   2.403042   3.660303
    31  O    7.327102   4.208508   3.716681   2.441194   2.823591
    32  C    7.235147   3.006170   5.005076   3.817692   2.542453
    33  C    8.835295   4.944212   5.616086   4.218015   3.767862
    34  C    9.351697   5.210479   6.490212   5.108643   4.300268
    35  C    8.624929   4.396777   6.228952   4.943880   3.815806
    36  H    9.243936   5.041179   7.143213   5.913556   4.686259
    37  H    6.841342   2.711248   5.193150   4.208871   2.788997
    38  H    9.600799   5.884281   6.177896   4.813558   4.623313
    39  O   10.703464   6.552904   7.790428   6.397827   5.648041
    40  C   11.448971   7.225626   8.823550   7.459084   6.525786
    41  H   11.329596   7.122053   8.890628   7.563058   6.541465
    42  H   12.495079   8.281477   9.754769   8.371974   7.520300
    43  H   11.329936   7.122064   8.890815   7.563111   6.541458
                   11         12         13         14         15
    11  C    0.000000
    12  C    1.407510   0.000000
    13  C    2.879594   2.424303   0.000000
    14  H    2.734422   4.127984   4.679661   0.000000
    15  H    7.111123   8.315365   7.617933   4.747200   0.000000
    16  H    5.070379   6.407689   6.343311   2.434703   2.480734
    17  H    6.352068   6.943184   5.112139   5.560507   4.311492
    18  H    7.603944   8.522128   7.133294   5.917051   2.500590
    19  C    5.039514   5.175524   2.944190   5.408968   6.196921
    20  C    5.814816   5.854478   3.608908   6.233406   6.761120
    21  C    5.816480   5.856664   3.610422   6.233613   6.759227
    22  C    7.099259   7.000255   4.647460   7.605245   7.765707
    23  H    5.612684   5.717565   3.724802   5.967987   6.650686
    24  C    7.100615   7.002071   4.648622   7.605417   7.764076
    25  H    5.615755   5.721553   3.727415   5.968373   6.647256
    26  C    7.665392   7.511668   5.091308   8.210171   8.226124
    27  H    7.815062   7.678160   5.400573   8.333952   8.380360
    28  H    7.817255   7.681106   5.402349   8.334234   8.377675
    29  H    8.717030   8.496671   6.072623   9.301739   9.130503
    30  O    4.075022   3.471330   1.200807   5.782150   8.241598
    31  O    2.416912   1.362292   1.376237   4.862218   8.495077
    32  C    1.405210   2.393601   4.279276   2.691160   7.423085
    33  C    2.451989   1.391473   3.643247   5.117555   9.555182
    34  C    2.837504   2.413037   4.831288   5.085164   9.768802
    35  C    2.449538   2.781173   5.085685   4.032092   8.778822
    36  H    3.424022   3.869762   6.152136   4.469006   9.163192
    37  H    2.162090   3.390434   4.967948   2.031699   6.737939
    38  H    3.432027   2.153668   3.927235   6.146375  10.466514
    39  O    4.187094   3.616219   5.971366   6.374414  11.088416
    40  C    5.076035   4.794594   7.206786   6.845781  11.590104
    41  H    5.140890   5.040086   7.438129   6.657952  11.355108
    42  H    6.059075   5.623122   7.989640   7.932633  12.678949
    43  H    5.140818   5.039943   7.437965   6.657878  11.355345
                   16         17         18         19         20
    16  H    0.000000
    17  H    4.991217   0.000000
    18  H    4.315806   2.469665   0.000000
    19  C    5.934133   2.492237   4.881211   0.000000
    20  C    6.673073   2.911483   5.254093   1.400798   0.000000
    21  C    6.672080   2.909314   5.251732   1.400799   2.416733
    22  C    7.938508   3.614815   5.936045   2.426546   1.395805
    23  H    6.442140   3.305088   5.372787   2.158006   1.092367
    24  C    7.937684   3.613088   5.933977   2.426547   2.790735
    25  H    6.440307   3.301684   5.368672   2.158006   3.405243
    26  C    8.505330   3.923488   6.252726   2.806546   2.421111
    27  H    8.628495   4.370324   6.515885   3.414125   2.157597
    28  H    8.627149   4.367786   6.512538   3.414126   3.883469
    29  H    9.543541   4.821880   7.024452   3.899129   3.411751
    30  O    7.243849   5.145301   7.403585   2.702629   3.161728
    31  O    6.896114   6.411533   8.296711   4.318774   4.921034
    32  C    5.114813   7.400157   8.327451   6.347036   7.119615
    33  C    7.505678   8.333876   9.887092   6.507247   7.128552
    34  C    7.518725   9.142107  10.433563   7.556663   8.219218
    35  C    6.421616   8.722707   9.717172   7.484107   8.212019
    36  H    6.723522   9.534788  10.332419   8.455202   9.190010
    37  H    4.325904   7.319585   7.924300   6.633128   7.428901
    38  H    8.501905   8.901062  10.625235   6.870383   7.409536
    39  O    8.798721  10.464967  11.785357   8.791589   9.412620
    40  C    9.194357  11.428072  12.540604   9.932302  10.580662
    41  H    8.936588  11.427942  12.418578  10.059711  10.627239
    42  H   10.289627  12.397819  13.585288  10.796940  11.412425
    43  H    8.936626  11.428352  12.418982  10.060003  10.829917
                   21         22         23         24         25
    21  C    0.000000
    22  C    2.790736   0.000000
    23  H    3.405244   2.162682   0.000000
    24  C    1.395807   2.416456   3.883095   0.000000
    25  H    1.092365   3.883095   4.304331   2.162683   0.000000
    26  C    2.421112   1.397464   3.412296   1.397463   3.412297
    27  H    3.883470   1.092743   2.487841   3.408665   4.975823
    28  H    2.157599   3.408666   4.975823   1.092743   2.487843
    29  H    3.411753   2.163583   4.315539   2.163584   4.315541
    30  O    3.162629   3.909132   3.484826   3.909843   3.486283
    31  O    4.923241   5.928616   4.912181   5.930433   4.916120
    32  C    7.121323   8.437866   6.843378   8.439302   6.846544
    33  C    7.131125   8.213028   6.962111   8.215248   6.966805
    34  C    8.221739   9.386106   7.979308   9.388301   7.983933
    35  C    8.214124   9.483135   7.924020   9.484949   7.927907
    36  H    9.192059  10.487490   8.866268  10.489278   8.870051
    37  H    7.430222   8.790400   7.121551   8.791514   7.124007
    38  H    7.412346   8.366066   7.291126   8.368537   7.296213
    39  O    9.415403  10.525833   9.167959  10.528308   9.173049
    40  C   10.583348  11.750615  10.288515  11.753021  10.293436
    41  H   10.832099  11.844087  10.230774  12.028208  10.606535
    42  H   11.415284  12.532857  11.129359  12.535446  11.134581
    43  H   10.630155  12.026372  10.602239  11.846811  10.235834
                   26         27         28         29         30
    26  C    0.000000
    27  H    2.163005   0.000000
    28  H    2.163005   4.314132   0.000000
    29  H    1.092590   2.494465   2.494465   0.000000
    30  O    4.236177   4.644670   4.645726   5.130728   0.000000
    31  O    6.376342   6.605009   6.607909   7.311205   2.196668
    32  C    9.029473   9.132034   9.134397  10.091037   5.469799
    33  C    8.708399   8.839708   8.843378   9.648507   4.527620
    34  C    9.922129  10.015012  10.018674  10.897865   5.819126
    35  C   10.062893  10.143561  10.146582  11.095380   6.212447
    36  H   11.083758  11.141283  11.144281  12.127404   7.290886
    37  H    9.402037   9.491117   9.492956  10.484837   6.168147
    38  H    8.808707   8.948408   8.952519   9.676538   4.572769
    39  O   11.044204  11.118952  11.123122  11.982387   6.856605
    40  C   12.297871  12.346640  12.350717  13.263383   8.159383
    41  H   12.499076  12.386055  12.698870  13.485604   8.438682
    42  H   13.060869  13.103579  13.107988  13.993266   8.864131
    43  H   12.499540  12.695501  12.390418  13.486115   8.438375
                   31         32         33         34         35
    31  O    0.000000
    32  C    3.661211   0.000000
    33  C    2.337320   2.782937   0.000000
    34  C    3.626905   2.419250   1.399153   0.000000
    35  C    4.142057   1.391269   2.424765   1.408410   0.000000
    36  H    5.230844   2.145595   3.420013   2.180630   1.088797
    37  H    4.566109   1.090449   3.873200   3.397640   2.134514
    38  H    2.551618   3.872412   1.089534   2.164304   3.416831
    39  O    4.672170   3.684470   2.335974   1.351817   2.440822
    40  C    5.963046   4.224651   3.639823   2.382799   2.835011
    41  H    6.263680   4.161768   4.026009   2.724361   2.831600
    42  H    6.686342   5.291830   4.352677   3.264571   3.908889
    43  H    6.263522   4.161755   4.025873   2.724279   2.831535
                   36         37         38         39         40
    36  H    0.000000
    37  H    2.438513   0.000000
    38  H    4.330053   4.962719   0.000000
    39  O    2.739764   4.568139   2.561226   0.000000
    40  C    2.554412   4.868452   3.970232   1.410347   0.000000
    41  H    2.351524   4.669190   4.482447   2.088807   1.104521
    42  H    3.643768   5.963933   4.442405   2.018337   1.097726
    43  H    2.351495   4.669221   4.482297   2.088799   1.104515
                   41         42         43
    41  H    0.000000
    42  H    1.792577   0.000000
    43  H    1.796450   1.792572   0.000000
 Symmetry turned off by external request.
 Stoichiometry    C24H16O3
 Framework group  C1[X(C24H16O3)]
 Deg. of freedom   123
 Full point group                 C1      NOp   1
 Rotational constants (GHZ):      0.3393275      0.1186549      0.0907690
 Leave Link  202 at Thu Apr  1 22:50:50 2021, MaxMem=  5242880000 cpu:         0.1
 (Enter /opt/nce/packages/global/g09/l301.exe)
 Standard basis: def2TZVP (5D, 7F)
 Ernie: Thresh=  0.10000D-02 Tol=  0.10000D-05 Strict=F.
   933 basis functions,  1505 primitive gaussians,  1068 cartesian basis functions
    92 alpha electrons       92 beta electrons
       nuclear repulsion energy      2242.2853937510 Hartrees.
 IExCor= 4639 DFT=T Ex+Corr=wB97XD ExCW=0 ScaHFX=  1.000000
 ScaDFX=  1.000000  1.000000  1.000000  1.000000 ScalE2=  1.000000  1.000000
 IRadAn=      5 IRanWt=     -1 IRanGd=            0 ICorTp=0 IEmpDi=121
  HFx wShort=  0.000000 wLong=  0.200000 cFull=  0.222036 cShort=  0.000000 cLong=  0.777964
  DFx wShort=  0.000000 wLong=  0.200000 cFull=  0.000000 cShort=  0.000000 cLong=  1.000000
 NAtoms=   43 NActive=   43 NUniq=   43 SFac= 1.00D+00 NAtFMM=   60 NAOKFM=F Big=F
 Integral buffers will be    131072 words long.
 Raffenetti 2 integral format.
 Two-electron integral symmetry is turned off.
 R6Disp:  Grimme-D2 Dispersion energy=       -0.0321840490 Hartrees.
 Nuclear repulsion after empirical dispersion term =     2242.2532097020 Hartrees.
 ------------------------------------------------------------------------------
 Polarizable Continuum Model (PCM)
 =================================
 Model                : PCM (using non-symmetric T matrix).
 Atomic radii         : SMD-Coulomb.
 Polarization charges : Total charges.
 Charge compensation  : None.
 Solution method      : On-the-fly selection.
 Cavity type          : VdW (van der Waals Surface) (Alpha=1.000).
 Cavity algorithm     : GePol (No added spheres)
                        Default sphere list used, NSphG=   43.
                        Lebedev-Laikov grids with approx.  5.0 points / Ang**2.
                        Smoothing algorithm: York/Karplus (Gamma=1.0000).
                        Polarization charges: spherical gaussians, with
                                              point-specific exponents (IZeta= 3).
                        Self-potential: point-specific (ISelfS= 7).
                        Self-field    : sphere-specific E.n sum rule (ISelfD= 2).
 1st derivatives      : Analytical E(r).r(x)/FMM algorithm (CHGder, D1EAlg=3).
                        Cavity 1st derivative terms included.
 Solvent              : Acetonitrile, Eps=  35.688000 Eps(inf)=   1.806874
 ------------------------------------------------------------------------------
 GePol: Number of generator spheres                  =      43
 GePol: Total number of spheres                      =      43
 GePol: Number of exposed spheres                    =      43 (100.00%)
 GePol: Number of points                             =    3289
 GePol: Average weight of points                     =       0.11
 GePol: Minimum weight of points                     =   0.24D-09
 GePol: Maximum weight of points                     =    0.21559
 GePol: Number of points with low weight             =     160
 GePol: Fraction of low-weight points (<1% of avg)   =       4.86%
 GePol: Cavity surface area                          =    371.292 Ang**2
 GePol: Cavity volume                                =    377.339 Ang**3
 ------------------------------------------------------------------------------
 Atomic radii for non-electrostatic terms: SMD-CDS.
 ------------------------------------------------------------------------------
 PCM non-electrostatic energy =        -0.0079595609 Hartrees.
 Nuclear repulsion after PCM non-electrostatic terms =     2242.2452501411 Hartrees.
 Leave Link  301 at Thu Apr  1 22:50:50 2021, MaxMem=  5242880000 cpu:         1.8
 (Enter /opt/nce/packages/global/g09/l302.exe)
 NPDir=0 NMtPBC=     1 NCelOv=     1 NCel=       1 NClECP=     1 NCelD=      1
         NCelK=      1 NCelE2=     1 NClLst=     1 CellRange=     0.0.
 One-electron integrals computed using PRISM.
   1 Symmetry operations used in ECPInt.
 ECPInt:  NShTT=   65341 NPrTT=  203208 LenC2=   53161 LenP2D=  114787.
 LDataN:  DoStor=T MaxTD1= 6 Len=  172
 NBasis=   933 RedAO= T EigKep=  2.87D-06  NBF=   933
 NBsUse=   933 1.00D-06 EigRej= -1.00D+00 NBFU=   933
 Precomputing XC quadrature grid using
 IXCGrd= 4 IRadAn=           5 IRanWt=          -1 IRanGd=           0 AccXCQ= 0.00D+00.
 Generated NRdTot=       0 NPtTot=           0 NUsed=           0 NTot=          32
 NSgBfM=  1027  1027  1027  1027  1027 MxSgAt=    43 MxSgA2=    43.
 Leave Link  302 at Thu Apr  1 22:50:52 2021, MaxMem=  5242880000 cpu:        23.3
 (Enter /opt/nce/packages/global/g09/l303.exe)
 DipDrv:  MaxL=1.
 Leave Link  303 at Thu Apr  1 22:50:52 2021, MaxMem=  5242880000 cpu:         2.2
 (Enter /opt/nce/packages/global/g09/l401.exe)
 ExpMin= 9.52D-02 ExpMax= 2.70D+04 ExpMxC= 9.22D+02 IAcc=3 IRadAn=         5 AccDes= 0.00D+00
 Harris functional with IExCor= 4639 and IRadAn=       5 diagonalized for initial guess.
 HarFok:  IExCor= 4639 AccDes= 0.00D+00 IRadAn=         5 IDoV= 1 UseB2=F ITyADJ=14
 ICtDFT=  3500011 ScaDFX=  1.000000  1.000000  1.000000  1.000000
 FoFCou: FMM=F IPFlag=           0 FMFlag=      100000 FMFlg1=           0
         NFxFlg=           0 DoJE=T BraDBF=F KetDBF=T FulRan=T
         wScrn=  0.000000 ICntrl=     500 IOpCl=  0 I1Cent=   200000004 NGrid=           0
         NMat0=    1 NMatS0=      1 NMatT0=    0 NMatD0=    1 NMtDS0=    0 NMtDT0=    0
 Symmetry not used in FoFCou.
 Harris En= -1100.43781867822    
 JPrj=0 DoOrth=F DoCkMO=F.
 Leave Link  401 at Thu Apr  1 22:51:01 2021, MaxMem=  5242880000 cpu:       100.0
 (Enter /opt/nce/packages/global/g09/l502.exe)
 Closed shell SCF:
 Using DIIS extrapolation, IDIIS=  1040.
 Two-electron integral symmetry not used.
 IVT=     3459732 IEndB=     3459732 NGot=  5242880000 MDV=  5240578601
 LenX=  5240578601 LenY=  5239436909
 Requested convergence on RMS density matrix=1.00D-08 within 128 cycles.
 Requested convergence on MAX density matrix=1.00D-06.
 Requested convergence on             energy=1.00D-06.
 No special actions if energy rises.
 Fock matrices will be formed incrementally for  20 cycles.

 Cycle   1  Pass 1  IDiag  1:
 FoFJK:  IHMeth= 1 ICntrl=       0 DoSepK=T KAlg= 0 I1Cent=   0 FoldK=F
 IRaf=         1 NMat=   1 IRICut=       1 DoRegI=T DoRafI=F ISym2E= 0.
 FoFCou: FMM=F IPFlag=           0 FMFlag=      100000 FMFlg1=           0
         NFxFlg=           0 DoJE=T BraDBF=F KetDBF=F FulRan=T
         wScrn=  0.000000 ICntrl=     500 IOpCl=  0 I1Cent=           0 NGrid=           0
         NMat0=    1 NMatS0=      1 NMatT0=    0 NMatD0=    1 NMtDS0=    0 NMtDT0=    0
 Symmetry not used in FoFCou.
 Inv3:  Mode=1 IEnd=    32452563.
 Iteration    1 A*A^-1 deviation from unit magnitude is 6.22D-15 for   3269.
 Iteration    1 A*A^-1 deviation from orthogonality  is 2.84D-15 for   3281   3157.
 Iteration    1 A^-1*A deviation from unit magnitude is 6.00D-15 for   3269.
 Iteration    1 A^-1*A deviation from orthogonality  is 1.33D-07 for   3035   1460.
 Iteration    2 A*A^-1 deviation from unit magnitude is 2.22D-15 for    167.
 Iteration    2 A*A^-1 deviation from orthogonality  is 2.44D-15 for   2600    640.
 Iteration    2 A^-1*A deviation from unit magnitude is 1.11D-15 for    256.
 Iteration    2 A^-1*A deviation from orthogonality  is 3.33D-16 for   2845   1073.
 E= -1149.55447293575    
 DIIS: error= 5.09D-02 at cycle   1 NSaved=   1.
 NSaved= 1 IEnMin= 1 EnMin= -1149.55447293575     IErMin= 1 ErrMin= 5.09D-02
 ErrMax= 5.09D-02  0.00D+00 EMaxC= 1.00D-01 BMatC= 2.59D+00 BMatP= 2.59D+00
 IDIUse=3 WtCom= 4.91D-01 WtEn= 5.09D-01
 Coeff-Com:  0.100D+01
 Coeff-En:   0.100D+01
 Coeff:      0.100D+01
 Gap=     0.300 Goal=   None    Shift=    0.000
 GapD=    0.300 DampG=1.000 DampE=0.500 DampFc=0.5000 IDamp=-1.
 Damping current iteration by 5.00D-01
 RMSDP=3.84D-03 MaxDP=4.39D-01              OVMax= 1.42D-01

 Cycle   2  Pass 1  IDiag  1:
 RMSU=  1.35D-03    CP:  8.24D-01
 E= -1149.73694200913     Delta-E=       -0.182469073386 Rises=F Damp=T
 DIIS: error= 2.47D-02 at cycle   2 NSaved=   2.
 NSaved= 2 IEnMin= 2 EnMin= -1149.73694200913     IErMin= 2 ErrMin= 2.47D-02
 ErrMax= 2.47D-02  0.00D+00 EMaxC= 1.00D-01 BMatC= 5.34D-01 BMatP= 2.59D+00
 IDIUse=3 WtCom= 7.53D-01 WtEn= 2.47D-01
 Coeff-Com: -0.616D+00 0.162D+01
 Coeff-En:   0.000D+00 0.100D+01
 Coeff:     -0.463D+00 0.146D+01
 Gap=     0.312 Goal=   None    Shift=    0.000
 RMSDP=1.31D-03 MaxDP=1.40D-01 DE=-1.82D-01 OVMax= 1.37D-01

 Cycle   3  Pass 1  IDiag  1:
 RMSU=  8.82D-04    CP:  7.26D-01  1.44D+00
 E= -1149.83999987006     Delta-E=       -0.103057860927 Rises=F Damp=F
 DIIS: error= 9.22D-03 at cycle   3 NSaved=   3.
 NSaved= 3 IEnMin= 3 EnMin= -1149.83999987006     IErMin= 3 ErrMin= 9.22D-03
 ErrMax= 9.22D-03  0.00D+00 EMaxC= 1.00D-01 BMatC= 1.36D-01 BMatP= 5.34D-01
 IDIUse=3 WtCom= 9.08D-01 WtEn= 9.22D-02
 Coeff-Com: -0.366D+00 0.797D+00 0.569D+00
 Coeff-En:   0.000D+00 0.000D+00 0.100D+01
 Coeff:     -0.332D+00 0.723D+00 0.609D+00
 Gap=     0.278 Goal=   None    Shift=    0.000
 RMSDP=7.86D-04 MaxDP=9.57D-02 DE=-1.03D-01 OVMax= 5.45D-02

 Cycle   4  Pass 1  IDiag  1:
 RMSU=  2.97D-04    CP:  6.90D-01  1.74D+00  3.92D-01
 E= -1149.93044195939     Delta-E=       -0.090442089329 Rises=F Damp=F
 DIIS: error= 2.25D-03 at cycle   4 NSaved=   4.
 NSaved= 4 IEnMin= 4 EnMin= -1149.93044195939     IErMin= 4 ErrMin= 2.25D-03
 ErrMax= 2.25D-03  0.00D+00 EMaxC= 1.00D-01 BMatC= 7.29D-03 BMatP= 1.36D-01
 IDIUse=3 WtCom= 9.77D-01 WtEn= 2.25D-02
 Coeff-Com: -0.154D+00 0.332D+00 0.324D+00 0.498D+00
 Coeff-En:   0.000D+00 0.000D+00 0.000D+00 0.100D+01
 Coeff:     -0.151D+00 0.325D+00 0.317D+00 0.509D+00
 Gap=     0.263 Goal=   None    Shift=    0.000
 RMSDP=1.65D-04 MaxDP=1.96D-02 DE=-9.04D-02 OVMax= 1.28D-02

 Cycle   5  Pass 1  IDiag  1:
 RMSU=  9.22D-05    CP:  6.82D-01  1.76D+00  4.89D-01  7.20D-01
 E= -1149.93507283096     Delta-E=       -0.004630871573 Rises=F Damp=F
 DIIS: error= 3.06D-04 at cycle   5 NSaved=   5.
 NSaved= 5 IEnMin= 5 EnMin= -1149.93507283096     IErMin= 5 ErrMin= 3.06D-04
 ErrMax= 3.06D-04  0.00D+00 EMaxC= 1.00D-01 BMatC= 1.68D-04 BMatP= 7.29D-03
 IDIUse=3 WtCom= 9.97D-01 WtEn= 3.06D-03
 Coeff-Com: -0.703D-02 0.146D-01 0.461D-01 0.166D+00 0.780D+00
 Coeff-En:   0.000D+00 0.000D+00 0.000D+00 0.000D+00 0.100D+01
 Coeff:     -0.700D-02 0.145D-01 0.460D-01 0.166D+00 0.781D+00
 Gap=     0.264 Goal=   None    Shift=    0.000
 RMSDP=3.55D-05 MaxDP=3.05D-03 DE=-4.63D-03 OVMax= 3.55D-03

 Cycle   6  Pass 1  IDiag  1:
 RMSU=  2.58D-05    CP:  6.81D-01  1.77D+00  4.83D-01  7.92D-01  1.01D+00
 E= -1149.93520976285     Delta-E=       -0.000136931892 Rises=F Damp=F
 DIIS: error= 1.56D-04 at cycle   6 NSaved=   6.
 NSaved= 6 IEnMin= 6 EnMin= -1149.93520976285     IErMin= 6 ErrMin= 1.56D-04
 ErrMax= 1.56D-04  0.00D+00 EMaxC= 1.00D-01 BMatC= 4.63D-05 BMatP= 1.68D-04
 IDIUse=3 WtCom= 9.98D-01 WtEn= 1.56D-03
 Coeff-Com:  0.204D-01-0.443D-01-0.261D-01-0.156D-02 0.397D+00 0.655D+00
 Coeff-En:   0.000D+00 0.000D+00 0.000D+00 0.000D+00 0.000D+00 0.100D+01
 Coeff:      0.204D-01-0.442D-01-0.260D-01-0.156D-02 0.396D+00 0.655D+00
 Gap=     0.264 Goal=   None    Shift=    0.000
 RMSDP=1.41D-05 MaxDP=1.03D-03 DE=-1.37D-04 OVMax= 1.63D-03

 Cycle   7  Pass 1  IDiag  1:
 RMSU=  8.25D-06    CP:  6.81D-01  1.77D+00  4.85D-01  8.08D-01  1.09D+00
                    CP:  9.94D-01
 E= -1149.93525804876     Delta-E=       -0.000048285905 Rises=F Damp=F
 DIIS: error= 4.84D-05 at cycle   7 NSaved=   7.
 NSaved= 7 IEnMin= 7 EnMin= -1149.93525804876     IErMin= 7 ErrMin= 4.84D-05
 ErrMax= 4.84D-05  0.00D+00 EMaxC= 1.00D-01 BMatC= 1.62D-06 BMatP= 4.63D-05
 IDIUse=1 WtCom= 1.00D+00 WtEn= 0.00D+00
 Coeff-Com:  0.460D-02-0.982D-02-0.875D-02-0.147D-01 0.349D-02 0.109D+00
 Coeff-Com:  0.916D+00
 Coeff:      0.460D-02-0.982D-02-0.875D-02-0.147D-01 0.349D-02 0.109D+00
 Coeff:      0.916D+00
 Gap=     0.264 Goal=   None    Shift=    0.000
 RMSDP=4.85D-06 MaxDP=3.83D-04 DE=-4.83D-05 OVMax= 1.41D-03

 Cycle   8  Pass 1  IDiag  1:
 RMSU=  3.16D-06    CP:  6.81D-01  1.77D+00  4.86D-01  8.10D-01  1.10D+00
                    CP:  1.12D+00  1.08D+00
 E= -1149.93526287386     Delta-E=       -0.000004825106 Rises=F Damp=F
 DIIS: error= 2.18D-05 at cycle   8 NSaved=   8.
 NSaved= 8 IEnMin= 8 EnMin= -1149.93526287386     IErMin= 8 ErrMin= 2.18D-05
 ErrMax= 2.18D-05  0.00D+00 EMaxC= 1.00D-01 BMatC= 5.13D-07 BMatP= 1.62D-06
 IDIUse=1 WtCom= 1.00D+00 WtEn= 0.00D+00
 Coeff-Com: -0.183D-02 0.402D-02 0.182D-02-0.400D-02-0.643D-01-0.731D-01
 Coeff-Com:  0.342D+00 0.795D+00
 Coeff:     -0.183D-02 0.402D-02 0.182D-02-0.400D-02-0.643D-01-0.731D-01
 Coeff:      0.342D+00 0.795D+00
 Gap=     0.265 Goal=   None    Shift=    0.000
 RMSDP=2.12D-06 MaxDP=2.05D-04 DE=-4.83D-06 OVMax= 6.75D-04

 Cycle   9  Pass 1  IDiag  1:
 RMSU=  1.30D-06    CP:  6.81D-01  1.77D+00  4.87D-01  8.10D-01  1.10D+00
                    CP:  1.15D+00  1.15D+00  1.27D+00
 E= -1149.93526406898     Delta-E=       -0.000001195117 Rises=F Damp=F
 DIIS: error= 8.23D-06 at cycle   9 NSaved=   9.
 NSaved= 9 IEnMin= 9 EnMin= -1149.93526406898     IErMin= 9 ErrMin= 8.23D-06
 ErrMax= 8.23D-06  0.00D+00 EMaxC= 1.00D-01 BMatC= 5.71D-08 BMatP= 5.13D-07
 IDIUse=1 WtCom= 1.00D+00 WtEn= 0.00D+00
 Coeff-Com: -0.992D-03 0.213D-02 0.187D-02 0.168D-02-0.145D-01-0.337D-01
 Coeff-Com: -0.689D-01 0.139D+00 0.974D+00
 Coeff:     -0.992D-03 0.213D-02 0.187D-02 0.168D-02-0.145D-01-0.337D-01
 Coeff:     -0.689D-01 0.139D+00 0.974D+00
 Gap=     0.265 Goal=   None    Shift=    0.000
 RMSDP=1.43D-06 MaxDP=1.82D-04 DE=-1.20D-06 OVMax= 4.07D-04

 Cycle  10  Pass 1  IDiag  1:
 RMSU=  4.70D-07    CP:  6.81D-01  1.77D+00  4.87D-01  8.09D-01  1.10D+00
                    CP:  1.17D+00  1.15D+00  1.51D+00  1.29D+00
 E= -1149.93526427812     Delta-E=       -0.000000209141 Rises=F Damp=F
 DIIS: error= 3.72D-06 at cycle  10 NSaved=  10.
 NSaved=10 IEnMin=10 EnMin= -1149.93526427812     IErMin=10 ErrMin= 3.72D-06
 ErrMax= 3.72D-06  0.00D+00 EMaxC= 1.00D-01 BMatC= 9.65D-09 BMatP= 5.71D-08
 IDIUse=1 WtCom= 1.00D+00 WtEn= 0.00D+00
 Coeff-Com:  0.214D-04-0.535D-04 0.275D-03 0.114D-02 0.521D-02 0.170D-03
 Coeff-Com: -0.682D-01-0.806D-01 0.293D+00 0.850D+00
 Coeff:      0.214D-04-0.535D-04 0.275D-03 0.114D-02 0.521D-02 0.170D-03
 Coeff:     -0.682D-01-0.806D-01 0.293D+00 0.850D+00
 Gap=     0.265 Goal=   None    Shift=    0.000
 RMSDP=5.71D-07 MaxDP=6.01D-05 DE=-2.09D-07 OVMax= 1.43D-04

 Cycle  11  Pass 1  IDiag  1:
 RMSU=  1.96D-07    CP:  6.81D-01  1.77D+00  4.88D-01  8.08D-01  1.10D+00
                    CP:  1.17D+00  1.16D+00  1.57D+00  1.43D+00  1.17D+00
 E= -1149.93526430718     Delta-E=       -0.000000029059 Rises=F Damp=F
 DIIS: error= 1.76D-06 at cycle  11 NSaved=  11.
 NSaved=11 IEnMin=11 EnMin= -1149.93526430718     IErMin=11 ErrMin= 1.76D-06
 ErrMax= 1.76D-06  0.00D+00 EMaxC= 1.00D-01 BMatC= 1.57D-09 BMatP= 9.65D-09
 IDIUse=1 WtCom= 1.00D+00 WtEn= 0.00D+00
 Coeff-Com:  0.159D-03-0.343D-03-0.185D-03 0.235D-03 0.402D-02 0.485D-02
 Coeff-Com: -0.121D-01-0.472D-01-0.535D-01 0.276D+00 0.828D+00
 Coeff:      0.159D-03-0.343D-03-0.185D-03 0.235D-03 0.402D-02 0.485D-02
 Coeff:     -0.121D-01-0.472D-01-0.535D-01 0.276D+00 0.828D+00
 Gap=     0.265 Goal=   None    Shift=    0.000
 RMSDP=1.63D-07 MaxDP=1.34D-05 DE=-2.91D-08 OVMax= 5.72D-05

 Cycle  12  Pass 1  IDiag  1:
 RMSU=  7.91D-08    CP:  6.81D-01  1.77D+00  4.88D-01  8.08D-01  1.10D+00
                    CP:  1.17D+00  1.16D+00  1.59D+00  1.45D+00  1.29D+00
                    CP:  1.26D+00
 E= -1149.93526431166     Delta-E=       -0.000000004481 Rises=F Damp=F
 DIIS: error= 6.77D-07 at cycle  12 NSaved=  12.
 NSaved=12 IEnMin=12 EnMin= -1149.93526431166     IErMin=12 ErrMin= 6.77D-07
 ErrMax= 6.77D-07  0.00D+00 EMaxC= 1.00D-01 BMatC= 2.53D-10 BMatP= 1.57D-09
 IDIUse=1 WtCom= 1.00D+00 WtEn= 0.00D+00
 Coeff-Com:  0.246D-04-0.528D-04-0.661D-04-0.360D-04 0.179D-03 0.948D-03
 Coeff-Com:  0.735D-02 0.227D-02-0.578D-01-0.727D-01 0.214D+00 0.906D+00
 Coeff:      0.246D-04-0.528D-04-0.661D-04-0.360D-04 0.179D-03 0.948D-03
 Coeff:      0.735D-02 0.227D-02-0.578D-01-0.727D-01 0.214D+00 0.906D+00
 Gap=     0.265 Goal=   None    Shift=    0.000
 RMSDP=6.41D-08 MaxDP=6.49D-06 DE=-4.48D-09 OVMax= 2.22D-05

 Cycle  13  Pass 1  IDiag  1:
 RMSU=  3.29D-08    CP:  6.81D-01  1.77D+00  4.88D-01  8.08D-01  1.10D+00
                    CP:  1.17D+00  1.16D+00  1.59D+00  1.45D+00  1.33D+00
                    CP:  1.41D+00  1.30D+00
 E= -1149.93526431239     Delta-E=       -0.000000000729 Rises=F Damp=F
 DIIS: error= 2.83D-07 at cycle  13 NSaved=  13.
 NSaved=13 IEnMin=13 EnMin= -1149.93526431239     IErMin=13 ErrMin= 2.83D-07
 ErrMax= 2.83D-07  0.00D+00 EMaxC= 1.00D-01 BMatC= 3.93D-11 BMatP= 2.53D-10
 IDIUse=1 WtCom= 1.00D+00 WtEn= 0.00D+00
 Coeff-Com: -0.106D-04 0.230D-04-0.177D-05-0.509D-04-0.529D-03-0.351D-03
 Coeff-Com:  0.424D-02 0.801D-02-0.107D-01-0.710D-01-0.477D-01 0.295D+00
 Coeff-Com:  0.823D+00
 Coeff:     -0.106D-04 0.230D-04-0.177D-05-0.509D-04-0.529D-03-0.351D-03
 Coeff:      0.424D-02 0.801D-02-0.107D-01-0.710D-01-0.477D-01 0.295D+00
 Coeff:      0.823D+00
 Gap=     0.265 Goal=   None    Shift=    0.000
 RMSDP=2.79D-08 MaxDP=3.02D-06 DE=-7.29D-10 OVMax= 8.11D-06

 Cycle  14  Pass 1  IDiag  1:
 RMSU=  1.20D-08    CP:  6.81D-01  1.77D+00  4.88D-01  8.08D-01  1.10D+00
                    CP:  1.17D+00  1.16D+00  1.59D+00  1.45D+00  1.34D+00
                    CP:  1.45D+00  1.45D+00  1.28D+00
 E= -1149.93526431250     Delta-E=       -0.000000000112 Rises=F Damp=F
 DIIS: error= 1.25D-07 at cycle  14 NSaved=  14.
 NSaved=14 IEnMin=14 EnMin= -1149.93526431250     IErMin=14 ErrMin= 1.25D-07
 ErrMax= 1.25D-07  0.00D+00 EMaxC= 1.00D-01 BMatC= 7.23D-12 BMatP= 3.93D-11
 IDIUse=1 WtCom= 1.00D+00 WtEn= 0.00D+00
 Coeff-Com: -0.531D-05 0.115D-04 0.863D-05-0.122D-04-0.171D-03-0.201D-03
 Coeff-Com: -0.891D-04 0.177D-02 0.609D-02-0.987D-02-0.404D-01-0.751D-01
 Coeff-Com:  0.235D+00 0.883D+00
 Coeff:     -0.531D-05 0.115D-04 0.863D-05-0.122D-04-0.171D-03-0.201D-03
 Coeff:     -0.891D-04 0.177D-02 0.609D-02-0.987D-02-0.404D-01-0.751D-01
 Coeff:      0.235D+00 0.883D+00
 Gap=     0.265 Goal=   None    Shift=    0.000
 RMSDP=1.40D-08 MaxDP=1.47D-06 DE=-1.12D-10 OVMax= 3.42D-06

 Cycle  15  Pass 1  IDiag  1:
 RMSU=  5.66D-09    CP:  6.81D-01  1.77D+00  4.88D-01  8.08D-01  1.10D+00
                    CP:  1.17D+00  1.16D+00  1.59D+00  1.45D+00  1.34D+00
                    CP:  1.46D+00  1.49D+00  1.45D+00  1.24D+00
 E= -1149.93526431253     Delta-E=       -0.000000000023 Rises=F Damp=F
 DIIS: error= 5.87D-08 at cycle  15 NSaved=  15.
 NSaved=15 IEnMin=15 EnMin= -1149.93526431253     IErMin=15 ErrMin= 5.87D-08
 ErrMax= 5.87D-08  0.00D+00 EMaxC= 1.00D-01 BMatC= 1.18D-12 BMatP= 7.23D-12
 IDIUse=1 WtCom= 1.00D+00 WtEn= 0.00D+00
 Coeff-Com: -0.427D-06 0.899D-06 0.372D-05 0.357D-05 0.186D-04-0.118D-04
 Coeff-Com: -0.674D-03-0.605D-03 0.400D-02 0.699D-02-0.336D-02-0.729D-01
 Coeff-Com: -0.580D-01 0.267D+00 0.857D+00
 Coeff:     -0.427D-06 0.899D-06 0.372D-05 0.357D-05 0.186D-04-0.118D-04
 Coeff:     -0.674D-03-0.605D-03 0.400D-02 0.699D-02-0.336D-02-0.729D-01
 Coeff:     -0.580D-01 0.267D+00 0.857D+00
 Gap=     0.265 Goal=   None    Shift=    0.000
 RMSDP=4.72D-09 MaxDP=3.03D-07 DE=-2.32D-11 OVMax= 1.30D-06

 Error on total polarization charges =  0.05646
 SCF Done:  E(RwB97XD) =  -1149.93526431     A.U. after   15 cycles
            NFock= 15  Conv=0.47D-08     -V/T= 2.0055
 KE= 1.143671269203D+03 PE=-7.162213108983D+03 EE= 2.626361325326D+03
 SMD-CDS (non-electrostatic) energy       (kcal/mol) =      -4.99
 (included in total energy above)
 Leave Link  502 at Thu Apr  1 23:17:24 2021, MaxMem=  5242880000 cpu:     18953.5
 (Enter /opt/nce/packages/global/g09/l601.exe)
 Copying SCF densities to generalized density rwf, IOpCl= 0 IROHF=0.

 **********************************************************************

            Population analysis using the SCF density.

 **********************************************************************

 Alpha  occ. eigenvalues --  -19.31753 -19.28734 -19.24219 -10.43304 -10.36824
 Alpha  occ. eigenvalues --  -10.36242 -10.32809 -10.32720 -10.32288 -10.32167
 Alpha  occ. eigenvalues --  -10.31305 -10.31166 -10.30669 -10.30410 -10.30301
 Alpha  occ. eigenvalues --  -10.29724 -10.29680 -10.29629 -10.29528 -10.29434
 Alpha  occ. eigenvalues --  -10.29122 -10.29106 -10.28926 -10.28919 -10.28845
 Alpha  occ. eigenvalues --  -10.28842 -10.28760  -1.22892  -1.17847  -1.14408
 Alpha  occ. eigenvalues --   -0.99711  -0.96910  -0.95938  -0.94039  -0.90236
 Alpha  occ. eigenvalues --   -0.87794  -0.86299  -0.85567  -0.84694  -0.84390
 Alpha  occ. eigenvalues --   -0.82231  -0.79254  -0.76719  -0.74185  -0.73190
 Alpha  occ. eigenvalues --   -0.71210  -0.70372  -0.69780  -0.66722  -0.65693
 Alpha  occ. eigenvalues --   -0.64876  -0.61863  -0.61635  -0.59898  -0.59033
 Alpha  occ. eigenvalues --   -0.58081  -0.57659  -0.55996  -0.55749  -0.55112
 Alpha  occ. eigenvalues --   -0.54824  -0.54216  -0.54165  -0.52490  -0.52218
 Alpha  occ. eigenvalues --   -0.51570  -0.50537  -0.50259  -0.50175  -0.49357
 Alpha  occ. eigenvalues --   -0.48876  -0.48655  -0.47888  -0.46296  -0.45822
 Alpha  occ. eigenvalues --   -0.44880  -0.44760  -0.43901  -0.43612  -0.42853
 Alpha  occ. eigenvalues --   -0.42427  -0.41432  -0.40806  -0.39932  -0.38115
 Alpha  occ. eigenvalues --   -0.37656  -0.34469  -0.33350  -0.32552  -0.32063
 Alpha  occ. eigenvalues --   -0.31320  -0.27730
 Alpha virt. eigenvalues --   -0.01274   0.00568   0.04720   0.05388   0.05627
 Alpha virt. eigenvalues --    0.06689   0.08872   0.11017   0.12754   0.13154
 Alpha virt. eigenvalues --    0.13831   0.14291   0.14992   0.15693   0.16513
 Alpha virt. eigenvalues --    0.16555   0.16849   0.17215   0.17961   0.18300
 Alpha virt. eigenvalues --    0.18766   0.19344   0.19615   0.19816   0.20361
 Alpha virt. eigenvalues --    0.20618   0.20867   0.21442   0.21536   0.22495
 Alpha virt. eigenvalues --    0.23137   0.23916   0.24709   0.25776   0.26221
 Alpha virt. eigenvalues --    0.26364   0.26439   0.26730   0.27144   0.27199
 Alpha virt. eigenvalues --    0.27470   0.28491   0.28741   0.28900   0.29241
 Alpha virt. eigenvalues --    0.29512   0.29614   0.29784   0.30440   0.30757
 Alpha virt. eigenvalues --    0.31582   0.31851   0.31859   0.32025   0.32162
 Alpha virt. eigenvalues --    0.32641   0.33315   0.33416   0.34033   0.34777
 Alpha virt. eigenvalues --    0.34922   0.35149   0.35553   0.35637   0.36105
 Alpha virt. eigenvalues --    0.36413   0.37645   0.37676   0.38022   0.38529
 Alpha virt. eigenvalues --    0.38656   0.39628   0.39958   0.40628   0.41195
 Alpha virt. eigenvalues --    0.41420   0.41469   0.41825   0.42488   0.42606
 Alpha virt. eigenvalues --    0.42801   0.43235   0.43983   0.44159   0.44520
 Alpha virt. eigenvalues --    0.44848   0.45384   0.45701   0.45835   0.46276
 Alpha virt. eigenvalues --    0.46744   0.46893   0.47754   0.48073   0.48079
 Alpha virt. eigenvalues --    0.48318   0.48796   0.48902   0.49769   0.49773
 Alpha virt. eigenvalues --    0.49930   0.50613   0.51223   0.51419   0.52003
 Alpha virt. eigenvalues --    0.52219   0.52609   0.53189   0.54026   0.54176
 Alpha virt. eigenvalues --    0.54607   0.55052   0.55309   0.55730   0.55757
 Alpha virt. eigenvalues --    0.55928   0.56519   0.56838   0.57101   0.57489
 Alpha virt. eigenvalues --    0.58297   0.58368   0.58969   0.59417   0.59504
 Alpha virt. eigenvalues --    0.60103   0.60248   0.61477   0.61968   0.62992
 Alpha virt. eigenvalues --    0.63508   0.64103   0.64911   0.65442   0.65750
 Alpha virt. eigenvalues --    0.66284   0.67402   0.67554   0.68532   0.69276
 Alpha virt. eigenvalues --    0.70153   0.70644   0.71117   0.71587   0.72148
 Alpha virt. eigenvalues --    0.72162   0.72661   0.73131   0.73276   0.73616
 Alpha virt. eigenvalues --    0.73707   0.74496   0.75152   0.75309   0.75789
 Alpha virt. eigenvalues --    0.75962   0.77050   0.77261   0.77603   0.77707
 Alpha virt. eigenvalues --    0.77757   0.78209   0.78927   0.79353   0.79540
 Alpha virt. eigenvalues --    0.80422   0.80552   0.80918   0.80926   0.82455
 Alpha virt. eigenvalues --    0.82623   0.82764   0.83173   0.84022   0.84049
 Alpha virt. eigenvalues --    0.84780   0.84871   0.86026   0.86391   0.86713
 Alpha virt. eigenvalues --    0.87301   0.87736   0.88080   0.88499   0.88827
 Alpha virt. eigenvalues --    0.89189   0.90126   0.91051   0.91529   0.92054
 Alpha virt. eigenvalues --    0.92342   0.93437   0.93720   0.93933   0.93998
 Alpha virt. eigenvalues --    0.94511   0.94620   0.95189   0.95876   0.96117
 Alpha virt. eigenvalues --    0.97437   0.97829   0.98130   0.98508   0.99503
 Alpha virt. eigenvalues --    1.00372   1.01069   1.02085   1.02610   1.03163
 Alpha virt. eigenvalues --    1.03200   1.05302   1.05535   1.06837   1.07105
 Alpha virt. eigenvalues --    1.08580   1.08865   1.09694   1.10315   1.11059
 Alpha virt. eigenvalues --    1.11130   1.11405   1.12098   1.13515   1.14038
 Alpha virt. eigenvalues --    1.15130   1.15621   1.16164   1.16958   1.17417
 Alpha virt. eigenvalues --    1.18181   1.18976   1.20197   1.20361   1.21061
 Alpha virt. eigenvalues --    1.22053   1.22127   1.23392   1.23768   1.24919
 Alpha virt. eigenvalues --    1.26473   1.26520   1.26751   1.28244   1.28840
 Alpha virt. eigenvalues --    1.29022   1.30385   1.30473   1.31083   1.32118
 Alpha virt. eigenvalues --    1.32146   1.33170   1.33340   1.34126   1.34538
 Alpha virt. eigenvalues --    1.34677   1.35339   1.36099   1.36893   1.38030
 Alpha virt. eigenvalues --    1.38792   1.39799   1.40298   1.40687   1.41011
 Alpha virt. eigenvalues --    1.41613   1.43335   1.44431   1.44704   1.45073
 Alpha virt. eigenvalues --    1.45334   1.46809   1.48403   1.48613   1.48656
 Alpha virt. eigenvalues --    1.48932   1.50187   1.50659   1.51269   1.52358
 Alpha virt. eigenvalues --    1.52978   1.53500   1.54640   1.55305   1.55478
 Alpha virt. eigenvalues --    1.56254   1.56548   1.57110   1.57566   1.58542
 Alpha virt. eigenvalues --    1.58641   1.59001   1.59496   1.60346   1.60431
 Alpha virt. eigenvalues --    1.60694   1.61083   1.61826   1.62129   1.62725
 Alpha virt. eigenvalues --    1.62837   1.63639   1.65170   1.65235   1.66669
 Alpha virt. eigenvalues --    1.66729   1.67182   1.67373   1.68709   1.69877
 Alpha virt. eigenvalues --    1.69997   1.70379   1.71117   1.71220   1.71948
 Alpha virt. eigenvalues --    1.72502   1.73506   1.74712   1.74726   1.75730
 Alpha virt. eigenvalues --    1.76817   1.76963   1.77796   1.77931   1.78321
 Alpha virt. eigenvalues --    1.79048   1.79300   1.79837   1.79927   1.81003
 Alpha virt. eigenvalues --    1.81166   1.82505   1.82509   1.82888   1.83781
 Alpha virt. eigenvalues --    1.84588   1.85440   1.85765   1.85947   1.88475
 Alpha virt. eigenvalues --    1.88485   1.89341   1.90040   1.91714   1.92006
 Alpha virt. eigenvalues --    1.93626   1.94168   1.94411   1.95257   1.96122
 Alpha virt. eigenvalues --    1.96749   1.98136   1.98948   1.99623   2.00663
 Alpha virt. eigenvalues --    2.01231   2.01555   2.02442   2.03486   2.04649
 Alpha virt. eigenvalues --    2.05483   2.05918   2.06791   2.08062   2.08272
 Alpha virt. eigenvalues --    2.09035   2.09094   2.09548   2.11010   2.12762
 Alpha virt. eigenvalues --    2.13058   2.13315   2.15215   2.16418   2.16870
 Alpha virt. eigenvalues --    2.18398   2.18551   2.19228   2.20199   2.20482
 Alpha virt. eigenvalues --    2.20663   2.20783   2.22485   2.23749   2.24045
 Alpha virt. eigenvalues --    2.24531   2.25009   2.25336   2.25629   2.26659
 Alpha virt. eigenvalues --    2.27342   2.27389   2.28935   2.30146   2.30326
 Alpha virt. eigenvalues --    2.30800   2.32997   2.33061   2.33942   2.34832
 Alpha virt. eigenvalues --    2.35518   2.35798   2.37316   2.38704   2.38960
 Alpha virt. eigenvalues --    2.39431   2.39620   2.41384   2.41756   2.42870
 Alpha virt. eigenvalues --    2.43712   2.45251   2.45724   2.46426   2.46973
 Alpha virt. eigenvalues --    2.50000   2.50292   2.51246   2.52127   2.53984
 Alpha virt. eigenvalues --    2.55101   2.55778   2.55827   2.56987   2.58130
 Alpha virt. eigenvalues --    2.58753   2.59048   2.59892   2.61324   2.61601
 Alpha virt. eigenvalues --    2.62323   2.62384   2.62598   2.63453   2.64020
 Alpha virt. eigenvalues --    2.66125   2.66349   2.68218   2.68274   2.68590
 Alpha virt. eigenvalues --    2.69267   2.69550   2.70880   2.71310   2.71768
 Alpha virt. eigenvalues --    2.71926   2.72951   2.73356   2.74380   2.74496
 Alpha virt. eigenvalues --    2.75163   2.75397   2.75875   2.76523   2.76980
 Alpha virt. eigenvalues --    2.77732   2.77924   2.79056   2.79134   2.79271
 Alpha virt. eigenvalues --    2.80046   2.80310   2.81617   2.82208   2.82326
 Alpha virt. eigenvalues --    2.83101   2.83234   2.83982   2.84341   2.85004
 Alpha virt. eigenvalues --    2.85312   2.85371   2.86270   2.87899   2.88005
 Alpha virt. eigenvalues --    2.88486   2.88790   2.88991   2.88996   2.90086
 Alpha virt. eigenvalues --    2.90750   2.91100   2.91523   2.91538   2.92983
 Alpha virt. eigenvalues --    2.93549   2.93732   2.93914   2.94254   2.95409
 Alpha virt. eigenvalues --    2.95475   2.96096   2.96815   2.97207   2.98010
 Alpha virt. eigenvalues --    2.98274   2.99036   2.99317   2.99860   3.00355
 Alpha virt. eigenvalues --    3.01678   3.01964   3.02424   3.02494   3.04758
 Alpha virt. eigenvalues --    3.05072   3.05227   3.05911   3.06132   3.07105
 Alpha virt. eigenvalues --    3.07803   3.07902   3.08525   3.09354   3.09917
 Alpha virt. eigenvalues --    3.10832   3.11301   3.12153   3.13027   3.13226
 Alpha virt. eigenvalues --    3.14363   3.14771   3.14881   3.16897   3.16959
 Alpha virt. eigenvalues --    3.17504   3.18073   3.18207   3.19106   3.19401
 Alpha virt. eigenvalues --    3.20019   3.20361   3.21485   3.21931   3.22168
 Alpha virt. eigenvalues --    3.22906   3.23184   3.24095   3.24654   3.25632
 Alpha virt. eigenvalues --    3.25766   3.25985   3.26142   3.26469   3.27232
 Alpha virt. eigenvalues --    3.28225   3.28395   3.28879   3.29231   3.29816
 Alpha virt. eigenvalues --    3.30268   3.30690   3.31286   3.31974   3.33058
 Alpha virt. eigenvalues --    3.33662   3.34595   3.34806   3.35449   3.35504
 Alpha virt. eigenvalues --    3.35656   3.36537   3.37096   3.38187   3.38590
[...]
     7  C   -0.019541   0.000392   0.000393  -0.000006  -0.000054  -0.000006
     8  C    0.175881  -0.109823  -0.109802  -0.016908  -0.004672  -0.016903
     9  C   -0.181565   0.007666   0.007652  -0.001818   0.002123  -0.001820
    10  C    0.058843   0.000244   0.000233  -0.000022   0.000035  -0.000022
    11  C   -0.006445   0.000124   0.000123  -0.000023   0.000003  -0.000023
    12  C    0.001996  -0.000005  -0.000004   0.000010   0.000007   0.000010
    13  C   -0.127187  -0.004045  -0.004028  -0.000172  -0.000206  -0.000172
    14  H    0.000286  -0.000009  -0.000009   0.000000  -0.000001   0.000000
    15  H    0.000000   0.000000   0.000000  -0.000000   0.000000  -0.000000
    16  H    0.000051  -0.000002  -0.000002   0.000000  -0.000000   0.000000
    17  H    0.003876   0.000203   0.000203  -0.000461   0.000099  -0.000461
    18  H    0.000054  -0.000006  -0.000006   0.000008   0.000001   0.000008
    19  C    5.823756   0.317509   0.317467   0.069294  -0.068649   0.069303
    20  C    0.317509   5.236998   0.039812   0.351210   0.466910  -0.084618
    21  C    0.317467   0.039812   5.237010  -0.084617   0.015583   0.351191
    22  C    0.069294   0.351210  -0.084617   5.118844  -0.063055   0.051039
    23  H   -0.068649   0.466910   0.015583  -0.063055   0.490762  -0.005238
    24  C    0.069303  -0.084618   0.351191   0.051039  -0.005238   5.118870
    25  H   -0.068647   0.015582   0.466909  -0.005238   0.000013  -0.063054
    26  C   -0.128745   0.056427   0.056432   0.340292   0.012715   0.340281
    27  H    0.014577  -0.063538  -0.004986   0.465006  -0.007080   0.012833
    28  H    0.014576  -0.004986  -0.063537   0.012832   0.000010   0.465005
    29  H   -0.003834   0.010869   0.010869  -0.057059  -0.000035  -0.057059
    30  O   -0.019314   0.004913   0.004917   0.003069  -0.000358   0.003069
    31  O   -0.002673  -0.000223  -0.000222   0.000002   0.000026   0.000002
    32  C   -0.000190  -0.000001  -0.000001  -0.000000  -0.000000  -0.000000
    33  C    0.000116   0.000003   0.000003   0.000000   0.000000   0.000000
    34  C    0.000003   0.000000   0.000000  -0.000000  -0.000000  -0.000000
    35  C    0.000008  -0.000000  -0.000000   0.000000   0.000000   0.000000
    36  H    0.000000  -0.000000  -0.000000   0.000000  -0.000000   0.000000
    37  H    0.000005  -0.000000  -0.000000  -0.000000   0.000000  -0.000000
    38  H    0.000009  -0.000000  -0.000000   0.000000   0.000000   0.000000
    39  O    0.000000   0.000000   0.000000   0.000000   0.000000   0.000000
    40  C    0.000000  -0.000000  -0.000000   0.000000   0.000000   0.000000
    41  H   -0.000000  -0.000000   0.000000  -0.000000   0.000000   0.000000
    42  H    0.000000   0.000000   0.000000   0.000000   0.000000   0.000000
    43  H   -0.000000   0.000000  -0.000000   0.000000  -0.000000  -0.000000
              25         26         27         28         29         30
     1  C   -0.000005   0.000004  -0.000000  -0.000000   0.000000  -0.000001
     2  C    0.000013   0.000000   0.000000   0.000000   0.000000   0.000003
     3  C    0.000264   0.000012  -0.000004  -0.000004   0.000000  -0.001065
     4  C    0.002894   0.001011  -0.000076  -0.000076   0.000010   0.006708
     5  C   -0.000087   0.000698   0.000007   0.000007  -0.000006   0.000133
     6  C    0.000032  -0.000094  -0.000000  -0.000000  -0.000001   0.000009
     7  C   -0.000054   0.000002  -0.000000  -0.000000  -0.000000   0.002002
     8  C   -0.004672   0.004292  -0.000382  -0.000382   0.000039  -0.030926
     9  C    0.002120   0.000538  -0.000026  -0.000026   0.000004  -0.154477
    10  C    0.000036   0.000003  -0.000000  -0.000000   0.000000  -0.006547
    11  C    0.000004   0.000002  -0.000000  -0.000000   0.000000  -0.002431
    12  C    0.000007  -0.000002   0.000000   0.000000  -0.000000  -0.000265
    13  C   -0.000207   0.000458   0.000002   0.000002  -0.000008   0.779571
    14  H   -0.000001  -0.000000   0.000000   0.000000  -0.000000   0.000008
    15  H    0.000000  -0.000000   0.000000   0.000000  -0.000000  -0.000000
    16  H   -0.000000  -0.000000  -0.000000  -0.000000   0.000000   0.000000
    17  H    0.000099   0.000937  -0.000031  -0.000031   0.000006   0.000014
    18  H    0.000001  -0.000004   0.000000   0.000000  -0.000000   0.000000
    19  C   -0.068647  -0.128745   0.014577   0.014576  -0.003834  -0.019314
    20  C    0.015582   0.056427  -0.063538  -0.004986   0.010869   0.004913
    21  C    0.466909   0.056432  -0.004986  -0.063537   0.010869   0.004917
    22  C   -0.005238   0.340292   0.465006   0.012832  -0.057059   0.003069
    23  H    0.000013   0.012715  -0.007080   0.000010  -0.000035  -0.000358
    24  C   -0.063054   0.340281   0.012833   0.465005  -0.057059   0.003069
    25  H    0.490762   0.012715   0.000010  -0.007080  -0.000035  -0.000358
    26  C    0.012715   5.111414  -0.060343  -0.060342   0.458632  -0.001568
    27  H    0.000010  -0.060343   0.491921  -0.000011  -0.006666   0.000062
    28  H   -0.007080  -0.060342  -0.000011   0.491921  -0.006666   0.000062
    29  H   -0.000035   0.458632  -0.006666  -0.006666   0.489422  -0.000012
    30  O   -0.000358  -0.001568   0.000062   0.000062  -0.000012   7.881161
    31  O    0.000026   0.000003   0.000000   0.000000  -0.000000  -0.104132
    32  C   -0.000000   0.000000  -0.000000  -0.000000   0.000000   0.000288
    33  C    0.000000  -0.000000   0.000000   0.000000  -0.000000   0.000206
    34  C   -0.000000   0.000000  -0.000000  -0.000000   0.000000   0.000015
    35  C    0.000000  -0.000000   0.000000   0.000000  -0.000000  -0.000023
    36  H   -0.000000  -0.000000   0.000000   0.000000  -0.000000  -0.000000
    37  H    0.000000   0.000000  -0.000000  -0.000000   0.000000   0.000001
    38  H    0.000000  -0.000000   0.000000   0.000000  -0.000000  -0.000052
    39  O    0.000000  -0.000000   0.000000   0.000000   0.000000  -0.000000
    40  C    0.000000  -0.000000   0.000000   0.000000   0.000000   0.000000
    41  H   -0.000000   0.000000  -0.000000  -0.000000  -0.000000  -0.000000
    42  H    0.000000   0.000000  -0.000000  -0.000000   0.000000  -0.000000
    43  H    0.000000   0.000000  -0.000000  -0.000000  -0.000000  -0.000000
              31         32         33         34         35         36
     1  C   -0.000001  -0.000035   0.000000  -0.000000  -0.000001   0.000000
     2  C    0.000004   0.000412  -0.000006   0.000002  -0.000007  -0.000000
     3  C   -0.000617   0.001562   0.000258   0.000052  -0.001027   0.000015
     4  C    0.001407   0.001893  -0.000128   0.000001  -0.000006  -0.000000
     5  C    0.000024  -0.000020  -0.000001   0.000000  -0.000001  -0.000000
     6  C    0.000001   0.000011  -0.000000   0.000000   0.000000  -0.000000
     7  C    0.001618  -0.009435  -0.000207  -0.000590  -0.001786   0.000200
     8  C   -0.003326  -0.008116   0.001011  -0.000257   0.000583   0.000002
     9  C   -0.163034   0.025723   0.023153  -0.002228   0.003834  -0.000018
    10  C    0.000908  -0.108071  -0.008717   0.003242  -0.008659  -0.000500
    11  C   -0.092785   0.218623   0.083815  -0.147219   0.083714   0.015514
    12  C    0.263499   0.010543   0.320051   0.050548  -0.101092  -0.001961
    13  C    0.461857   0.018639  -0.020790   0.000897  -0.001864  -0.000013
    14  H   -0.000012   0.010513  -0.000112   0.000025   0.000869  -0.000004
    15  H   -0.000000  -0.000000   0.000000  -0.000000  -0.000000   0.000000
    16  H   -0.000000   0.000131  -0.000000   0.000001  -0.000000  -0.000000
    17  H    0.000000   0.000001  -0.000000   0.000000  -0.000000  -0.000000
    18  H    0.000000   0.000000  -0.000000  -0.000000   0.000000  -0.000000
    19  C   -0.002673  -0.000190   0.000116   0.000003   0.000008   0.000000
    20  C   -0.000223  -0.000001   0.000003   0.000000  -0.000000  -0.000000
    21  C   -0.000222  -0.000001   0.000003   0.000000  -0.000000  -0.000000
    22  C    0.000002  -0.000000   0.000000  -0.000000   0.000000   0.000000
    23  H    0.000026  -0.000000   0.000000  -0.000000   0.000000  -0.000000
    24  C    0.000002  -0.000000   0.000000  -0.000000   0.000000   0.000000
    25  H    0.000026  -0.000000   0.000000  -0.000000   0.000000  -0.000000
    26  C    0.000003   0.000000  -0.000000   0.000000  -0.000000  -0.000000
    27  H    0.000000  -0.000000   0.000000  -0.000000   0.000000   0.000000
    28  H    0.000000  -0.000000   0.000000  -0.000000   0.000000   0.000000
    29  H   -0.000000   0.000000  -0.000000   0.000000  -0.000000  -0.000000
    30  O   -0.104132   0.000288   0.000206   0.000015  -0.000023  -0.000000
    31  O    7.881674   0.006391  -0.027068   0.004572   0.000033   0.000009
    32  C    0.006391   5.440081  -0.153241   0.188150   0.232046  -0.029292
    33  C   -0.027068  -0.153241   5.405532   0.292699   0.103036   0.007323
    34  C    0.004572   0.188150   0.292699   4.942012   0.078247  -0.070280
    35  C    0.000033   0.232046   0.103036   0.078247   5.550102   0.449832
    36  H    0.000009  -0.029292   0.007323  -0.070280   0.449832   0.454256
    37  H   -0.000070   0.417939  -0.001200   0.006871  -0.032305  -0.005018
    38  H    0.005052  -0.010652   0.479459  -0.084748   0.024080   0.000184
    39  O   -0.000022   0.010307  -0.072408   0.409711  -0.099491  -0.007535
    40  C    0.000011  -0.005684   0.009296  -0.086665   0.013457   0.008745
    41  H    0.000000  -0.000758   0.000974  -0.014150   0.009953   0.001670
    42  H   -0.000000   0.000373  -0.001055   0.004330  -0.001884  -0.000449
    43  H    0.000000  -0.000760   0.000976  -0.014146   0.009953   0.001669
              37         38         39         40         41         42
     1  C   -0.000001   0.000000  -0.000000   0.000000   0.000000  -0.000000
     2  C    0.000057   0.000000   0.000000   0.000000  -0.000000   0.000000
     3  C    0.003349   0.000002  -0.000000   0.000000  -0.000000   0.000000
     4  C    0.000263  -0.000003   0.000000  -0.000000   0.000000  -0.000000
     5  C   -0.000005  -0.000000   0.000000  -0.000000   0.000000  -0.000000
     6  C    0.000001  -0.000000  -0.000000  -0.000000   0.000000   0.000000
     7  C    0.015826   0.000034  -0.000014   0.000016   0.000001  -0.000000
     8  C   -0.000219   0.000059  -0.000000   0.000000  -0.000000  -0.000000
     9  C   -0.001593   0.001574  -0.000006  -0.000003  -0.000000  -0.000000
    10  C   -0.022757  -0.001065   0.000139  -0.000027  -0.000005   0.000000
    11  C   -0.030617   0.023315  -0.003151   0.002641   0.000178  -0.000072
    12  C    0.007536  -0.077578   0.005539  -0.002582  -0.000075   0.000116
    13  C    0.000052  -0.001317   0.000011  -0.000003   0.000000   0.000000
    14  H    0.009725   0.000002  -0.000001   0.000003   0.000000  -0.000000
    15  H    0.000000   0.000000  -0.000000   0.000000  -0.000000   0.000000
    16  H    0.000089  -0.000000  -0.000000   0.000000  -0.000000   0.000000
    17  H    0.000000  -0.000000   0.000000  -0.000000  -0.000000   0.000000
    18  H   -0.000000  -0.000000   0.000000  -0.000000  -0.000000   0.000000
    19  C    0.000005   0.000009   0.000000   0.000000  -0.000000   0.000000
    20  C   -0.000000  -0.000000   0.000000  -0.000000  -0.000000   0.000000
    21  C   -0.000000  -0.000000   0.000000  -0.000000   0.000000   0.000000
    22  C   -0.000000   0.000000   0.000000   0.000000  -0.000000   0.000000
    23  H    0.000000   0.000000   0.000000   0.000000   0.000000   0.000000
    24  C   -0.000000   0.000000   0.000000   0.000000   0.000000   0.000000
    25  H    0.000000   0.000000   0.000000   0.000000  -0.000000   0.000000
    26  C    0.000000  -0.000000  -0.000000  -0.000000   0.000000   0.000000
    27  H   -0.000000   0.000000   0.000000   0.000000  -0.000000  -0.000000
    28  H   -0.000000   0.000000   0.000000   0.000000  -0.000000  -0.000000
    29  H    0.000000  -0.000000   0.000000   0.000000  -0.000000   0.000000
    30  O    0.000001  -0.000052  -0.000000   0.000000  -0.000000  -0.000000
    31  O   -0.000070   0.005052  -0.000022   0.000011   0.000000  -0.000000
    32  C    0.417939  -0.010652   0.010307  -0.005684  -0.000758   0.000373
    33  C   -0.001200   0.479459  -0.072408   0.009296   0.000974  -0.001055
    34  C    0.006871  -0.084748   0.409711  -0.086665  -0.014150   0.004330
    35  C   -0.032305   0.024080  -0.099491   0.013457   0.009953  -0.001884
    36  H   -0.005018   0.000184  -0.007535   0.008745   0.001670  -0.000449
    37  H    0.461089  -0.000005   0.000030  -0.000175  -0.000038   0.000003
    38  H   -0.000005   0.480238   0.006766   0.000024   0.000102  -0.000198
    39  O    0.000030   0.006766   7.920633   0.230080  -0.038929  -0.026688
    40  C   -0.000175   0.000024   0.230080   4.830536   0.415211   0.400921
    41  H   -0.000038   0.000102  -0.038929   0.415211   0.540563  -0.018277
    42  H    0.000003  -0.000198  -0.026688   0.400921  -0.018277   0.497734
    43  H   -0.000038   0.000102  -0.038931   0.415213  -0.043407  -0.018276
              43
     1  C    0.000000
     2  C   -0.000000
     3  C   -0.000000
     4  C    0.000000
     5  C    0.000000
     6  C    0.000000
     7  C    0.000001
     8  C   -0.000000
     9  C   -0.000000
    10  C   -0.000005
    11  C    0.000178
    12  C   -0.000076
    13  C    0.000000
    14  H    0.000000
    15  H   -0.000000
    16  H   -0.000000
    17  H   -0.000000
    18  H   -0.000000
    19  C   -0.000000
    20  C    0.000000
    21  C   -0.000000
    22  C    0.000000
    23  H   -0.000000
    24  C   -0.000000
    25  H    0.000000
    26  C    0.000000
    27  H   -0.000000
    28  H   -0.000000
    29  H   -0.000000
    30  O   -0.000000
    31  O    0.000000
    32  C   -0.000760
    33  C    0.000976
    34  C   -0.014146
    35  C    0.009953
    36  H    0.001669
    37  H   -0.000038
    38  H    0.000102
    39  O   -0.038931
    40  C    0.415213
    41  H   -0.043407
    42  H   -0.018276
    43  H    0.540560
 Mulliken charges:
               1
     1  C   -0.114868
     2  C   -0.257490
     3  C    0.150064
     4  C    0.028719
     5  C   -0.251967
     6  C   -0.167957
     7  C   -0.413227
     8  C    0.326030
     9  C   -0.169792
    10  C    0.187628
    11  C    0.070500
    12  C    0.263414
    13  C    0.384300
    14  H    0.159509
    15  H    0.164491
    16  H    0.158253
    17  H    0.185842
    18  H    0.162287
    19  C    0.086195
    20  C   -0.252792
    21  C   -0.252782
    22  C   -0.178307
    23  H    0.157952
    24  C   -0.178313
    25  H    0.157952
    26  C   -0.145768
    27  H    0.158727
    28  H    0.158726
    29  H    0.161528
    30  O   -0.364685
    31  O   -0.232938
    32  C   -0.257372
    33  C   -0.442978
    34  C    0.438905
    35  C   -0.311598
    36  H    0.175651
    37  H    0.171205
    38  H    0.154617
    39  O   -0.296040
    40  C   -0.231016
    41  H    0.146985
    42  H    0.163423
    43  H    0.146987
 Sum of Mulliken charges =  -0.00000
 Mulliken charges with hydrogens summed into heavy atoms:
               1
     1  C    0.049624
     2  C   -0.099237
     3  C    0.150064
     4  C    0.028719
     5  C   -0.066125
     6  C   -0.005670
     7  C   -0.253717
     8  C    0.326030
     9  C   -0.169792
    10  C    0.187628
    11  C    0.070500
    12  C    0.263414
    13  C    0.384300
    19  C    0.086195
    20  C   -0.094839
    21  C   -0.094830
    22  C   -0.019581
    24  C   -0.019587
    26  C    0.015760
    30  O   -0.364685
    31  O   -0.232938
    32  C   -0.086167
    33  C   -0.288361
    34  C    0.438905
    35  C   -0.135947
    39  O   -0.296040
    40  C    0.226378
 Electronic spatial extent (au):  <R**2>=          11176.2349
 Charge=              0.0000 electrons
 Dipole moment (field-independent basis, Debye):
    X=              2.9682    Y=              7.4274    Z=              0.0005  Tot=              7.9985
 Quadrupole moment (field-independent basis, Debye-Ang):
   XX=           -108.1704   YY=           -148.8247   ZZ=           -152.8555
   XY=              9.4140   XZ=             -0.0033   YZ=             -0.0022
 Traceless Quadrupole moment (field-independent basis, Debye-Ang):
   XX=             28.4465   YY=            -12.2079   ZZ=            -16.2386
   XY=              9.4140   XZ=             -0.0033   YZ=             -0.0022
 Octapole moment (field-independent basis, Debye-Ang**2):
  XXX=            239.0217  YYY=             99.6285  ZZZ=             -0.0061  XYY=            -13.1723
  XXY=             40.6896  XXZ=             -0.0190  XZZ=             -6.0803  YZZ=            -29.8195
  YYZ=              0.0216  XYZ=             -0.0043
 Hexadecapole moment (field-independent basis, Debye-Ang**3):
 XXXX=          -8527.4408 YYYY=          -3517.9374 ZZZZ=           -396.1380 XXXY=            364.8223
 XXXZ=              0.1727 YYYX=           -111.1858 YYYZ=             -0.1153 ZZZX=              0.3091
 ZZZY=             -0.1548 XXYY=          -2166.5576 XXZZ=          -1890.2162 YYZZ=           -727.1916
 XXYZ=             -0.0242 YYXZ=              0.0320 ZZXY=             66.2594
 N-N= 2.255452692289D+03 E-N=-7.189396677081D+03  KE= 1.144556925689D+03
 Leave Link  601 at Fri Apr  2 10:46:06 2021, MaxMem=  5242880000 cpu:         7.5
 (Enter /opt/nce/packages/global/g09/l9999.exe)
 1\1\GINC-CN008\SP\RwB97XD TD-FC\Gen\C24H16O3\PNG4RJV\02-Apr-2021\0\\#p
  wB97XD chkbasis geom=allcheck Guess=Read int=ultrafine scrf=(SMD,solv
 ent=Acetonitrile) td=(NStates=30)\\Title\\0,1\C,0,2.8084530316,4.10347
 70751,-0.0007475977\C,0,1.4838650507,3.783322643,-0.0005703535\C,0,1.0
 678535225,2.4271520376,-0.0003985127\C,0,2.0434682983,1.3988661317,-0.
 0003996134\C,0,3.4154045946,1.7701199674,-0.0005930419\C,0,3.785018447
 1,3.0829732318,-0.000762693\C,0,-0.2949645388,2.0905136941,-0.00025231
 57\C,0,1.6222520004,0.0406836588,-0.0002227371\C,0,0.2674190684,-0.256
 8089251,-0.0000735712\C,0,-0.7110026863,0.7846519235,-0.0001094324\C,0
 ,-2.1283736988,0.420091196,-0.0000196868\C,0,-2.4712685799,-0.92692524
 4,-0.0000201647\C,0,-0.1824093808,-1.6682243399,0.0001617764\H,0,-1.01
 17131851,2.9006537036,-0.0002766863\H,0,3.1184605483,5.1411515947,-0.0
 008821265\H,0,0.7257071473,4.5575700326,-0.0005635783\H,0,4.174815854,
 1.0004099675,-0.0006105345\H,0,4.8349320081,3.3478448027,-0.0009129209
 \C,0,2.6914657465,-0.9982162852,-0.0002352381\C,0,3.2227284847,-1.4559
 472024,-1.2002517055\C,0,3.2231330164,-1.4555762357,1.1997445311\C,0,4
 .2583377538,-2.3783633399,-1.2003745201\H,0,2.8201353835,-1.0909822425
 ,-2.1377417798\C,0,4.2587364345,-2.3779956959,1.1998031409\H,0,2.82085
 43997,-1.0903238585,2.1372573523\C,0,4.7773690605,-2.8446912615,-0.000
 3013539\H,0,4.6621238124,-2.7323385732,-2.1412054538\H,0,4.6628343504,
 -2.7316877113,2.1406068802\H,0,5.5869916655,-3.5642194027,-0.000325585
 9\O,0,0.5215919266,-2.6411890772,0.0003059926\O,0,-1.5187538294,-1.905
 0766833,-0.0000267567\C,0,-3.1860251109,1.3302901776,0.0000263547\C,0,
 -3.7789520249,-1.3694459758,0.000004166\C,0,-4.8101325425,-0.438831145
 5,0.0000466728\C,0,-4.5062825435,0.9249673168,0.0000623787\H,0,-5.2883
 518827,1.6700514603,0.000099094\H,0,-2.9848696547,2.3929309664,0.00003
 6057\H,0,-3.9955688606,-2.4294986178,0.000004456\O,0,-6.0589166425,-0.
 9382280513,0.0000725758\C,0,-7.1505009824,-0.0314920499,0.0001833471\H
 ,0,-7.1434112024,0.5981629087,-0.8933559867\H,0,-8.0482669683,-0.64573
 30398,0.0002259313\H,0,-7.1432822917,0.5980994681,0.8937662401\\Versio
 n=ES64L-G09RevE.01\State=1-A\HF=-1149.9392263\RMSD=9.401e-09\PG=C01 [X
 (C24H16O3)]\\@


 WHERE THERE IS MUCH DESIRE TO LEARN, THERE OF NECESSITY WILL BE
 MUCH ARGUING, MUCH WRITING, MANY OPINIONS; FOR OPINION IN GOOD MEN
 IS BUT KNOWLEDGE IN THE MAKING. -- JOHN MILTON.
 Job cpu time:       1 days 14 hours 48 minutes 48.4 seconds.
 File lengths (MBytes):  RWF=   4331 Int=      0 D2E=      0 Chk=    780 Scr=      1
 Normal termination of Gaussian 09 at Fri Apr  2 10:46:08 2021.
