
                                 *****************
                                 * O   R   C   A *
                                 *****************

                                            #,                                       
                                            ###                                      
                                            ####                                     
                                            #####                                    
                                            ######                                   
                                           ########,                                 
                                     ,,################,,,,,                         
                               ,,#################################,,                 
                          ,,##########################################,,             
                       ,#########################################, ''#####,          
                    ,#############################################,,   '####,        
                  ,##################################################,,,,####,       
                ,###########''''           ''''###############################       
              ,#####''   ,,,,##########,,,,          '''####'''          '####       
            ,##' ,,,,###########################,,,                        '##       
           ' ,,###''''                  '''############,,,                           
         ,,##''                                '''############,,,,        ,,,,,,###''
      ,#''                                            '''#######################'''  
     '                                                          ''''####''''         
             ,#######,   #######,   ,#######,      ##                                
            ,#'     '#,  ##    ##  ,#'     '#,    #''#        ######   ,####,        
            ##       ##  ##   ,#'  ##            #'  '#       #        #'  '#        
            ##       ##  #######   ##           ,######,      #####,   #    #        
            '#,     ,#'  ##    ##  '#,     ,#' ,#      #,         ##   #,  ,#        
             '#######'   ##     ##  '#######'  #'      '#     #####' # '####'        



                  #######################################################
                  #                        -***-                        #
                  #          Department of theory and spectroscopy      #
                  #    Directorship and core code : Frank Neese         #
                  #        Max Planck Institute fuer Kohlenforschung    #
                  #                Kaiser Wilhelm Platz 1               #
                  #                 D-45470 Muelheim/Ruhr               #
                  #                      Germany                        #
                  #                                                     #
                  #                  All rights reserved                #
                  #                        -***-                        #
                  #######################################################


                         Program Version 5.0.2 -  RELEASE  -


 With contributions from (in alphabetic order):
   Daniel Aravena         : Magnetic Suceptibility
   Michael Atanasov       : Ab Initio Ligand Field Theory (pilot matlab implementation)
   Alexander A. Auer      : GIAO ZORA, VPT2 properties, NMR spectrum
   Ute Becker             : Parallelization
   Giovanni Bistoni       : ED, misc. LED, open-shell LED, HFLD
   Martin Brehm           : Molecular dynamics
   Dmytro Bykov           : SCF Hessian
   Vijay G. Chilkuri      : MRCI spin determinant printing, contributions to CSF-ICE
   Dipayan Datta          : RHF DLPNO-CCSD density
   Achintya Kumar Dutta   : EOM-CC, STEOM-CC
   Dmitry Ganyushin       : Spin-Orbit,Spin-Spin,Magnetic field MRCI
   Miquel Garcia          : C-PCM and meta-GGA Hessian, CC/C-PCM, Gaussian charge scheme
   Yang Guo               : DLPNO-NEVPT2, F12-NEVPT2, CIM, IAO-localization
   Andreas Hansen         : Spin unrestricted coupled pair/coupled cluster methods
   Benjamin Helmich-Paris : MC-RPA, TRAH-SCF, COSX integrals
   Lee Huntington         : MR-EOM, pCC
   Robert Izsak           : Overlap fitted RIJCOSX, COSX-SCS-MP3, EOM
   Marcus Kettner         : VPT2
   Christian Kollmar      : KDIIS, OOCD, Brueckner-CCSD(T), CCSD density, CASPT2, CASPT2-K
   Simone Kossmann        : Meta GGA functionals, TD-DFT gradient, OOMP2, MP2 Hessian
   Martin Krupicka        : Initial AUTO-CI
   Lucas Lang             : DCDCAS
   Marvin Lechner         : AUTO-CI (C++ implementation), FIC-MRCC
   Dagmar Lenk            : GEPOL surface, SMD
   Dimitrios Liakos       : Extrapolation schemes; Compound Job, initial MDCI parallelization
   Dimitrios Manganas     : Further ROCIS development; embedding schemes
   Dimitrios Pantazis     : SARC Basis sets
   Anastasios Papadopoulos: AUTO-CI, single reference methods and gradients
   Taras Petrenko         : DFT Hessian,TD-DFT gradient, ASA, ECA, R-Raman, ABS, FL, XAS/XES, NRVS
   Peter Pinski           : DLPNO-MP2, DLPNO-MP2 Gradient
   Christoph Reimann      : Effective Core Potentials
   Marius Retegan         : Local ZFS, SOC
   Christoph Riplinger    : Optimizer, TS searches, QM/MM, DLPNO-CCSD(T), (RO)-DLPNO pert. Triples
   Tobias Risthaus        : Range-separated hybrids, TD-DFT gradient, RPA, STAB
   Michael Roemelt        : Original ROCIS implementation
   Masaaki Saitow         : Open-shell DLPNO-CCSD energy and density
   Barbara Sandhoefer     : DKH picture change effects
   Avijit Sen             : IP-ROCIS
   Kantharuban Sivalingam : CASSCF convergence, NEVPT2, FIC-MRCI
   Bernardo de Souza      : ESD, SOC TD-DFT
   Georgi Stoychev        : AutoAux, RI-MP2 NMR, DLPNO-MP2 response
   Willem Van den Heuvel  : Paramagnetic NMR
   Boris Wezisla          : Elementary symmetry handling
   Frank Wennmohs         : Technical directorship


 We gratefully acknowledge several colleagues who have allowed us to
 interface, adapt or use parts of their codes:
   Stefan Grimme, W. Hujo, H. Kruse, P. Pracht,  : VdW corrections, initial TS optimization,
                  C. Bannwarth, S. Ehlert          DFT functionals, gCP, sTDA/sTD-DF
   Ed Valeev, F. Pavosevic, A. Kumar             : LibInt (2-el integral package), F12 methods
   Garnet Chan, S. Sharma, J. Yang, R. Olivares  : DMRG
   Ulf Ekstrom                                   : XCFun DFT Library
   Mihaly Kallay                                 : mrcc  (arbitrary order and MRCC methods)
   Jiri Pittner, Ondrej Demel                    : Mk-CCSD
   Frank Weinhold                                : gennbo (NPA and NBO analysis)
   Christopher J. Cramer and Donald G. Truhlar   : smd solvation model
   Lars Goerigk                                  : TD-DFT with DH, B97 family of functionals
   V. Asgeirsson, H. Jonsson                     : NEB implementation
   FAccTs GmbH                                   : IRC, NEB, NEB-TS, DLPNO-Multilevel, CI-OPT
                                                   MM, QMMM, 2- and 3-layer-ONIOM, Crystal-QMMM,
                                                   LR-CPCM, SF, NACMEs, symmetry and pop. for TD-DFT,
                                                   nearIR, NL-DFT gradient (VV10), updates on ESD,
                                                   ML-optimized integration grids
   S Lehtola, MJT Oliveira, MAL Marques          : LibXC Library
   Liviu Ungur et al                             : ANISO software


 Your calculation uses the libint2 library for the computation of 2-el integrals
 For citations please refer to: http://libint.valeyev.net

 Your ORCA version has been built with support for libXC version: 5.1.0
 For citations please refer to: https://tddft.org/programs/libxc/

 This ORCA versions uses:
   CBLAS   interface :  Fast vector & matrix operations
   LAPACKE interface :  Fast linear algebra routines
   SCALAPACK package :  Parallel linear algebra routines
   Shared memory     :  Shared parallel matrices
   BLAS/LAPACK       :  OpenBLAS 0.3.15  USE64BITINT DYNAMIC_ARCH NO_AFFINITY Zen SINGLE_THREADED
        Core in use  :  Zen
   Copyright (c) 2011-2014, The OpenBLAS Project


Your calculation utilizes the SMD solvation module
Please cite in your paper:
A.V. Marenich, C.J. Cramer, D.G. Truhlar J. Phys. Chem. B, 113, (2009), 6378 

================================================================================

----- Orbital basis set information -----
Your calculation utilizes the basis: def2-TZVP
   F. Weigend and R. Ahlrichs, Phys. Chem. Chem. Phys. 7, 3297 (2005).

----- AuxJ basis set information -----
Your calculation utilizes the auxiliary basis: def2/J
   F. Weigend, Phys. Chem. Chem. Phys. 8, 1057 (2006).

----- AuxC basis set information -----
Your calculation utilizes the auxiliary basis: def2-TZVP/C
  H-La, Hf-Rn : A. Hellweg, C. Hattig, S. Hofener and W. Klopper, Theor. Chem. Acc. 117, 587 (2007).
        Ce-Lu : J. Chmela and M. E. Harding, Mol. Phys. (2018).

================================================================================
                                        WARNINGS
                       Please study these warnings very carefully!
================================================================================

INFO   : Checking CIS options ...
  ===> : (D) CORRECTION FOUND - SETTING MODE=3
  ===> : JK MODE FOUND - ACTIVATING RI-MP2 CODE
  ===> : MP2 AND CIS FOUND - CHECKING
WARNING: CIS(D) and MP2 runs must have the same orbital window
  ===> : adjusting orbital windows

WARNING: No MP2 level density has been requested!
         To caclulate MP2 level properties use
         %mp2 Density relaxed end
         or
         %mp2 Density unrelaxed end
         Otherwise for double-hybrid DFT only the energy is correct!

WARNING: The frozen-core approximation is turned on by default for 
         the MP2 part of double-hybrid DFT.

WARNING:  You are using a Range-Separated Double Hybrid functional with Doubles Correction 
          Changing Mode to RPA_AOINTS 


WARNING: CIS/ROCIS methods need fully converged wavefunctions
  ===> : Setting SCFConvForced true
         You can overwrite this default with %scf ConvForced false 


INFO   : the flag for use of the SHARK integral package has been found!

================================================================================
                                       INPUT FILE
================================================================================
NAME = NCE_2_M06L_def2TZVP_coords.inp
|  1> %maxcore 3200
|  2> %pal
|  3>  nprocs= 8
|  4> end
|  5> ! RI-wB2PLYP def2-TZVP def2/J def2-TZVP/C RIJCOSX CPCM TightSCF
|  6> %TDDFT DCORR 1
|  7>    NROOTS   30
|  8> 
|  9>    TDA      FALSE
| 10> END
| 11> 
| 12> %CPCM
| 13>    SMD          TRUE
| 14>    SMDsolvent   "ACETONITRILE"
| 15> END
| 16>    
| 17> 
| 18> * xyz 0 1
| 19> C                  -2.79293800    4.12055100    0.00048800
| 20> C                  -1.46622100    3.79291700    0.00034500
| 21> C                  -1.05286200    2.44017500    0.00020200
| 22> C                  -2.04168300    1.41007400    0.00019500
| 23> C                  -3.40652800    1.78994200    0.00035800
| 24> C                  -3.77190700    3.10832400    0.00049900
| 25> C                   0.30285200    2.09382800    0.00008900
| 26> C                  -1.62929500    0.05246500    0.00004900
| 27> C                  -0.26938100   -0.25631800   -0.00007400
| 28> C                   0.71709800    0.78004900   -0.00003500
| 29> C                   2.11986200    0.41216600   -0.00011900
| 30> C                   2.46183500   -0.94127600   -0.00017400
| 31> C                   0.15746000   -1.66057700   -0.00032100
| 32> H                   1.02838400    2.89659300    0.00011500
| 33> H                  -3.09646100    5.15987500    0.00060100
| 34> H                  -0.70465800    4.56360300    0.00034600
| 35> H                  -4.16865700    1.02183200    0.00037600
| 36> H                  -4.82047400    3.37711400    0.00062600
| 37> C                  -2.69458300   -0.98341100    0.00007100
| 38> C                  -3.22739400   -1.44695400    1.19996100
| 39> C                  -3.22796800   -1.44642400   -1.19977000
| 40> C                  -4.25500700   -2.37793300    1.19964400
| 41> H                  -2.82614200   -1.08022700    2.13758000
| 42> C                  -4.25557000   -2.37741500   -1.19937300
| 43> H                  -2.82717400   -1.07927300   -2.13741900
| 44> C                  -4.77009800   -2.84971300    0.00015400
| 45> H                  -4.65586800   -2.73442000    2.14055200
| 46> H                  -4.65686900   -2.73350100   -2.14024600
| 47> H                  -5.57268300   -3.57650600    0.00018600
| 48> O                  -0.55376000   -2.63420400   -0.00045200
| 49> O                   1.50506500   -1.91615600   -0.00020200
| 50> C                   3.18326000    1.32007500   -0.00012700
| 51> C                   3.76940100   -1.38466800   -0.00022200
| 52> C                   4.80184500   -0.45358900   -0.00023000
| 53> C                   4.50132600    0.91224300   -0.00018400
| 54> H                   5.28952700    1.65075600   -0.00019000
| 55> H                   2.97751300    2.38210700   -0.00008700
| 56> H                   3.98545000   -2.44422900   -0.00026600
| 57> O                   6.05250400   -0.95690400   -0.00028400
| 58> C                   7.13492200   -0.03735000   -0.00035300
| 59> H                   7.12357600    0.59473400    0.89029100
| 60> H                   8.04005000   -0.63818000   -0.00042600
| 61> H                   7.12344400    0.59475500   -0.89098000
| 62> *
| 63> 
| 64> 
| 65>                          ****END OF INPUT****
================================================================================

                       ****************************
                       * Single Point Calculation *
                       ****************************

---------------------------------
CARTESIAN COORDINATES (ANGSTROEM)
---------------------------------
  C     -2.792938    4.120551    0.000488
  C     -1.466221    3.792917    0.000345
  C     -1.052862    2.440175    0.000202
  C     -2.041683    1.410074    0.000195
  C     -3.406528    1.789942    0.000358
  C     -3.771907    3.108324    0.000499
  C      0.302852    2.093828    0.000089
  C     -1.629295    0.052465    0.000049
  C     -0.269381   -0.256318   -0.000074
  C      0.717098    0.780049   -0.000035
  C      2.119862    0.412166   -0.000119
  C      2.461835   -0.941276   -0.000174
  C      0.157460   -1.660577   -0.000321
  H      1.028384    2.896593    0.000115
  H     -3.096461    5.159875    0.000601
  H     -0.704658    4.563603    0.000346
  H     -4.168657    1.021832    0.000376
  H     -4.820474    3.377114    0.000626
  C     -2.694583   -0.983411    0.000071
  C     -3.227394   -1.446954    1.199961
  C     -3.227968   -1.446424   -1.199770
  C     -4.255007   -2.377933    1.199644
  H     -2.826142   -1.080227    2.137580
  C     -4.255570   -2.377415   -1.199373
  H     -2.827174   -1.079273   -2.137419
  C     -4.770098   -2.849713    0.000154
  H     -4.655868   -2.734420    2.140552
  H     -4.656869   -2.733501   -2.140246
  H     -5.572683   -3.576506    0.000186
  O     -0.553760   -2.634204   -0.000452
  O      1.505065   -1.916156   -0.000202
  C      3.183260    1.320075   -0.000127
  C      3.769401   -1.384668   -0.000222
  C      4.801845   -0.453589   -0.000230
  C      4.501326    0.912243   -0.000184
  H      5.289527    1.650756   -0.000190
  H      2.977513    2.382107   -0.000087
  H      3.985450   -2.444229   -0.000266
  O      6.052504   -0.956904   -0.000284
  C      7.134922   -0.037350   -0.000353
  H      7.123576    0.594734    0.890291
  H      8.040050   -0.638180   -0.000426
  H      7.123444    0.594755   -0.890980

----------------------------
CARTESIAN COORDINATES (A.U.)
----------------------------
  NO LB      ZA    FRAG     MASS         X           Y           Z
   0 C     6.0000    0    12.011   -5.277888    7.786713    0.000922
   1 C     6.0000    0    12.011   -2.770756    7.167574    0.000652
   2 C     6.0000    0    12.011   -1.989621    4.611262    0.000382
   3 C     6.0000    0    12.011   -3.858222    2.664654    0.000368
   4 C     6.0000    0    12.011   -6.437405    3.382500    0.000677
   5 C     6.0000    0    12.011   -7.127871    5.873881    0.000943
   6 C     6.0000    0    12.011    0.572307    3.956761    0.000168
   7 C     6.0000    0    12.011   -3.078921    0.099144    0.000093
   8 C     6.0000    0    12.011   -0.509056   -0.484371   -0.000140
   9 C     6.0000    0    12.011    1.355119    1.474079   -0.000066
  10 C     6.0000    0    12.011    4.005959    0.778881   -0.000225
  11 C     6.0000    0    12.011    4.652194   -1.778754   -0.000329
  12 C     6.0000    0    12.011    0.297556   -3.138036   -0.000607
  13 H     1.0000    0     1.008    1.943364    5.473767    0.000217
  14 H     1.0000    0     1.008   -5.851463    9.750751    0.001136
  15 H     1.0000    0     1.008   -1.331611    8.623960    0.000654
  16 H     1.0000    0     1.008   -7.877620    1.930983    0.000711
  17 H     1.0000    0     1.008   -9.109376    6.381821    0.001183
  18 C     6.0000    0    12.011   -5.092024   -1.858377    0.000134
  19 C     6.0000    0    12.011   -6.098891   -2.734347    2.267598
  20 C     6.0000    0    12.011   -6.099975   -2.733345   -2.267237
  21 C     6.0000    0    12.011   -8.040798   -4.493642    2.266999
  22 H     1.0000    0     1.008   -5.340634   -2.041333    4.039441
  23 C     6.0000    0    12.011   -8.041862   -4.492663   -2.266487
  24 H     1.0000    0     1.008   -5.342585   -2.039530   -4.039137
  25 C     6.0000    0    12.011   -9.014179   -5.385177    0.000291
  26 H     1.0000    0     1.008   -8.798315   -5.167305    4.045057
  27 H     1.0000    0     1.008   -8.800207   -5.165568   -4.044479
  28 H     1.0000    0     1.008  -10.530845   -6.758617    0.000351
  29 O     8.0000    0    15.999   -1.046455   -4.977924   -0.000854
  30 O     8.0000    0    15.999    2.844161   -3.621010   -0.000382
  31 C     6.0000    0    12.011    6.015490    2.494580   -0.000240
  32 C     6.0000    0    12.011    7.123136   -2.616643   -0.000420
  33 C     6.0000    0    12.011    9.074172   -0.857159   -0.000435
  34 C     6.0000    0    12.011    8.506273    1.723889   -0.000348
  35 H     1.0000    0     1.008    9.995757    3.119477   -0.000359
  36 H     1.0000    0     1.008    5.626684    4.501530   -0.000164
  37 H     1.0000    0     1.008    7.531409   -4.618923   -0.000503
  38 O     8.0000    0    15.999   11.437575   -1.808286   -0.000537
  39 C     6.0000    0    12.011   13.483049   -0.070581   -0.000667
  40 H     1.0000    0     1.008   13.461608    1.123884    1.682406
  41 H     1.0000    0     1.008   15.193493   -1.205985   -0.000805
  42 H     1.0000    0     1.008   13.461358    1.123924   -1.683708

--------------------------------
INTERNAL COORDINATES (ANGSTROEM)
--------------------------------
 C      0   0   0     0.000000000000     0.00000000     0.00000000
 C      1   0   0     1.366573106897     0.00000000     0.00000000
 C      2   1   0     1.414488105957   120.86334715     0.00000000
 C      3   2   1     1.427891816732   119.17969472     0.00000000
 C      4   3   2     1.416722131548   118.27554400     0.00000000
 C      5   4   3     1.368076361701   121.04340454     0.00000000
 C      3   2   1     1.399255768962   121.32258626   180.00163140
 C      4   3   2     1.418860839103   119.27462801   179.99987604
 C      8   4   3     1.394529685455   119.68942320     0.00000000
 C      7   3   2     1.377539482096   121.83146153   179.99923321
 C     10   7   3     1.450201623376   122.19573234   180.00156995
 C     11  10   7     1.395976641322   118.87530004   179.99674262
 C      9   8   4     1.467697734335   119.69997810   180.00431275
 H      7   3   2     1.082048210074   117.77605670     0.00000000
 H      1   2   3     1.082737549582   120.15156007   179.99973230
 H      2   1   3     1.083482862608   120.78716160   180.00046883
 H      5   4   3     1.082050638864   119.22294056   180.00126924
 H      6   5   4     1.082469784206   119.86792155   180.00022076
 C      8   4   3     1.485892866530   117.30131840   179.99898524
 C     19   8   4     1.392298705979   120.42924291   271.87415868
 C     19   8   4     1.392299903640   120.42952446    88.10272996
 C     20  19   8     1.386618360148   120.46022552   177.65406527
 H     20  19   8     1.083799450634   119.42153874   357.12498540
 C     21  19   8     1.386618285648   120.46020344   182.34517649
 H     21  19   8     1.083799489960   119.42160007     2.87419822
 C     24  21  19     1.388045203629   120.22599169     0.49807671
 H     22  20  19     1.083088356024   119.67447788   179.62328375
 H     24  21  19     1.083088236907   119.67454346   180.37788153
 H     26  24  21     1.082760706757   120.21122995   179.98480865
 O     13   9   8     1.205729422669   126.94516459     0.00000000
 O     12  11  10     1.365942842173   121.35706906     0.00000000
 C     11  10   7     1.398253932141   124.81471644     0.00000000
 C     12  11  10     1.380697400709   122.91174140   180.00163340
 C     33  12  11     1.390269296734   119.22356148     0.00000000
 C     32  11  10     1.379719146721   122.31697483   179.99877918
 H     35  32  11     1.080121413363   119.67111891   179.99987278
 H     32  11  10     1.081778072727   119.52600151     0.00000000
 H     33  12  11     1.081363345531   120.25651895   180.00013730
 O     34  33  12     1.348137206082   116.03339800   180.00029516
 C     39  34  33     1.420284580780   117.72905367   179.99730763
 H     40  39  34     1.092202201750   111.51437890    61.22756752
 H     40  39  34     1.086394675343   106.07440018   180.00207498
 H     40  39  34     1.092201871743   111.51435949   298.77670615

---------------------------
INTERNAL COORDINATES (A.U.)
---------------------------
 C      0   0   0     0.000000000000     0.00000000     0.00000000
 C      1   0   0     2.582448914017     0.00000000     0.00000000
 C      2   1   0     2.672995139948   120.86334715     0.00000000
 C      3   2   1     2.698324482491   119.17969472     0.00000000
 C      4   3   2     2.677216836491   118.27554400     0.00000000
 C      5   4   3     2.585289653907   121.04340454     0.00000000
 C      3   2   1     2.644210194648   121.32258626   180.00163140
 C      4   3   2     2.681258408051   119.27462801   179.99987604
 C      8   4   3     2.635279191132   119.68942320     0.00000000
 C      7   3   2     2.603172359825   121.83146153   179.99923321
 C     10   7   3     2.740483907148   122.19573234   180.00156995
 C     11  10   7     2.638013541451   118.87530004   179.99674262
 C      9   8   4     2.773546765269   119.69997810   180.00431275
 H      7   3   2     2.044774780740   117.77605670     0.00000000
 H      1   2   3     2.046077443622   120.15156007   179.99973230
 H      2   1   3     2.047485881127   120.78716160   180.00046883
 H      5   4   3     2.044779370487   119.22294056   180.00126924
 H      6   5   4     2.045571440393   119.86792155   180.00022076
 C      8   4   3     2.807930582088   117.30131840   179.99898524
 C     19   8   4     2.631063250913   120.42924291   271.87415868
 C     19   8   4     2.631065514164   120.42952446    88.10272996
 C     20  19   8     2.620328952946   120.46022552   177.65406527
 H     20  19   8     2.048084145792   119.42153874   357.12498540
 C     21  19   8     2.620328812163   120.46020344   182.34517649
 H     21  19   8     2.048084220108   119.42160007     2.87419822
 C     24  21  19     2.623025296361   120.22599169     0.49807671
 H     22  20  19     2.046740371724   119.67447788   179.62328375
 H     24  21  19     2.046740146626   119.67454346   180.37788153
 H     26  24  21     2.046121204343   120.21122995   179.98480865
 O     13   9   8     2.278498400456   126.94516459     0.00000000
 O     12  11  10     2.581257886297   121.35706906     0.00000000
 C     11  10   7     2.642316997426   124.81471644     0.00000000
 C     12  11  10     2.609139961157   122.91174140   180.00163340
 C     33  12  11     2.627228223226   119.22356148     0.00000000
 C     32  11  10     2.607291329031   122.31697483   179.99877918
 H     35  32  11     2.041133662641   119.67111891   179.99987278
 H     32  11  10     2.044264295135   119.52600151     0.00000000
 H     33  12  11     2.043480574314   120.25651895   180.00013730
 O     34  33  12     2.547610110444   116.03339800   180.00029516
 C     39  34  33     2.683948889905   117.72905367   179.99730763
 H     40  39  34     2.063963044174   111.51437890    61.22756752
 H     40  39  34     2.052988409748   106.07440018   180.00207498
 H     40  39  34     2.063962420550   111.51435949   298.77670615

---------------------
BASIS SET INFORMATION
---------------------
There are 3 groups of distinct atoms

 Group   1 Type C   : 11s6p2d1f contracted to 5s3p2d1f pattern {62111/411/11/1}
 Group   2 Type H   : 5s1p contracted to 3s1p pattern {311/1}
 Group   3 Type O   : 11s6p2d1f contracted to 5s3p2d1f pattern {62111/411/11/1}

Atom   0C    basis set group =>   1
Atom   1C    basis set group =>   1
Atom   2C    basis set group =>   1
Atom   3C    basis set group =>   1
Atom   4C    basis set group =>   1
Atom   5C    basis set group =>   1
Atom   6C    basis set group =>   1
Atom   7C    basis set group =>   1
Atom   8C    basis set group =>   1
Atom   9C    basis set group =>   1
Atom  10C    basis set group =>   1
Atom  11C    basis set group =>   1
Atom  12C    basis set group =>   1
Atom  13H    basis set group =>   2
Atom  14H    basis set group =>   2
Atom  15H    basis set group =>   2
Atom  16H    basis set group =>   2
Atom  17H    basis set group =>   2
Atom  18C    basis set group =>   1
Atom  19C    basis set group =>   1
Atom  20C    basis set group =>   1
Atom  21C    basis set group =>   1
Atom  22H    basis set group =>   2
Atom  23C    basis set group =>   1
Atom  24H    basis set group =>   2
Atom  25C    basis set group =>   1
Atom  26H    basis set group =>   2
Atom  27H    basis set group =>   2
Atom  28H    basis set group =>   2
Atom  29O    basis set group =>   3
Atom  30O    basis set group =>   3
Atom  31C    basis set group =>   1
Atom  32C    basis set group =>   1
Atom  33C    basis set group =>   1
Atom  34C    basis set group =>   1
Atom  35H    basis set group =>   2
Atom  36H    basis set group =>   2
Atom  37H    basis set group =>   2
Atom  38O    basis set group =>   3
Atom  39C    basis set group =>   1
Atom  40H    basis set group =>   2
Atom  41H    basis set group =>   2
Atom  42H    basis set group =>   2
---------------------------------
AUXILIARY/J BASIS SET INFORMATION
---------------------------------
There are 3 groups of distinct atoms

 Group   1 Type C   : 12s5p4d2f1g contracted to 6s4p3d1f1g pattern {711111/2111/211/2/1}
 Group   2 Type H   : 5s2p1d contracted to 3s1p1d pattern {311/2/1}
 Group   3 Type O   : 12s5p4d2f1g contracted to 6s4p3d1f1g pattern {711111/2111/211/2/1}

Atom   0C    basis set group =>   1
Atom   1C    basis set group =>   1
Atom   2C    basis set group =>   1
Atom   3C    basis set group =>   1
Atom   4C    basis set group =>   1
Atom   5C    basis set group =>   1
Atom   6C    basis set group =>   1
Atom   7C    basis set group =>   1
Atom   8C    basis set group =>   1
Atom   9C    basis set group =>   1
Atom  10C    basis set group =>   1
Atom  11C    basis set group =>   1
Atom  12C    basis set group =>   1
Atom  13H    basis set group =>   2
Atom  14H    basis set group =>   2
Atom  15H    basis set group =>   2
Atom  16H    basis set group =>   2
Atom  17H    basis set group =>   2
Atom  18C    basis set group =>   1
Atom  19C    basis set group =>   1
Atom  20C    basis set group =>   1
Atom  21C    basis set group =>   1
Atom  22H    basis set group =>   2
Atom  23C    basis set group =>   1
Atom  24H    basis set group =>   2
Atom  25C    basis set group =>   1
Atom  26H    basis set group =>   2
Atom  27H    basis set group =>   2
Atom  28H    basis set group =>   2
Atom  29O    basis set group =>   3
Atom  30O    basis set group =>   3
Atom  31C    basis set group =>   1
Atom  32C    basis set group =>   1
Atom  33C    basis set group =>   1
Atom  34C    basis set group =>   1
Atom  35H    basis set group =>   2
Atom  36H    basis set group =>   2
Atom  37H    basis set group =>   2
Atom  38O    basis set group =>   3
Atom  39C    basis set group =>   1
Atom  40H    basis set group =>   2
Atom  41H    basis set group =>   2
Atom  42H    basis set group =>   2
---------------------------------
AUXILIARY/C BASIS SET INFORMATION
---------------------------------
There are 3 groups of distinct atoms

 Group   1 Type C   : 8s6p5d3f1g contracted to 8s6p4d3f1g pattern {11111111/111111/2111/111/1}
 Group   2 Type H   : 4s3p2d contracted to 4s2p1d pattern {1111/21/2}
 Group   3 Type O   : 8s6p5d3f1g contracted to 8s6p4d3f1g pattern {11111111/111111/2111/111/1}

Atom   0C    basis set group =>   1
Atom   1C    basis set group =>   1
Atom   2C    basis set group =>   1
Atom   3C    basis set group =>   1
Atom   4C    basis set group =>   1
Atom   5C    basis set group =>   1
Atom   6C    basis set group =>   1
Atom   7C    basis set group =>   1
Atom   8C    basis set group =>   1
Atom   9C    basis set group =>   1
Atom  10C    basis set group =>   1
Atom  11C    basis set group =>   1
Atom  12C    basis set group =>   1
Atom  13H    basis set group =>   2
Atom  14H    basis set group =>   2
Atom  15H    basis set group =>   2
Atom  16H    basis set group =>   2
Atom  17H    basis set group =>   2
Atom  18C    basis set group =>   1
Atom  19C    basis set group =>   1
Atom  20C    basis set group =>   1
Atom  21C    basis set group =>   1
Atom  22H    basis set group =>   2
Atom  23C    basis set group =>   1
Atom  24H    basis set group =>   2
Atom  25C    basis set group =>   1
Atom  26H    basis set group =>   2
Atom  27H    basis set group =>   2
Atom  28H    basis set group =>   2
Atom  29O    basis set group =>   3
Atom  30O    basis set group =>   3
Atom  31C    basis set group =>   1
Atom  32C    basis set group =>   1
Atom  33C    basis set group =>   1
Atom  34C    basis set group =>   1
Atom  35H    basis set group =>   2
Atom  36H    basis set group =>   2
Atom  37H    basis set group =>   2
Atom  38O    basis set group =>   3
Atom  39C    basis set group =>   1
Atom  40H    basis set group =>   2
Atom  41H    basis set group =>   2
Atom  42H    basis set group =>   2


           ************************************************************
           *        Program running with 8 parallel MPI-processes     *
           *              working on a common directory               *
           ************************************************************
------------------------------------------------------------------------------
                           ORCA GTO INTEGRAL CALCULATION
                           -- RI-GTO INTEGRALS CHOSEN --
------------------------------------------------------------------------------
------------------------------------------------------------------------------
                   ___                                                        
                  /   \      - P O W E R E D   B Y -                         
                 /     \                                                     
                 |  |  |   _    _      __       _____    __    __             
                 |  |  |  | |  | |    /  \     |  _  \  |  |  /  |          
                  \  \/   | |  | |   /    \    | | | |  |  | /  /          
                 / \  \   | |__| |  /  /\  \   | |_| |  |  |/  /          
                |  |  |   |  __  | /  /__\  \  |    /   |      \           
                |  |  |   | |  | | |   __   |  |    \   |  |\   \          
                \     /   | |  | | |  |  |  |  | |\  \  |  | \   \       
                 \___/    |_|  |_| |__|  |__|  |_| \__\ |__|  \__/        
                                                                              
                      - O R C A' S   B I G   F R I E N D -                    
                                      &                                       
                       - I N T E G R A L  F E E D E R -                       
                                                                              
 v1 FN, 2020, v2 2021                                                         
------------------------------------------------------------------------------


Reading SHARK input file NCE_2_M06L_def2TZVP_coords.SHARKINP.tmp ... ok
----------------------
SHARK INTEGRAL PACKAGE
----------------------

Number of atoms                             ...     43
Number of basis functions                   ...    933
Number of shells                            ...    361
Maximum angular momentum                    ...      3
Integral batch strategy                     ... SHARK/LIBINT Hybrid
RI-J (if used) integral strategy            ... SPLIT-RIJ (Revised 2003 algorithm where possible)
Printlevel                                  ...      1
Contraction scheme used                     ... SEGMENTED contraction
Coulomb Range Separation                    ... NOT USED
Exchange Range Separation                   ... Long Range
   Mu parameter                             ...  0.300000
   Scaling (regular/separated)              ...  0.530000  0.470000
Finite Nucleus Model                        ... NOT USED
Auxiliary Coulomb fitting basis             ... AVAILABLE
   # of basis functions in Aux-J            ...   1499
   # of shells in Aux-J                     ...    485
   Maximum angular momentum in Aux-J        ...      4
Auxiliary J/K fitting basis                 ... NOT available
Auxiliary Correlation fitting basis         ... AVAILABLE
   # of basis functions in Aux-C            ...   2292
   # of shells in Aux-C                     ...    706
   Maximum angular momentum in Aux-C        ...      4
Auxiliary 'external' fitting basis          ... NOT available
Integral threshold                          ...     2.500000e-11
Primitive cut-off                           ...     2.500000e-12
Primitive pair pre-selection threshold      ...     2.500000e-12

Calculating pre-screening integrals         ... done (  0.1 sec) Dimension = 361
Organizing shell pair data                  ... done (  0.7 sec)
Shell pair information
Total number of shell pairs                 ...     65341
Shell pairs after pre-screening             ...     42268
Total number of primitive shell pairs       ...    203208
Primitive shell pairs kept                  ...     86334
          la=0 lb=0:  10191 shell pairs
          la=1 lb=0:  12070 shell pairs
          la=1 lb=1:   3547 shell pairs
          la=2 lb=0:   6114 shell pairs
          la=2 lb=1:   3668 shell pairs
          la=2 lb=2:    956 shell pairs
          la=3 lb=0:   2878 shell pairs
          la=3 lb=1:   1749 shell pairs
          la=3 lb=2:    872 shell pairs
          la=3 lb=3:    223 shell pairs

Calculating one electron integrals          ... done (  0.1 sec)
Calculating RI/J V-Matrix + Cholesky decomp.... done (  0.2 sec)
Calculating RI/C V-Matrix + Cholesky decomp.... done (  0.3 sec)
Calculating Nuclear repulsion               ... done (  0.0 sec) ENN=   2255.519740715050 Eh

SHARK setup successfully completed in   2.2 seconds

Maximum memory used throughout the entire GTOINT-calculation: 70.8 MB


           ************************************************************
           *        Program running with 8 parallel MPI-processes     *
           *              working on a common directory               *
           ************************************************************
-------------------------------------------------------------------------------
                                 ORCA SCF
-------------------------------------------------------------------------------

------------
SCF SETTINGS
------------
Hamiltonian:
 Density Functional     Method          .... DFT(GTOs)
 Exchange Functional    Exchange        .... WB88
 Correlation Functional Correlation     .... LYP
 LDA part of GGA corr.  LDAOpt          .... VWN-3
 Gradients option       PostSCFGGA      .... off
 Hybrid DFT is turned on
   Fraction HF Exchange ScalHFX         ....  0.530000
   Scaling of DF-GGA-X  ScalDFX         ....  0.000000
   Scaling of DF-GGA-C  ScalDFC         ....  0.730000
   Scaling of DF-LDA-C  ScalLDAC        ....  0.730000
   Perturbative correction              ....  0.270000
   Density functional embedding theory  .... OFF
 Long-range corrected/Screened/Range-Separated Hybrid DFT is turned on
   Amount of maximum screened exact exchange              ....  0.470000
   Range separation parameter mu (erf(mu*r12)/r12)        ....  0.300000
 RI-approximation to the Coulomb term is turned on
   Number of AuxJ basis functions       .... 1499
   RIJ-COSX (HFX calculated with COS-X)).... on


General Settings:
 Integral files         IntName         .... NCE_2_M06L_def2TZVP_coords
 Hartree-Fock type      HFTyp           .... RHF
 Total Charge           Charge          ....    0
 Multiplicity           Mult            ....    1
 Number of Electrons    NEL             ....  184
 Basis Dimension        Dim             ....  933
 Nuclear Repulsion      ENuc            ....   2255.5197407151 Eh

Convergence Acceleration:
 DIIS                   CNVDIIS         .... on
   Start iteration      DIISMaxIt       ....    12
   Startup error        DIISStart       ....  0.200000
   # of expansion vecs  DIISMaxEq       ....     5
   Bias factor          DIISBfac        ....   1.050
   Max. coefficient     DIISMaxC        ....  10.000
 Trust-Rad. Augm. Hess. CNVTRAH         .... auto
   Auto Start mean grad. ratio tolernc. ....  1.125000
   Auto Start start iteration           ....    20
   Auto Start num. interpolation iter.  ....    10
   Max. Number of Micro iterations      ....    16
   Max. Number of Macro iterations      .... Maxiter - #DIIS iter
   Number of Davidson start vectors     ....     2
   Converg. threshold I  (grad. norm)   ....   1.000e-05
   Converg. threshold II (energy diff.) ....   1.000e-08
   Grad. Scal. Fac. for Micro threshold ....   0.100
   Minimum threshold for Micro iter.    ....   0.010
   NR start threshold (gradient norm)   ....   0.001
   Initial trust radius                 ....   0.400
   Minimum AH scaling param. (alpha)    ....   1.000
   Maximum AH scaling param. (alpha)    .... 1000.000
   Orbital update algorithm             .... Taylor
   White noise on init. David. guess    .... on
   Maximum white noise                  ....   0.010
   Quad. conv. algorithm                .... NR
 SOSCF                  CNVSOSCF        .... on
   Start iteration      SOSCFMaxIt      ....   150
   Startup grad/error   SOSCFStart      ....  0.003300
 Level Shifting         CNVShift        .... on
   Level shift para.    LevelShift      ....    0.2500
   Turn off err/grad.   ShiftErr        ....    0.0010
 Zerner damping         CNVZerner       .... off
 Static damping         CNVDamp         .... on
   Fraction old density DampFac         ....    0.7000
   Max. Damping (<1)    DampMax         ....    0.9800
   Min. Damping (>=0)   DampMin         ....    0.0000
   Turn off err/grad.   DampErr         ....    0.1000
 Fernandez-Rico         CNVRico         .... off

SCF Procedure:
 Maximum # iterations   MaxIter         ....   125
 SCF integral mode      SCFMode         .... Direct
   Integral package                     .... SHARK and LIBINT hybrid scheme
 Reset frequency        DirectResetFreq ....    20
 Integral Threshold     Thresh          ....  2.500e-11 Eh
 Primitive CutOff       TCut            ....  2.500e-12 Eh

Convergence Tolerance:
 Convergence Check Mode ConvCheckMode   .... Total+1el-Energy
 Convergence forced     ConvForced      .... 1
 Energy Change          TolE            ....  1.000e-08 Eh
 1-El. energy change                    ....  1.000e-05 Eh
 Orbital Gradient       TolG            ....  1.000e-05
 Orbital Rotation angle TolX            ....  1.000e-05
 DIIS Error             TolErr          ....  5.000e-07


Diagonalization of the overlap matrix:
Smallest eigenvalue                        ... 2.636e-06
Time for diagonalization                   ...    0.212 sec
Threshold for overlap eigenvalues          ... 1.000e-08
Number of eigenvalues below threshold      ... 0
Time for construction of square roots      ...    0.128 sec
Total time needed                          ...    0.345 sec

Time for model grid setup =    0.289 sec

------------------------------
INITIAL GUESS: MODEL POTENTIAL
------------------------------
Loading Hartree-Fock densities                     ... done
Calculating cut-offs                               ... done
Initializing the effective Hamiltonian             ... done
Setting up the integral package (SHARK)            ... done
Starting the Coulomb interaction                   ... done (   0.6 sec)
Reading the grid                                   ... done
Mapping shells                                     ... done
Starting the XC term evaluation                    ... done (   0.3 sec)
  promolecular density results
     # of electrons  =    184.010166230
     EX              =   -152.069936328
     EC              =     -2.122634293
     EX+EC           =   -154.192570621
Transforming the Hamiltonian                       ... done (   0.1 sec)
Diagonalizing the Hamiltonian                      ... done (   0.1 sec)
Back transforming the eigenvectors                 ... done (   0.0 sec)
Now organizing SCF variables                       ... done
                      ------------------
                      INITIAL GUESS DONE (   1.4 sec)
                      ------------------
-------------------
DFT GRID GENERATION
-------------------

General Integration Accuracy     IntAcc      ... 4.388
Radial Grid Type                 RadialGrid  ... OptM3 with GC (2021)
Angular Grid (max. ang.)         AngularGrid ... 4 (Lebedev-302)
Angular grid pruning method      GridPruning ... 4 (adaptive)
Weight generation scheme         WeightScheme... Becke
Basis function cutoff            BFCut       ... 1.0000e-11
Integration weight cutoff        WCut        ... 1.0000e-14
Angular grids for H and He will be reduced by one unit
Partially contracted basis set               ... off
Rotationally invariant grid construction     ... off

Total number of grid points                  ...   211900
Total number of batches                      ...     3332
Average number of points per batch           ...       63
Average number of grid points per atom       ...     4928
Time for grid setup =    1.194 sec

--------------------
COSX GRID GENERATION
--------------------

GRIDX 1
-------
General Integration Accuracy     IntAcc      ... 3.816
Radial Grid Type                 RadialGrid  ... OptM3 with GC (2021)
Angular Grid (max. ang.)         AngularGrid ... 1 (Lebedev-50)
Angular grid pruning method      GridPruning ... 4 (adaptive)
Weight generation scheme         WeightScheme... Becke
Basis function cutoff            BFCut       ... 1.0000e-11
Integration weight cutoff        WCut        ... 1.0000e-14
Angular grids for H and He will be reduced by one unit
Partially contracted basis set               ... on
Rotationally invariant grid construction     ... off

Total number of grid points                  ...    26887
Total number of batches                      ...      444
Average number of points per batch           ...       60
Average number of grid points per atom       ...      625
UseSFitting                                  ... on

GRIDX 2
-------
General Integration Accuracy     IntAcc      ... 4.020
Radial Grid Type                 RadialGrid  ... OptM3 with GC (2021)
Angular Grid (max. ang.)         AngularGrid ... 2 (Lebedev-110)
Angular grid pruning method      GridPruning ... 4 (adaptive)
Weight generation scheme         WeightScheme... Becke
Basis function cutoff            BFCut       ... 1.0000e-11
Integration weight cutoff        WCut        ... 1.0000e-14
Angular grids for H and He will be reduced by one unit
Partially contracted basis set               ... on
Rotationally invariant grid construction     ... off

Total number of grid points                  ...    59059
Total number of batches                      ...      947
Average number of points per batch           ...       62
Average number of grid points per atom       ...     1373
UseSFitting                                  ... on

GRIDX 3
-------
General Integration Accuracy     IntAcc      ... 4.338
Radial Grid Type                 RadialGrid  ... OptM3 with GC (2021)
Angular Grid (max. ang.)         AngularGrid ... 3 (Lebedev-194)
Angular grid pruning method      GridPruning ... 4 (adaptive)
Weight generation scheme         WeightScheme... Becke
Basis function cutoff            BFCut       ... 1.0000e-11
Integration weight cutoff        WCut        ... 1.0000e-14
Angular grids for H and He will be reduced by one unit
Partially contracted basis set               ... on
Rotationally invariant grid construction     ... off

Total number of grid points                  ...   129262
Total number of batches                      ...     2040
Average number of points per batch           ...       63
Average number of grid points per atom       ...     3006
UseSFitting                                  ... on

Time for X-Grid setup             =    1.552 sec


--------------------
CPCM SOLVATION MODEL
--------------------
CPCM parameters:
  Epsilon                                         ...      35.6880
  Refrac                                          ...       1.3442
  Rsolv                                           ...       1.3000
  Surface type                                    ... GAUSSIAN VDW
  Epsilon function type                           ...         CPCM
Solvent:                                     ... ACETONITRILE
SMD-CDS solvent descriptors:
  Soln                                       ...    1.3442
  Soln25                                     ...    1.3416
  Sola                                       ...    0.0700
  Solb                                       ...    0.3200
  Solg                                       ...   41.2500
  Solc                                       ...    0.0000
  Solh                                       ...    0.0000
Radii:
 Radius for C  used is    3.4960 Bohr (=   1.8500 Ang.)
 Radius for H  used is    2.2677 Bohr (=   1.2000 Ang.)
 Radius for O  used is    4.0969 Bohr (=   2.1680 Ang.)
Calculating surface                               ...        done! (  0.0s)
GEPOL surface points                              ...         2327
GEPOL Volume                                      ...    2514.0930
GEPOL Surface-area                                ...    1309.7577
Calculating surface distance matrix               ...        done! (  0.0s)
Performing Cholesky decomposition & store         ...        done! (  0.2s)
Overall time for CPCM initialization              ...                 0.3s
--------------
SCF ITERATIONS
--------------
ITER       Energy         Delta-E        Max-DP      RMS-DP      [F,P]     Damp
               ***  Starting incremental Fock matrix formation  ***
  0  -1146.1158626212   0.000000000000 0.07786650  0.00081415  0.2982968 0.7000
  1  -1146.3706296605  -0.254767039377 0.07780689  0.00072351  0.1582507 0.7000
                               ***Turning on DIIS***
  2  -1146.5167176057  -0.146087945159 0.13926244  0.00160362  0.0729469 0.0000
  3  -1146.7884697976  -0.271752191926 0.07415636  0.00049582  0.0617188 0.0000
  4  -1146.8093400044  -0.020870206790 0.01755163  0.00013195  0.0169222 0.0000
  5  -1146.8104579081  -0.001117903700 0.01979042  0.00010467  0.0095124 0.0000
                      *** Initiating the SOSCF procedure ***
                           *** Shutting down DIIS ***
                      *** Re-Reading the Fockian *** 
                      *** Removing any level shift *** 
ITER      Energy       Delta-E        Grad      Rot      Max-DP    RMS-DP
  6  -1146.81074121  -0.0002832971  0.001253  0.001253  0.007193  0.000041
               *** Restarting incremental Fock matrix formation ***
  7  -1146.81080200  -0.0000607947  0.000708  0.002031  0.033283  0.000328
  8  -1146.81083466  -0.0000326643  0.000318  0.002140  0.012540  0.000122
  9  -1146.81084380  -0.0000091389  0.000137  0.000186  0.010857  0.000103
 10  -1146.81084577  -0.0000019713  0.000052  0.000125  0.000738  0.000008
 11  -1146.81084597  -0.0000001908  0.000020  0.000060  0.000596  0.000006
 12  -1146.81084604  -0.0000000736  0.000011  0.000052  0.000265  0.000003
 13  -1146.81084603   0.0000000065  0.000004  0.000027  0.000489  0.000004
                  ***Gradient check signals convergence***
              ***Rediagonalizing the Fockian in SOSCF/NRSCF***

               *****************************************************
               *                     SUCCESS                       *
               *           SCF CONVERGED AFTER  14 CYCLES          *
               *****************************************************

Old exchange energy                            =    -95.748071620 Eh
New exchange energy                            =    -95.748181163 Eh
Exchange energy change after final integration =     -0.000109543 Eh
Total energy after final integration           =  -1146.810955576 Eh
Final COS-X integration done in                =    53.156 sec

SMD CDS free energy correction energy :                -5.20989     Kcal/mol
Total Energy after SMD CDS correction =             -1146.819258064 Eh

----------------
TOTAL SCF ENERGY
----------------

Total Energy       :        -1146.81925806 Eh          -31206.53852 eV

Components:
Nuclear Repulsion  :         2255.51974072 Eh           61375.81243 eV
Electronic Energy  :        -3402.33899878 Eh          -92582.35095 eV
One Electron Energy:        -6042.97274757 Eh         -164437.64831 eV
Two Electron Energy:         2640.63374879 Eh           71855.29736 eV
Max COSX asymmetry :            0.00000593 Eh               0.00016 eV
CPCM Dielectric    :           -0.03055048 Eh              -0.83132 eV
SMD CDS (Gcds)     :           -0.00830249 Eh              -0.22592 eV

Virial components:
Potential Energy   :        -2289.85922742 Eh          -62310.23737 eV
Kinetic Energy     :         1143.03996936 Eh           31103.69885 eV
Virial Ratio       :            2.00330635


DFT components:
N(Alpha)           :       92.000071400371 electrons
N(Beta)            :       92.000071400371 electrons
N(Total)           :      184.000142800742 electrons
E(X)               :      -58.410017422453 Eh       
E(C)               :       -4.623181594252 Eh       
E(XC)              :      -63.033199016705 Eh       
DFET-embed. en.    :        0.000000000000 Eh       
CPCM Solvation Model Properties:
Surface-charge          :           -0.06068842
Charge-correction       :            0.00009789 Eh               0.00266 eV
Free-energy (cav+disp)  :           -0.00830249 Eh              -0.22592 eV

---------------
SCF CONVERGENCE
---------------

  Last Energy change         ...   -8.6402e-10  Tolerance :   1.0000e-08
  Last MAX-Density change    ...    2.7756e-15  Tolerance :   1.0000e-07
  Last RMS-Density change    ...    1.4705e-17  Tolerance :   5.0000e-09
  Last Orbital Gradient      ...    1.9145e-06  Tolerance :   1.0000e-05
  Last Orbital Rotation      ...    7.1136e-06  Tolerance :   1.0000e-05

             **** THE GBW FILE WAS UPDATED (NCE_2_M06L_def2TZVP_coords.gbw) ****
             **** DENSITY NCE_2_M06L_def2TZVP_coords.scfp WAS UPDATED ****
             **** ENERGY FILE WAS UPDATED (NCE_2_M06L_def2TZVP_coords.en.tmp) ****
             **** THE GBW FILE WAS UPDATED (NCE_2_M06L_def2TZVP_coords.gbw) ****
             **** DENSITY NCE_2_M06L_def2TZVP_coords.scfp WAS UPDATED ****
----------------
ORBITAL ENERGIES
----------------

  NO   OCC          E(Eh)            E(eV) 
   0   2.0000     -19.863547      -540.5146 
   1   2.0000     -19.830582      -539.6176 
   2   2.0000     -19.787181      -538.4366 
   3   2.0000     -10.842968      -295.0522 
   4   2.0000     -10.770056      -293.0681 
   5   2.0000     -10.763535      -292.8907 
   6   2.0000     -10.728709      -291.9430 
   7   2.0000     -10.725064      -291.8438 
   8   2.0000     -10.721700      -291.7523 
   9   2.0000     -10.718807      -291.6736 
  10   2.0000     -10.710799      -291.4557 
  11   2.0000     -10.707728      -291.3721 
  12   2.0000     -10.702643      -291.2337 
  13   2.0000     -10.701808      -291.2110 
  14   2.0000     -10.700576      -291.1775 
  15   2.0000     -10.694463      -291.0111 
  16   2.0000     -10.693563      -290.9866 
  17   2.0000     -10.692463      -290.9567 
  18   2.0000     -10.690937      -290.9152 
  19   2.0000     -10.689816      -290.8847 
  20   2.0000     -10.686739      -290.8010 
  21   2.0000     -10.686467      -290.7935 
  22   2.0000     -10.685650      -290.7713 
  23   2.0000     -10.685512      -290.7676 
  24   2.0000     -10.684468      -290.7392 
  25   2.0000     -10.684394      -290.7371 
  26   2.0000     -10.683523      -290.7135 
  27   2.0000      -1.357181       -36.9308 
  28   2.0000      -1.299739       -35.3677 
  29   2.0000      -1.261379       -34.3239 
  30   2.0000      -1.110892       -30.2289 
  31   2.0000      -1.079269       -29.3684 
  32   2.0000      -1.068993       -29.0888 
  33   2.0000      -1.047180       -28.4952 
  34   2.0000      -1.004472       -27.3331 
  35   2.0000      -0.976548       -26.5732 
  36   2.0000      -0.957912       -26.0661 
  37   2.0000      -0.950362       -25.8607 
  38   2.0000      -0.942224       -25.6392 
  39   2.0000      -0.939122       -25.5548 
  40   2.0000      -0.912664       -24.8348 
  41   2.0000      -0.879381       -23.9292 
  42   2.0000      -0.850248       -23.1364 
  43   2.0000      -0.818169       -22.2635 
  44   2.0000      -0.813409       -22.1340 
  45   2.0000      -0.789479       -21.4828 
  46   2.0000      -0.780008       -21.2251 
  47   2.0000      -0.773368       -21.0444 
  48   2.0000      -0.738923       -20.1071 
  49   2.0000      -0.727094       -19.7852 
  50   2.0000      -0.716876       -19.5072 
  51   2.0000      -0.683402       -18.5963 
  52   2.0000      -0.681360       -18.5407 
  53   2.0000      -0.662436       -18.0258 
  54   2.0000      -0.650354       -17.6970 
  55   2.0000      -0.642517       -17.4838 
  56   2.0000      -0.637704       -17.3528 
  57   2.0000      -0.621945       -16.9240 
  58   2.0000      -0.618961       -16.8428 
  59   2.0000      -0.609744       -16.5920 
  60   2.0000      -0.607705       -16.5365 
  61   2.0000      -0.600124       -16.3302 
  62   2.0000      -0.599356       -16.3093 
  63   2.0000      -0.580386       -15.7931 
  64   2.0000      -0.577754       -15.7215 
  65   2.0000      -0.570346       -15.5199 
  66   2.0000      -0.558688       -15.2027 
  67   2.0000      -0.555633       -15.1195 
  68   2.0000      -0.555406       -15.1134 
  69   2.0000      -0.541731       -14.7413 
  70   2.0000      -0.539561       -14.6822 
  71   2.0000      -0.531897       -14.4737 
  72   2.0000      -0.531231       -14.4555 
  73   2.0000      -0.513282       -13.9671 
  74   2.0000      -0.504194       -13.7198 
  75   2.0000      -0.496812       -13.5189 
  76   2.0000      -0.491093       -13.3633 
  77   2.0000      -0.482768       -13.1368 
  78   2.0000      -0.478938       -13.0326 
  79   2.0000      -0.478433       -13.0188 
  80   2.0000      -0.468631       -12.7521 
  81   2.0000      -0.463293       -12.6068 
  82   2.0000      -0.452511       -12.3134 
  83   2.0000      -0.437132       -11.8950 
  84   2.0000      -0.431600       -11.7444 
  85   2.0000      -0.402454       -10.9513 
  86   2.0000      -0.365164        -9.9366 
  87   2.0000      -0.351122        -9.5545 
  88   2.0000      -0.346572        -9.4307 
  89   2.0000      -0.339421        -9.2361 
  90   2.0000      -0.328874        -8.9491 
  91   2.0000      -0.288077        -7.8390 
  92   0.0000       0.015228         0.4144 
  93   0.0000       0.033493         0.9114 
  94   0.0000       0.079022         2.1503 
  95   0.0000       0.086283         2.3479 
  96   0.0000       0.090160         2.4534 
  97   0.0000       0.103848         2.8258 
  98   0.0000       0.126784         3.4500 
  99   0.0000       0.131314         3.5732 
 100   0.0000       0.133720         3.6387 
 101   0.0000       0.143024         3.8919 
 102   0.0000       0.150655         4.0995 
 103   0.0000       0.153205         4.1689 
 104   0.0000       0.153777         4.1845 
 105   0.0000       0.165510         4.5038 
 106   0.0000       0.167100         4.5470 
 107   0.0000       0.167775         4.5654 
 108   0.0000       0.174340         4.7440 
 109   0.0000       0.179895         4.8952 
 110   0.0000       0.187384         5.0990 
 111   0.0000       0.191974         5.2239 
 112   0.0000       0.198121         5.3911 
 113   0.0000       0.198585         5.4038 
 114   0.0000       0.205410         5.5895 
 115   0.0000       0.209631         5.7043 
 116   0.0000       0.215901         5.8750 
 117   0.0000       0.219340         5.9685 
 118   0.0000       0.228198         6.2096 
 119   0.0000       0.232922         6.3381 
 120   0.0000       0.234022         6.3681 
 121   0.0000       0.251391         6.8407 
 122   0.0000       0.259285         7.0555 
 123   0.0000       0.259954         7.0737 
 124   0.0000       0.263094         7.1591 
 125   0.0000       0.267639         7.2828 
 126   0.0000       0.274912         7.4807 
 127   0.0000       0.283260         7.7079 
 128   0.0000       0.285708         7.7745 
 129   0.0000       0.287348         7.8191 
 130   0.0000       0.292251         7.9526 
 131   0.0000       0.292306         7.9541 
 132   0.0000       0.301015         8.1910 
 133   0.0000       0.302142         8.2217 
 134   0.0000       0.307317         8.3625 
 135   0.0000       0.309000         8.4083 
 136   0.0000       0.309354         8.4180 
 137   0.0000       0.316197         8.6041 
 138   0.0000       0.317934         8.6514 
 139   0.0000       0.326842         8.8938 
 140   0.0000       0.328300         8.9335 
 141   0.0000       0.336047         9.1443 
 142   0.0000       0.336262         9.1502 
 143   0.0000       0.343013         9.3338 
 144   0.0000       0.347952         9.4683 
 145   0.0000       0.349520         9.5109 
 146   0.0000       0.353383         9.6160 
 147   0.0000       0.354308         9.6412 
 148   0.0000       0.357313         9.7230 
 149   0.0000       0.362092         9.8530 
 150   0.0000       0.370994        10.0953 
 151   0.0000       0.376490        10.2448 
 152   0.0000       0.378493        10.2993 
 153   0.0000       0.381510        10.3814 
 154   0.0000       0.384768        10.4701 
 155   0.0000       0.388310        10.5665 
 156   0.0000       0.397556        10.8180 
 157   0.0000       0.403147        10.9702 
 158   0.0000       0.403184        10.9712 
 159   0.0000       0.409537        11.1441 
 160   0.0000       0.410152        11.1608 
 161   0.0000       0.422031        11.4840 
 162   0.0000       0.426131        11.5956 
 163   0.0000       0.428573        11.6621 
 164   0.0000       0.436193        11.8694 
 165   0.0000       0.436535        11.8787 
 166   0.0000       0.445915        12.1340 
 167   0.0000       0.447939        12.1890 
 168   0.0000       0.453158        12.3310 
 169   0.0000       0.456372        12.4185 
 170   0.0000       0.457441        12.4476 
 171   0.0000       0.460203        12.5228 
 172   0.0000       0.466322        12.6893 
 173   0.0000       0.473151        12.8751 
 174   0.0000       0.473684        12.8896 
 175   0.0000       0.476455        12.9650 
 176   0.0000       0.480999        13.0887 
 177   0.0000       0.484198        13.1757 
 178   0.0000       0.488618        13.2960 
 179   0.0000       0.495802        13.4915 
 180   0.0000       0.496592        13.5130 
 181   0.0000       0.504613        13.7312 
 182   0.0000       0.509148        13.8546 
 183   0.0000       0.509357        13.8603 
 184   0.0000       0.512495        13.9457 
 185   0.0000       0.517731        14.0882 
 186   0.0000       0.518502        14.1092 
 187   0.0000       0.518551        14.1105 
 188   0.0000       0.524066        14.2606 
 189   0.0000       0.526572        14.3288 
 190   0.0000       0.531146        14.4532 
 191   0.0000       0.532416        14.4878 
 192   0.0000       0.536737        14.6054 
 193   0.0000       0.547157        14.8889 
 194   0.0000       0.551649        15.0111 
 195   0.0000       0.554396        15.0859 
 196   0.0000       0.560968        15.2647 
 197   0.0000       0.561895        15.2899 
 198   0.0000       0.568382        15.4665 
 199   0.0000       0.570457        15.5229 
 200   0.0000       0.576396        15.6845 
 201   0.0000       0.577134        15.7046 
 202   0.0000       0.582483        15.8502 
 203   0.0000       0.585761        15.9394 
 204   0.0000       0.594348        16.1730 
 205   0.0000       0.598603        16.2888 
 206   0.0000       0.599348        16.3091 
 207   0.0000       0.603611        16.4251 
 208   0.0000       0.611976        16.6527 
 209   0.0000       0.612220        16.6594 
 210   0.0000       0.616562        16.7775 
 211   0.0000       0.619101        16.8466 
 212   0.0000       0.622747        16.9458 
 213   0.0000       0.631039        17.1714 
 214   0.0000       0.633450        17.2370 
 215   0.0000       0.636259        17.3135 
 216   0.0000       0.642277        17.4773 
 217   0.0000       0.644794        17.5457 
 218   0.0000       0.646674        17.5969 
 219   0.0000       0.652844        17.7648 
 220   0.0000       0.662280        18.0216 
 221   0.0000       0.670700        18.2507 
 222   0.0000       0.681638        18.5483 
 223   0.0000       0.684303        18.6208 
 224   0.0000       0.695106        18.9148 
 225   0.0000       0.698112        18.9966 
 226   0.0000       0.699651        19.0385 
 227   0.0000       0.708519        19.2798 
 228   0.0000       0.721802        19.6412 
 229   0.0000       0.722142        19.6505 
 230   0.0000       0.733575        19.9616 
 231   0.0000       0.734235        19.9796 
 232   0.0000       0.745739        20.2926 
 233   0.0000       0.746925        20.3249 
 234   0.0000       0.754650        20.5351 
 235   0.0000       0.760795        20.7023 
 236   0.0000       0.763637        20.7796 
 237   0.0000       0.764717        20.8090 
 238   0.0000       0.777296        21.1513 
 239   0.0000       0.779356        21.2074 
 240   0.0000       0.780901        21.2494 
 241   0.0000       0.783156        21.3108 
 242   0.0000       0.787061        21.4170 
 243   0.0000       0.795768        21.6540 
 244   0.0000       0.800751        21.7895 
 245   0.0000       0.804722        21.8976 
 246   0.0000       0.805036        21.9061 
 247   0.0000       0.812813        22.1178 
 248   0.0000       0.814791        22.1716 
 249   0.0000       0.824616        22.4389 
 250   0.0000       0.830229        22.5917 
 251   0.0000       0.831755        22.6332 
 252   0.0000       0.834127        22.6978 
 253   0.0000       0.839195        22.8357 
 254   0.0000       0.844244        22.9731 
 255   0.0000       0.850514        23.1437 
 256   0.0000       0.850841        23.1526 
 257   0.0000       0.855288        23.2736 
 258   0.0000       0.861402        23.4399 
 259   0.0000       0.863078        23.4855 
 260   0.0000       0.864438        23.5226 
 261   0.0000       0.875880        23.8339 
 262   0.0000       0.880604        23.9624 
 263   0.0000       0.882597        24.0167 
 264   0.0000       0.885063        24.0838 
 265   0.0000       0.893517        24.3138 
 266   0.0000       0.901003        24.5175 
 267   0.0000       0.902794        24.5663 
 268   0.0000       0.907899        24.7052 
 269   0.0000       0.913106        24.8469 
 270   0.0000       0.916347        24.9351 
 271   0.0000       0.918877        25.0039 
 272   0.0000       0.919801        25.0291 
 273   0.0000       0.930538        25.3212 
 274   0.0000       0.940906        25.6033 
 275   0.0000       0.942169        25.6377 
 276   0.0000       0.943958        25.6864 
 277   0.0000       0.945862        25.7382 
 278   0.0000       0.951276        25.8855 
 279   0.0000       0.968742        26.3608 
 280   0.0000       0.976043        26.5595 
 281   0.0000       0.980121        26.6704 
 282   0.0000       0.980761        26.6879 
 283   0.0000       0.983929        26.7741 
 284   0.0000       0.988180        26.8897 
 285   0.0000       0.991884        26.9905 
 286   0.0000       0.998642        27.1744 
 287   0.0000       1.008518        27.4432 
 288   0.0000       1.013293        27.5731 
 289   0.0000       1.015845        27.6425 
 290   0.0000       1.020672        27.7739 
 291   0.0000       1.020720        27.7752 
 292   0.0000       1.029543        28.0153 
 293   0.0000       1.036663        28.2090 
 294   0.0000       1.039390        28.2832 
 295   0.0000       1.042667        28.3724 
 296   0.0000       1.051645        28.6167 
 297   0.0000       1.062792        28.9200 
 298   0.0000       1.068848        29.0848 
 299   0.0000       1.073336        29.2069 
 300   0.0000       1.081619        29.4323 
 301   0.0000       1.092492        29.7282 
 302   0.0000       1.103679        30.0326 
 303   0.0000       1.105539        30.0832 
 304   0.0000       1.116096        30.3705 
 305   0.0000       1.123210        30.5641 
 306   0.0000       1.125878        30.6367 
 307   0.0000       1.142679        31.0939 
 308   0.0000       1.149145        31.2698 
 309   0.0000       1.149172        31.2705 
 310   0.0000       1.162272        31.6270 
 311   0.0000       1.163716        31.6663 
 312   0.0000       1.175599        31.9897 
 313   0.0000       1.176304        32.0088 
 314   0.0000       1.179200        32.0877 
 315   0.0000       1.192659        32.4539 
 316   0.0000       1.202241        32.7146 
 317   0.0000       1.223286        33.2873 
 318   0.0000       1.228473        33.4285 
 319   0.0000       1.232567        33.5398 
 320   0.0000       1.235905        33.6307 
 321   0.0000       1.237398        33.6713 
 322   0.0000       1.242492        33.8099 
 323   0.0000       1.255601        34.1666 
 324   0.0000       1.261390        34.3242 
 325   0.0000       1.278631        34.7933 
 326   0.0000       1.279991        34.8303 
 327   0.0000       1.287894        35.0454 
 328   0.0000       1.298344        35.3297 
 329   0.0000       1.299501        35.3612 
 330   0.0000       1.313647        35.7461 
 331   0.0000       1.319537        35.9064 
 332   0.0000       1.326200        36.0877 
 333   0.0000       1.344600        36.5884 
 334   0.0000       1.345406        36.6104 
 335   0.0000       1.350934        36.7608 
 336   0.0000       1.353850        36.8401 
 337   0.0000       1.355813        36.8935 
 338   0.0000       1.370004        37.2797 
 339   0.0000       1.380963        37.5779 
 340   0.0000       1.387203        37.7477 
 341   0.0000       1.396005        37.9872 
 342   0.0000       1.401994        38.1502 
 343   0.0000       1.402834        38.1731 
 344   0.0000       1.410392        38.3787 
 345   0.0000       1.411478        38.4083 
 346   0.0000       1.415990        38.5311 
 347   0.0000       1.427210        38.8363 
 348   0.0000       1.428399        38.8687 
 349   0.0000       1.437263        39.1099 
 350   0.0000       1.442495        39.2523 
 351   0.0000       1.459247        39.7081 
 352   0.0000       1.465490        39.8780 
 353   0.0000       1.470931        40.0261 
 354   0.0000       1.475603        40.1532 
 355   0.0000       1.480493        40.2863 
 356   0.0000       1.493006        40.6268 
 357   0.0000       1.495450        40.6932 
 358   0.0000       1.506598        40.9966 
 359   0.0000       1.520012        41.3616 
 360   0.0000       1.534890        41.7665 
 361   0.0000       1.538353        41.8607 
 362   0.0000       1.541328        41.9417 
 363   0.0000       1.543244        41.9938 
 364   0.0000       1.565756        42.6064 
 365   0.0000       1.567478        42.6532 
 366   0.0000       1.571618        42.7659 
 367   0.0000       1.577551        42.9273 
 368   0.0000       1.585366        43.1400 
 369   0.0000       1.592403        43.3315 
 370   0.0000       1.593432        43.3595 
 371   0.0000       1.602536        43.6072 
 372   0.0000       1.611808        43.8595 
 373   0.0000       1.624921        44.2163 
 374   0.0000       1.628325        44.3090 
 375   0.0000       1.631630        44.3989 
 376   0.0000       1.637715        44.5645 
 377   0.0000       1.642149        44.6851 
 378   0.0000       1.649119        44.8748 
 379   0.0000       1.651773        44.9470 
 380   0.0000       1.660073        45.1729 
 381   0.0000       1.669572        45.4314 
 382   0.0000       1.672102        45.5002 
 383   0.0000       1.675781        45.6003 
 384   0.0000       1.677204        45.6390 
 385   0.0000       1.690976        46.0138 
 386   0.0000       1.692552        46.0567 
 387   0.0000       1.693301        46.0771 
 388   0.0000       1.702116        46.3169 
 389   0.0000       1.702549        46.3287 
 390   0.0000       1.710252        46.5383 
 391   0.0000       1.715847        46.6906 
 392   0.0000       1.720141        46.8074 
 393   0.0000       1.720541        46.8183 
 394   0.0000       1.741228        47.3812 
 395   0.0000       1.744194        47.4619 
 396   0.0000       1.748402        47.5764 
 397   0.0000       1.755886        47.7801 
 398   0.0000       1.758962        47.8638 
 399   0.0000       1.766036        48.0563 
 400   0.0000       1.775385        48.3107 
 401   0.0000       1.789295        48.6892 
 402   0.0000       1.791180        48.7405 
 403   0.0000       1.791785        48.7569 
 404   0.0000       1.795599        48.8607 
 405   0.0000       1.798373        48.9362 
 406   0.0000       1.809155        49.2296 
 407   0.0000       1.824798        49.6553 
 408   0.0000       1.827488        49.7285 
 409   0.0000       1.838879        50.0385 
 410   0.0000       1.843635        50.1679 
 411   0.0000       1.850413        50.3523 
 412   0.0000       1.864217        50.7279 
 413   0.0000       1.864726        50.7418 
 414   0.0000       1.865260        50.7563 
 415   0.0000       1.875183        51.0263 
 416   0.0000       1.878736        51.1230 
 417   0.0000       1.882560        51.2271 
 418   0.0000       1.892017        51.4844 
 419   0.0000       1.893239        51.5177 
 420   0.0000       1.895749        51.5860 
 421   0.0000       1.908697        51.9383 
 422   0.0000       1.910786        51.9951 
 423   0.0000       1.918635        52.2087 
 424   0.0000       1.923411        52.3387 
 425   0.0000       1.927400        52.4472 
 426   0.0000       1.938879        52.7596 
 427   0.0000       1.946431        52.9651 
 428   0.0000       1.951278        53.0970 
 429   0.0000       1.956763        53.2462 
 430   0.0000       1.960155        53.3385 
 431   0.0000       1.978593        53.8402 
 432   0.0000       1.980961        53.9047 
 433   0.0000       1.990253        54.1576 
 434   0.0000       1.995601        54.3031 
 435   0.0000       2.012955        54.7753 
 436   0.0000       2.015550        54.8459 
 437   0.0000       2.032283        55.3012 
 438   0.0000       2.041316        55.5470 
 439   0.0000       2.042177        55.5704 
 440   0.0000       2.050699        55.8024 
 441   0.0000       2.056448        55.9588 
 442   0.0000       2.067411        56.2571 
 443   0.0000       2.081687        56.6456 
 444   0.0000       2.088931        56.8427 
 445   0.0000       2.101508        57.1849 
 446   0.0000       2.104670        57.2710 
 447   0.0000       2.108923        57.3867 
 448   0.0000       2.120723        57.7078 
 449   0.0000       2.126800        57.8732 
 450   0.0000       2.138536        58.1925 
 451   0.0000       2.150571        58.5200 
 452   0.0000       2.162912        58.8558 
 453   0.0000       2.163313        58.8667 
 454   0.0000       2.173218        59.1363 
 455   0.0000       2.183585        59.4184 
 456   0.0000       2.191052        59.6216 
 457   0.0000       2.192396        59.6581 
 458   0.0000       2.194816        59.7240 
 459   0.0000       2.200942        59.8907 
 460   0.0000       2.220325        60.4181 
 461   0.0000       2.230201        60.6869 
 462   0.0000       2.240708        60.9728 
 463   0.0000       2.242357        61.0176 
 464   0.0000       2.259966        61.4968 
 465   0.0000       2.264326        61.6155 
 466   0.0000       2.272834        61.8470 
 467   0.0000       2.290778        62.3352 
 468   0.0000       2.294149        62.4270 
 469   0.0000       2.297493        62.5180 
 470   0.0000       2.313078        62.9420 
 471   0.0000       2.315346        63.0038 
 472   0.0000       2.316941        63.0472 
 473   0.0000       2.320704        63.1496 
 474   0.0000       2.336639        63.5832 
 475   0.0000       2.348682        63.9109 
 476   0.0000       2.351246        63.9807 
 477   0.0000       2.356190        64.1152 
 478   0.0000       2.361843        64.2690 
 479   0.0000       2.362845        64.2963 
 480   0.0000       2.370096        64.4936 
 481   0.0000       2.382378        64.8278 
 482   0.0000       2.392758        65.1102 
 483   0.0000       2.399464        65.2927 
 484   0.0000       2.406161        65.4750 
 485   0.0000       2.417862        65.7934 
 486   0.0000       2.421422        65.8902 
 487   0.0000       2.430008        66.1239 
 488   0.0000       2.443364        66.4873 
 489   0.0000       2.446909        66.5838 
 490   0.0000       2.459912        66.9376 
 491   0.0000       2.461930        66.9925 
 492   0.0000       2.469141        67.1888 
 493   0.0000       2.474458        67.3334 
 494   0.0000       2.489724        67.7488 
 495   0.0000       2.499336        68.0104 
 496   0.0000       2.502815        68.1051 
 497   0.0000       2.506125        68.1951 
 498   0.0000       2.511872        68.3515 
 499   0.0000       2.530135        68.8485 
 500   0.0000       2.533718        68.9460 
 501   0.0000       2.543702        69.2176 
 502   0.0000       2.553693        69.4895 
 503   0.0000       2.567163        69.8561 
 504   0.0000       2.567860        69.8750 
 505   0.0000       2.576367        70.1065 
 506   0.0000       2.586867        70.3922 
 507   0.0000       2.614525        71.1448 
 508   0.0000       2.615919        71.1828 
 509   0.0000       2.620882        71.3178 
 510   0.0000       2.636604        71.7456 
 511   0.0000       2.654374        72.2292 
 512   0.0000       2.665985        72.5452 
 513   0.0000       2.669741        72.6473 
 514   0.0000       2.675362        72.8003 
 515   0.0000       2.678108        72.8750 
 516   0.0000       2.692373        73.2632 
 517   0.0000       2.702716        73.5446 
 518   0.0000       2.702727        73.5449 
 519   0.0000       2.716056        73.9076 
 520   0.0000       2.724028        74.1246 
 521   0.0000       2.737023        74.4782 
 522   0.0000       2.739680        74.5505 
 523   0.0000       2.741524        74.6007 
 524   0.0000       2.742530        74.6280 
 525   0.0000       2.755011        74.9677 
 526   0.0000       2.759290        75.0841 
 527   0.0000       2.776520        75.5530 
 528   0.0000       2.782352        75.7116 
 529   0.0000       2.800408        76.2030 
 530   0.0000       2.801564        76.2344 
 531   0.0000       2.808190        76.4147 
 532   0.0000       2.810240        76.4705 
 533   0.0000       2.817712        76.6738 
 534   0.0000       2.831401        77.0463 
 535   0.0000       2.834692        77.1359 
 536   0.0000       2.835488        77.1575 
 537   0.0000       2.839211        77.2589 
 538   0.0000       2.846144        77.4475 
 539   0.0000       2.857788        77.7644 
 540   0.0000       2.862636        77.8963 
 541   0.0000       2.869882        78.0935 
 542   0.0000       2.871852        78.1471 
 543   0.0000       2.875009        78.2330 
 544   0.0000       2.883081        78.4526 
 545   0.0000       2.884708        78.4969 
 546   0.0000       2.891517        78.6822 
 547   0.0000       2.892345        78.7047 
 548   0.0000       2.899566        78.9012 
 549   0.0000       2.906491        79.0897 
 550   0.0000       2.907804        79.1254 
 551   0.0000       2.915494        79.3346 
 552   0.0000       2.917399        79.3865 
 553   0.0000       2.926377        79.6308 
 554   0.0000       2.933639        79.8284 
 555   0.0000       2.935587        79.8814 
 556   0.0000       2.944091        80.1128 
 557   0.0000       2.951289        80.3087 
 558   0.0000       2.953283        80.3629 
 559   0.0000       2.954234        80.3888 
 560   0.0000       2.964349        80.6640 
 561   0.0000       2.964375        80.6647 
 562   0.0000       2.970652        80.8356 
 563   0.0000       2.976716        81.0006 
 564   0.0000       2.981724        81.1368 
 565   0.0000       2.995731        81.5180 
 566   0.0000       2.996890        81.5495 
 567   0.0000       3.009653        81.8968 
 568   0.0000       3.010699        81.9253 
 569   0.0000       3.011361        81.9433 
 570   0.0000       3.015437        82.0542 
 571   0.0000       3.019088        82.1536 
 572   0.0000       3.026248        82.3484 
 573   0.0000       3.028943        82.4217 
 574   0.0000       3.034741        82.5795 
 575   0.0000       3.037221        82.6470 
 576   0.0000       3.050441        83.0067 
 577   0.0000       3.054035        83.1045 
 578   0.0000       3.056585        83.1739 
 579   0.0000       3.066358        83.4398 
 580   0.0000       3.071302        83.5744 
 581   0.0000       3.073033        83.6215 
 582   0.0000       3.077981        83.7561 
 583   0.0000       3.083918        83.9177 
 584   0.0000       3.086921        83.9994 
 585   0.0000       3.096662        84.2645 
 586   0.0000       3.098164        84.3053 
 587   0.0000       3.101890        84.4067 
 588   0.0000       3.112906        84.7065 
 589   0.0000       3.114426        84.7478 
 590   0.0000       3.123019        84.9817 
 591   0.0000       3.129941        85.1700 
 592   0.0000       3.136029        85.3357 
 593   0.0000       3.143819        85.5477 
 594   0.0000       3.144028        85.5533 
 595   0.0000       3.151064        85.7448 
 596   0.0000       3.165625        86.1410 
 597   0.0000       3.172534        86.3290 
 598   0.0000       3.175174        86.4009 
 599   0.0000       3.178466        86.4905 
 600   0.0000       3.181135        86.5631 
 601   0.0000       3.185170        86.6729 
 602   0.0000       3.194813        86.9353 
 603   0.0000       3.207596        87.2831 
 604   0.0000       3.208812        87.3162 
 605   0.0000       3.211237        87.3822 
 606   0.0000       3.224166        87.7340 
 607   0.0000       3.224490        87.7428 
 608   0.0000       3.241836        88.2148 
 609   0.0000       3.248899        88.4070 
 610   0.0000       3.250169        88.4416 
 611   0.0000       3.258870        88.6784 
[...]
    88a ->  94a  :     0.014558 
    88a ->  98a  :     0.013055 
    90a ->  92a  :     0.022462 
    90a ->  93a  :     0.028511 
    90a ->  97a  :     0.029770 
    90a ->  98a  :     0.040749 
    91a ->  94a  :     0.020187 
    91a ->  96a  :     0.046949 
    91a ->  97a  :     0.019547 
    91a ->  98a  :     0.046997 

STATE 15:  E=   0.224132 au      6.099 eV    49191.4 cm**-1 <S**2> =   0.000000
    85a ->  93a  :     0.023018 
    86a ->  92a  :     0.162716 
    86a ->  93a  :     0.024420 
    87a ->  92a  :     0.148165 
    87a ->  93a  :     0.034012 
    87a ->  96a  :     0.059194 
    88a ->  92a  :     0.172819 
    88a ->  93a  :     0.068354 
    88a ->  94a  :     0.064063 
    88a ->  97a  :     0.029298 
    89a ->  95a  :     0.014178 
    90a ->  97a  :     0.050814 
    91a ->  92a  :     0.018170 
    91a ->  98a  :     0.014771 

STATE 16:  E=   0.233761 au      6.361 eV    51304.6 cm**-1 <S**2> =   0.000000
    85a ->  92a  :     0.153110 
    85a ->  93a  :     0.075530 
    86a ->  93a  :     0.033355 
    87a ->  92a  :     0.085511 
    87a ->  96a  :     0.084717 
    88a ->  92a  :     0.025104 
    88a ->  93a  :     0.031602 
    88a ->  94a  :     0.135199 
    88a ->  96a  :     0.018977 
    89a ->  95a  :     0.069303 
    90a ->  94a  :     0.051863 
    90a -> 103a  :     0.018295 
    91a ->  94a  :     0.039402 
    91a ->  96a  :     0.014454 
    91a ->  97a  :     0.026513 
    91a -> 103a  :     0.015140 

STATE 17:  E=   0.230370 au      6.269 eV    50560.3 cm**-1 <S**2> =   0.000000
    85a ->  92a  :     0.201983 
    85a ->  93a  :     0.108097 
    85a ->  97a  :     0.012778 
    86a ->  92a  :     0.095533 
    86a ->  93a  :     0.085749 
    86a ->  97a  :     0.026086 
    86a ->  98a  :     0.035680 
    88a ->  92a  :     0.012650 
    88a ->  93a  :     0.015796 
    90a ->  97a  :     0.017469 
    91a ->  94a  :     0.021478 
    91a ->  96a  :     0.061090 
    91a ->  97a  :     0.169837 
    91a ->  98a  :     0.021469 

STATE 18:  E=   0.238737 au      6.496 eV    52396.7 cm**-1 <S**2> =   0.000000
    84a ->  92a  :     0.016953 
    87a ->  95a  :     0.338258 
    88a ->  95a  :     0.083403 
    89a ->  93a  :     0.287983 
    89a ->  94a  :     0.094362 
    89a ->  96a  :     0.083940 
    90a ->  95a  :     0.024345 
    91a ->  95a  :     0.011108 

STATE 19:  E=   0.241713 au      6.577 eV    53049.9 cm**-1 <S**2> =   0.000000
    85a ->  93a  :     0.120811 
    86a ->  92a  :     0.018839 
    86a ->  93a  :     0.159496 
    87a ->  92a  :     0.013490 
    87a ->  93a  :     0.062495 
    87a ->  94a  :     0.063334 
    88a ->  92a  :     0.045975 
    88a ->  94a  :     0.066432 
    88a ->  96a  :     0.107865 
    88a ->  98a  :     0.012667 
    89a ->  95a  :     0.060786 
    90a ->  92a  :     0.012421 
    90a ->  93a  :     0.013635 
    90a ->  94a  :     0.061951 
    90a ->  97a  :     0.025252 
    90a -> 103a  :     0.032871 

STATE 20:  E=   0.239512 au      6.517 eV    52566.7 cm**-1 <S**2> =   0.000000
    80a ->  95a  :     0.011732 
    83a ->  95a  :     0.011884 
    85a ->  95a  :     0.039655 
    86a ->  95a  :     0.020643 
    87a ->  95a  :     0.015058 
    90a ->  95a  :     0.116879 
    91a ->  95a  :     0.728143 

STATE 21:  E=   0.247422 au      6.733 eV    54302.8 cm**-1 <S**2> =   0.000000
    83a ->  92a  :     0.010360 
    85a ->  92a  :     0.122645 
    85a ->  93a  :     0.045338 
    86a ->  92a  :     0.089119 
    86a ->  93a  :     0.013611 
    86a ->  97a  :     0.014575 
    87a ->  93a  :     0.032948 
    87a ->  94a  :     0.102093 
    87a ->  96a  :     0.102567 
    87a ->  97a  :     0.012586 
    88a ->  92a  :     0.013580 
    88a ->  93a  :     0.024670 
    88a ->  96a  :     0.048492 
    89a ->  95a  :     0.228803 
    90a ->  92a  :     0.012298 
    90a ->  94a  :     0.017068 
    90a -> 103a  :     0.019225 
    91a ->  94a  :     0.013154 

STATE 22:  E=   0.241608 au      6.574 eV    53026.9 cm**-1 <S**2> =   0.000000
    79a ->  93a  :     0.011752 
    84a ->  92a  :     0.035832 
    87a ->  95a  :     0.085302 
    88a ->  95a  :     0.021941 
    89a ->  93a  :     0.504515 
    89a ->  94a  :     0.043478 
    89a ->  96a  :     0.191901 
    89a ->  97a  :     0.020174 
    89a ->  98a  :     0.023368 

STATE 23:  E=   0.249273 au      6.783 eV    54709.1 cm**-1 <S**2> =   0.000000
    83a ->  92a  :     0.012127 
    83a ->  93a  :     0.019934 
    85a ->  94a  :     0.011643 
    86a ->  93a  :     0.054625 
    86a ->  94a  :     0.027640 
    86a ->  97a  :     0.014261 
    88a ->  94a  :     0.026119 
    90a ->  94a  :     0.030089 
    90a ->  97a  :     0.028331 
    90a ->  98a  :     0.018492 
    91a ->  94a  :     0.055882 
    91a ->  96a  :     0.145889 
    91a ->  97a  :     0.235470 
    91a ->  98a  :     0.122187 
    91a -> 103a  :     0.098582 

STATE 24:  E=   0.249724 au      6.795 eV    54808.0 cm**-1 <S**2> =   0.000000
    72a ->  92a  :     0.010053 
    77a ->  92a  :     0.058567 
    77a ->  97a  :     0.017674 
    81a ->  92a  :     0.033104 
    82a ->  92a  :     0.699035 
    84a ->  92a  :     0.035614 

STATE 25:  E=   0.248250 au      6.755 eV    54484.5 cm**-1 <S**2> =   0.000000
    85a ->  92a  :     0.086056 
    85a ->  94a  :     0.014135 
    86a ->  93a  :     0.069010 
    86a ->  97a  :     0.018007 
    90a ->  93a  :     0.026636 
    90a ->  94a  :     0.017412 
    90a ->  97a  :     0.036489 
    91a ->  94a  :     0.139287 
    91a ->  96a  :     0.136864 
    91a ->  97a  :     0.022633 
    91a ->  98a  :     0.314380 
    91a -> 103a  :     0.026393 

STATE 26:  E=   0.267764 au      7.286 eV    58767.3 cm**-1 <S**2> =   0.000000
    90a -> 105a  :     0.010079 
    91a ->  99a  :     0.516316 
    91a -> 102a  :     0.041032 
    91a -> 104a  :     0.165480 
    91a -> 107a  :     0.022347 
    91a -> 108a  :     0.014037 
    91a -> 110a  :     0.045176 
    91a -> 115a  :     0.022491 

STATE 27:  E=   0.258858 au      7.044 eV    56812.8 cm**-1 <S**2> =   0.000000
    78a ->  92a  :     0.020644 
    83a ->  92a  :     0.022288 
    83a ->  93a  :     0.012740 
    85a ->  92a  :     0.022779 
    85a ->  93a  :     0.029819 
    85a ->  94a  :     0.011550 
    85a ->  96a  :     0.014499 
    86a ->  94a  :     0.055438 
    86a ->  97a  :     0.057193 
    90a ->  94a  :     0.029638 
    90a ->  96a  :     0.178536 
    90a ->  97a  :     0.071531 
    90a ->  98a  :     0.055982 
    91a ->  96a  :     0.135342 
    91a ->  97a  :     0.024334 
    91a ->  98a  :     0.034714 
    91a -> 103a  :     0.091767 

STATE 28:  E=   0.260777 au      7.096 eV    57233.9 cm**-1 <S**2> =   0.000000
    83a ->  93a  :     0.016114 
    85a ->  93a  :     0.100026 
    85a ->  98a  :     0.014545 
    86a ->  96a  :     0.016398 
    86a ->  97a  :     0.021137 
    86a ->  98a  :     0.012782 
    87a ->  93a  :     0.299883 
    87a ->  96a  :     0.038649 
    87a ->  97a  :     0.015885 
    88a ->  92a  :     0.012347 
    88a ->  93a  :     0.067934 
    88a ->  96a  :     0.014059 
    90a ->  93a  :     0.031351 
    90a ->  94a  :     0.044987 
    90a ->  97a  :     0.065873 
    90a ->  98a  :     0.020367 
    91a ->  96a  :     0.040632 
    91a ->  98a  :     0.015602 
    91a -> 103a  :     0.033230 

STATE 29:  E=   0.277425 au      7.549 eV    60887.8 cm**-1 <S**2> =   0.000000
    86a -> 102a  :     0.015321 
    90a ->  99a  :     0.042697 
    90a -> 102a  :     0.020953 
    90a -> 105a  :     0.017616 
    90a -> 107a  :     0.018486 
    91a -> 101a  :     0.533520 
    91a -> 102a  :     0.087959 
    91a -> 104a  :     0.026336 
    91a -> 105a  :     0.026996 
    91a -> 108a  :     0.016032 
    91a -> 109a  :     0.015733 
    91a -> 111a  :     0.012047 

STATE 30:  E=   0.265242 au      7.218 eV    58213.8 cm**-1 <S**2> =   0.000000
    73a ->  92a  :     0.016525 
    73a ->  97a  :     0.017927 
    74a ->  92a  :     0.017995 
    79a ->  92a  :     0.529511 
    79a ->  97a  :     0.014001 
    81a ->  92a  :     0.103959 
    82a ->  93a  :     0.022505 
    84a ->  92a  :     0.076701 
    84a ->  93a  :     0.016814 


-------------------------
TD-DFT-EXCITATION SPECTRA
-------------------------

Center of mass = ( -0.0125, -0.0419, -0.0000)
Calculating the Dipole integrals                  ... done
Transforming integrals                            ... done
Calculating the Linear Momentum integrals         ... done
Transforming integrals                            ... done
Calculating angular momentum integrals            ... done
Transforming integrals                            ... done

-----------------------------------------------------------------------------
         ABSORPTION SPECTRUM VIA TRANSITION ELECTRIC DIPOLE MOMENTS
-----------------------------------------------------------------------------
State   Energy    Wavelength  fosc         T2        TX        TY        TZ  
        (cm-1)      (nm)                 (au**2)    (au)      (au)      (au) 
-----------------------------------------------------------------------------
   1   30480.1    328.1   0.085588366   0.92443   0.49518   0.82415   0.00001
   2   33161.0    301.6   0.349707082   3.47178  -1.74833   0.64431   0.00011
   3   37645.2    265.6   1.036947329   9.06823  -2.82262   1.04931   0.00030
   4   38232.8    261.6   0.000034747   0.00030  -0.00001   0.00005  -0.01730
   5   39692.6    251.9   0.319747424   2.65200   1.11313  -1.18867  -0.00018
   6   42121.5    237.4   0.499431492   3.90344  -0.62484  -1.87430  -0.00012
   7   42762.6    233.8   0.000949198   0.00731  -0.00027  -0.00035  -0.08548
   8   46010.0    217.3   0.488987588   3.49882  -1.37810   1.26478   0.00019
   9   48959.2    204.3   0.027814811   0.18703  -0.12751   0.41325  -0.00005
  10   46016.9    217.3   0.000982108   0.00703   0.00075  -0.00141   0.08381
  11   46940.0    213.0   0.155909159   1.09346   0.44596  -0.94583  -0.00017
  12   47917.6    208.7   0.158982154   1.09227  -1.04115  -0.09093  -0.00004
  13   47804.9    209.2   0.027054450   0.18631  -0.32485   0.28423   0.00059
  14   49594.3    201.6   0.411757384   2.73328  -0.60560  -1.53836  -0.00003
  15   49191.4    203.3   0.365083089   2.44331   1.35125   0.78577  -0.00020
  16   51304.6    194.9   0.438725702   2.81522   1.40106   0.92317   0.00058
  17   50560.3    197.8   0.022909819   0.14917  -0.28347   0.26231   0.00294
  18   52396.7    190.9   0.389037320   2.44435  -0.00057   0.00096  -1.56344
  19   53049.9    188.5   0.111622992   0.69270  -0.37879   0.74109  -0.00079
  20   52566.7    190.2   0.003765039   0.02358   0.00074  -0.00019  -0.15355
  21   54302.8    184.2   0.297203338   1.80180   1.12614   0.73049   0.00043
  22   53026.9    188.6   0.167676681   1.04100  -0.00040  -0.00025   1.02030
  23   54709.1    182.8   0.130591881   0.78584   0.86385   0.19899  -0.00032
  24   54808.0    182.5   0.005050870   0.03034   0.00015  -0.00013  -0.17418
  25   54484.5    183.5   0.031200477   0.18852  -0.33763   0.27300  -0.00045
  26   58767.3    170.2   0.000144652   0.00081  -0.00026   0.00011  -0.02846
  27   56812.8    176.0   0.213429788   1.23676   1.07378   0.28939   0.00014
  28   57233.9    174.7   0.042092538   0.24212  -0.35634  -0.33931  -0.00322
  29   60887.8    164.2   0.004669348   0.02525   0.00742   0.00708  -0.15856
  30   58213.8    171.8   0.000508381   0.00288   0.00012   0.00005   0.05362

-----------------------------------------------------------------------------
         ABSORPTION SPECTRUM VIA TRANSITION VELOCITY DIPOLE MOMENTS
-----------------------------------------------------------------------------
State   Energy    Wavelength   fosc        P2         PX        PY        PZ  
        (cm-1)      (nm)                 (au**2)     (au)      (au)      (au) 
-----------------------------------------------------------------------------
   1   30480.1    328.1   0.099440453   0.02072  -0.07460  -0.12308  -0.00000
   2   33161.0    301.6   0.375516333   0.08511   0.27367  -0.10104  -0.00002
   3   37645.2    265.6   1.145125063   0.29462   0.50970  -0.18664  -0.00005
   4   38232.8    261.6   0.000000838   0.00000   0.00000  -0.00001   0.00047
   5   39692.6    251.9   0.358992691   0.09739  -0.21146   0.22950   0.00004
   6   42121.5    237.4   0.566988953   0.16322   0.12762   0.38332   0.00002
   7   42762.6    233.8   0.001156693   0.00034   0.00006   0.00007   0.01839
   8   46010.0    217.3   0.514177874   0.16169   0.29594  -0.27223  -0.00004
   9   48959.2    204.3   0.026587742   0.00890   0.02786  -0.09011   0.00001
  10   46016.9    217.3   0.001529264   0.00048  -0.00017   0.00032  -0.02193
  11   46940.0    213.0   0.174504775   0.05598  -0.09950   0.21467   0.00004
  12   47917.6    208.7   0.175418145   0.05745   0.23873   0.02132   0.00001
  13   47804.9    209.2   0.031386897   0.01025   0.07596  -0.06697  -0.00014
  14   49594.3    201.6   0.463062059   0.15696   0.14745   0.36772   0.00001
  15   49191.4    203.3   0.437380010   0.14705  -0.33107  -0.19349   0.00005
  16   51304.6    194.9   0.492115649   0.17256  -0.34737  -0.22780  -0.00015
  17   50560.3    197.8   0.026698659   0.00923   0.06975  -0.06603  -0.00074
  18   52396.7    190.9   0.431741690   0.15461   0.00014  -0.00024   0.39320
  19   53049.9    188.5   0.124835944   0.04526   0.09703  -0.18933   0.00020
  20   52566.7    190.2   0.004066856   0.00146  -0.00019   0.00005   0.03822
  21   54302.8    184.2   0.332111098   0.12326  -0.29386  -0.19210  -0.00011
  22   53026.9    188.6   0.201924358   0.07318   0.00010   0.00007  -0.27052
  23   54709.1    182.8   0.156551317   0.05854  -0.23557  -0.05517   0.00008
  24   54808.0    182.5   0.006115803   0.00229  -0.00004   0.00004   0.04786
  25   54484.5    183.5   0.037831398   0.01409   0.09301  -0.07373   0.00013
  26   58767.3    170.2   0.000021703   0.00001   0.00006  -0.00003   0.00295
  27   56812.8    176.0   0.241710434   0.09385  -0.29606  -0.07876  -0.00003
  28   57233.9    174.7   0.049492319   0.01936   0.10110   0.09559   0.00074
  29   60887.8    164.2   0.003307812   0.00138  -0.00210  -0.00201   0.03699
  30   58213.8    171.8   0.000669325   0.00027  -0.00005  -0.00004  -0.01632

-------------------------------------------------------------------
                             CD SPECTRUM
-------------------------------------------------------------------
State  Energy     Wavelength     R         MX        MY        MZ   
       (cm-1)       (nm)     (1e40*cgs)   (au)      (au)      (au)  
-------------------------------------------------------------------
   1   30480.1    328.1     -0.00219  -0.00004   0.00003  -0.50604
   2   33161.0    301.6      0.00433   0.00001   0.00000   0.20055
   3   37645.2    265.6      0.01998   0.00003   0.00002   0.37737
   4   38232.8    261.6      0.00241   0.10968   0.11361  -0.00004
   5   39692.6    251.9      0.00612  -0.00006  -0.00004  -0.18646
   6   42121.5    237.4     -0.03135   0.00000  -0.00000   0.60373
   7   42762.6    233.8      0.01227   0.06009  -0.13863   0.00008
   8   46010.0    217.3      0.01487   0.00008   0.00013  -0.13968
   9   48959.2    204.3     -0.04655  -0.00014  -0.00027   0.06133
  10   46016.9    217.3     -0.19195   0.18996   0.30480  -0.00144
  11   46940.0    213.0      0.19330  -0.00026  -0.00024  -1.76074
  12   47917.6    208.7     -0.06452   0.00013   0.00001  -0.10247
  13   47804.9    209.2      0.18111  -0.00026   0.00051   0.26604
  14   49594.3    201.6      0.01115  -0.00002  -0.00000  -0.34981
  15   49191.4    203.3     -0.01234   0.00017  -0.00027   0.20012
  16   51304.6    194.9     -0.13278  -0.00034   0.00056  -0.55992
  17   50560.3    197.8      1.14640  -0.00165   0.00270   0.42700
  18   52396.7    190.9     -1.12781   0.87500  -1.49607   0.00029
  19   53049.9    188.5     -0.05527   0.00029  -0.00078  -0.72169
  20   52566.7    190.2      0.00083  -0.07214  -0.22667  -0.00008
  21   54302.8    184.2      0.02294  -0.00019   0.00055  -0.31236
  22   53026.9    188.6      0.10274  -0.52361   1.06398   0.00026
  23   54709.1    182.8      0.04582   0.00007  -0.00013  -0.18990
  24   54808.0    182.5      0.02896   0.23003  -0.07393  -0.00009
  25   54484.5    183.5     -0.10277   0.00031  -0.00041   0.00821
  26   58767.3    170.2      0.02160  -0.12230   0.17286   0.00014
  27   56812.8    176.0     -0.04713  -0.00006   0.00000  -0.28680
  28   57233.9    174.7     -0.25487  -0.00183   0.00353  -0.00116
  29   60887.8    164.2      0.28164  -0.08480   0.17337   0.00001
  30   58213.8    171.8      0.00874  -0.03977   0.17997   0.00026

Total run time:     4270.370 sec

           *** ORCA-CIS/TD-DFT FINISHED WITHOUT ERROR ***

Maximum memory used throughout the entire CIS-calculation: 3932.3 MB

-----------------------
CIS/TD-DFT TOTAL ENERGY
-----------------------

    E(SCF)  =  -1146.819258064 Eh
    DE(CIS) =      0.138877373 Eh (Root  1)
    ----------------------------- ---------
    E(tot)  =  -1146.680380691 Eh


-------------------------   --------------------
FINAL SINGLE POINT ENERGY     -1146.680380691103
-------------------------   --------------------


                            ***************************************
                            *     ORCA property calculations      *
                            ***************************************


  WARNING: The energy has been calculated at the MP2 level but the densities
           used in the property calculations are still SCF densities
           MP2 response densities have not been calculated 
           use %mp2 Density relaxed end
           or  %mp2 Density unrelaxed end

                                    ---------------------
                                    Active property flags
                                    ---------------------
   (+) Dipole Moment


------------------------------------------------------------------------------
                       ORCA ELECTRIC PROPERTIES CALCULATION
------------------------------------------------------------------------------

Dipole Moment Calculation                       ... on
Quadrupole Moment Calculation                   ... off
Polarizability Calculation                      ... off
GBWName                                         ... NCE_2_M06L_def2TZVP_coords.gbw
Electron density                                ... NCE_2_M06L_def2TZVP_coords.scfp
The origin for moment calculation is the CENTER OF MASS  = (-0.012521, -0.041934 -0.000006)

-------------
DIPOLE MOMENT
-------------
                                X             Y             Z
Electronic contribution:     -1.25815      -4.56349      -0.00077
Nuclear contribution   :      2.30387       7.71586       0.00102
                        -----------------------------------------
Total Dipole Moment    :      1.04573       3.15237       0.00025
                        -----------------------------------------
Magnitude (a.u.)       :      3.32129
Magnitude (Debye)      :      8.44206



--------------------
Rotational spectrum 
--------------------
 
Rotational constants in cm-1:     0.011445     0.004004     0.003062 
Rotational constants in MHz :   343.117137   120.023996    91.800824 

 Dipole components along the rotational axes: 
x,y,z [a.u.] :    -1.018100     3.161403     0.000099 
x,y,z [Debye]:    -2.587804     8.035648     0.000251 

 

Timings for individual modules:

Sum of individual times         ...     5039.660 sec (=  83.994 min)
GTO integral calculation        ...        2.965 sec (=   0.049 min)   0.1 %
SCF iterations                  ...      359.292 sec (=   5.988 min)   7.1 %
MP2 module                      ...      406.436 sec (=   6.774 min)   8.1 %
CIS module                      ...     4270.967 sec (=  71.183 min)  84.7 %
                             ****ORCA TERMINATED NORMALLY****
TOTAL RUN TIME: 0 days 1 hours 24 minutes 4 seconds 818 msec
