 Entering Gaussian System, Link 0=g09
 Input=/home/png4rjv/fotokatalizis/benchmark/OPCs/NCE_2_M062X_def2TZVP.gjf
 Output=/home/png4rjv/fotokatalizis/benchmark/OPCs/NCE_2_M062X_def2TZVP.log
 Initial command:
 /opt/nce/packages/global/g09/l1.exe "/home/png4rjv/fotokatalizis/benchmark/OPCs/NCE_2_M062X_def2TZVP/Gau-54059.inp" -scrdir="/home/png4rjv/fotokatalizis/benchmark/OPCs/NCE_2_M062X_def2TZVP/"
 Default is to use a total of  12 processors:
                               12 via shared-memory
                                1 via Linda
 Entering Link 1 = /opt/nce/packages/global/g09/l1.exe PID=     54060.
  
 Copyright (c) 1988,1990,1992,1993,1995,1998,2003,2009,2015,
            Gaussian, Inc.  All Rights Reserved.
  
 This is part of the Gaussian(R) 09 program.  It is based on
 the Gaussian(R) 03 system (copyright 2003, Gaussian, Inc.),
 the Gaussian(R) 98 system (copyright 1998, Gaussian, Inc.),
 the Gaussian(R) 94 system (copyright 1995, Gaussian, Inc.),
 the Gaussian 92(TM) system (copyright 1992, Gaussian, Inc.),
 the Gaussian 90(TM) system (copyright 1990, Gaussian, Inc.),
 the Gaussian 88(TM) system (copyright 1988, Gaussian, Inc.),
 the Gaussian 86(TM) system (copyright 1986, Carnegie Mellon
 University), and the Gaussian 82(TM) system (copyright 1983,
 Carnegie Mellon University). Gaussian is a federally registered
 trademark of Gaussian, Inc.
  
 This software contains proprietary and confidential information,
 including trade secrets, belonging to Gaussian, Inc.
  
 This software is provided under written license and may be
 used, copied, transmitted, or stored only in accord with that
 written license.
  
 The following legend is applicable only to US Government
 contracts under FAR:
  
                    RESTRICTED RIGHTS LEGEND
  
 Use, reproduction and disclosure by the US Government is
 subject to restrictions as set forth in subparagraphs (a)
 and (c) of the Commercial Computer Software - Restricted
 Rights clause in FAR 52.227-19.
  
 Gaussian, Inc.
 340 Quinnipiac St., Bldg. 40, Wallingford CT 06492
  
  
 ---------------------------------------------------------------
 Warning -- This program may not be used in any manner that
 competes with the business of Gaussian, Inc. or will provide
 assistance to any competitor of Gaussian, Inc.  The licensee
 of this program is prohibited from giving any competitor of
 Gaussian, Inc. access to this program.  By using this program,
 the user acknowledges that Gaussian, Inc. is engaged in the
 business of creating and licensing software in the field of
 computational chemistry and represents and warrants to the
 licensee that it is not a competitor of Gaussian, Inc. and that
 it will not use this program in any manner prohibited above.
 ---------------------------------------------------------------
  

 Cite this work as:
 Gaussian 09, Revision E.01,
 M. J. Frisch, G. W. Trucks, H. B. Schlegel, G. E. Scuseria, 
 M. A. Robb, J. R. Cheeseman, G. Scalmani, V. Barone, B. Mennucci, 
 G. A. Petersson, H. Nakatsuji, M. Caricato, X. Li, H. P. Hratchian, 
 A. F. Izmaylov, J. Bloino, G. Zheng, J. L. Sonnenberg, M. Hada, 
 M. Ehara, K. Toyota, R. Fukuda, J. Hasegawa, M. Ishida, T. Nakajima, 
 Y. Honda, O. Kitao, H. Nakai, T. Vreven, J. A. Montgomery, Jr., 
 J. E. Peralta, F. Ogliaro, M. Bearpark, J. J. Heyd, E. Brothers, 
 K. N. Kudin, V. N. Staroverov, T. Keith, R. Kobayashi, J. Normand, 
 K. Raghavachari, A. Rendell, J. C. Burant, S. S. Iyengar, J. Tomasi, 
 M. Cossi, N. Rega, J. M. Millam, M. Klene, J. E. Knox, J. B. Cross, 
 V. Bakken, C. Adamo, J. Jaramillo, R. Gomperts, R. E. Stratmann, 
 O. Yazyev, A. J. Austin, R. Cammi, C. Pomelli, J. W. Ochterski, 
 R. L. Martin, K. Morokuma, V. G. Zakrzewski, G. A. Voth, 
 P. Salvador, J. J. Dannenberg, S. Dapprich, A. D. Daniels, 
 O. Farkas, J. B. Foresman, J. V. Ortiz, J. Cioslowski, 
 and D. J. Fox, Gaussian, Inc., Wallingford CT, 2013.
 
 ******************************************
 Gaussian 09:  ES64L-G09RevE.01 30-Nov-2015
                23-Feb-2021 
 ******************************************
 %chk=cp.chk
 Default route:  MaxDisk=500GB
 ----------------------------------------------------------------------
 #p m062x/def2TZVP opt freq=noraman nosymm int=ultrafine scrf=(SMD,solv
 ent=Acetonitrile)
 ----------------------------------------------------------------------
 1/14=-1,18=20,19=15,26=4,38=1/1,3;
 2/9=110,12=2,15=1,17=6,18=5,40=1/2;
 3/5=44,7=101,11=2,16=1,25=1,30=1,70=32201,71=1,72=2,74=-55,75=-5/1,2,3;
 4//1;
 5/5=2,38=5,53=2/2;
 6/7=2,8=2,9=2,10=2,28=1/1;
 7/30=1/1,2,3,16;
 1/14=-1,18=20,19=15,26=4/3(2);
 2/9=110,15=1/2;
 99//99;
 2/9=110,15=1/2;
 3/5=44,7=101,11=2,16=1,25=1,30=1,70=32205,71=1,72=2,74=-55,75=-5/1,2,3;
 4/5=5,16=3,69=1/1;
 5/5=2,38=5,53=2/2;
 7/30=1/1,2,3,16;
 1/14=-1,18=20,19=15,26=4/3(-5);
 2/9=110,15=1/2;
 6/7=2,8=2,9=2,10=2,19=2,28=1/1;
 99/9=1/99;
 Leave Link    1 at Tue Feb 23 01:04:07 2021, MaxMem=           0 cpu:         2.0
 (Enter /opt/nce/packages/global/g09/l101.exe)
 -----
 Title
 -----
 Symbolic Z-matrix:
 Charge =  0 Multiplicity = 1
 C                     2.83616   4.13801  -0.00033 
 C                     1.49763   3.81804   0.00012 
 C                     1.07276   2.45851   0.00022 
 C                     2.0598    1.41738  -0.00006 
 C                     3.43724   1.78662  -0.00061 
 C                     3.81502   3.1112   -0.00072 
 C                    -0.29513   2.11384   0.00046 
 C                     1.63681   0.05151   0.0002 
 C                     0.27058  -0.25183   0.0006 
 C                    -0.7164    0.79433   0.00053 
 C                    -2.13316   0.42437   0.0004 
 C                    -2.47319  -0.94145   0.00062 
 C                    -0.16267  -1.67545   0.00151 
 H                    -1.02483   2.92411   0.00054 
 H                     3.14956   5.18473  -0.0004 
 H                     0.73785   4.60362   0.00037 
 H                     4.19266   1.00132  -0.00094 
 H                     4.87503   3.37484  -0.00115 
 C                     2.70205  -0.99602  -0.00017 
 C                     3.23085  -1.46704  -1.20878 
 C                     3.23371  -1.46508   1.20795 
 C                     4.26466  -2.40486  -1.20911 
 H                     2.82116  -1.0996   -2.15239 
 C                     4.2675   -2.40292   1.20735 
 H                     2.82625  -1.09611   2.15193 
 C                     4.78476  -2.87724  -0.00111 
 H                     4.66474  -2.77008  -2.15812 
 H                     4.66981  -2.76664   2.156 
 H                     5.5926   -3.61287  -0.00147 
 O                     0.55535  -2.63793   0.00252 
 O                    -1.51825  -1.91301   0.00107 
 C                    -3.19978   1.33921  -0.00011 
 C                    -3.79389  -1.37958   0.00024 
 C                    -4.83444  -0.44423  -0.00027 
 C                    -4.52977   0.93083  -0.00032 
 H                    -5.31779   1.68215  -0.00064 
 H                    -2.99023   2.40933  -0.00025 
 H                    -4.01342  -2.44676   0.00034 
 O                    -6.0894   -0.94671  -0.00064 
 C                    -7.18604  -0.05988  -0.00098 
 H                    -7.19223   0.58279  -0.89926 
 H                    -8.09033  -0.68218  -0.00115 
 H                    -7.19267   0.58293   0.89719 
 
 NAtoms=     43 NQM=       43 NQMF=       0 NMMI=      0 NMMIF=      0
                NMic=       0 NMicF=      0.
                    Isotopes and Nuclear Properties:
 (Nuclear quadrupole moments (NQMom) in fm**2, nuclear magnetic moments (NMagM)
  in nuclear magnetons)

  Atom         1           2           3           4           5           6           7           8           9          10
 IAtWgt=          12          12          12          12          12          12          12          12          12          12
 AtmWgt=  12.0000000  12.0000000  12.0000000  12.0000000  12.0000000  12.0000000  12.0000000  12.0000000  12.0000000  12.0000000
 NucSpn=           0           0           0           0           0           0           0           0           0           0
 AtZEff=   0.0000000   0.0000000   0.0000000   0.0000000   0.0000000   0.0000000   0.0000000   0.0000000   0.0000000   0.0000000
 NQMom=    0.0000000   0.0000000   0.0000000   0.0000000   0.0000000   0.0000000   0.0000000   0.0000000   0.0000000   0.0000000
 NMagM=    0.0000000   0.0000000   0.0000000   0.0000000   0.0000000   0.0000000   0.0000000   0.0000000   0.0000000   0.0000000
 AtZNuc=   6.0000000   6.0000000   6.0000000   6.0000000   6.0000000   6.0000000   6.0000000   6.0000000   6.0000000   6.0000000

  Atom        11          12          13          14          15          16          17          18          19          20
 IAtWgt=          12          12          12           1           1           1           1           1          12          12
 AtmWgt=  12.0000000  12.0000000  12.0000000   1.0078250   1.0078250   1.0078250   1.0078250   1.0078250  12.0000000  12.0000000
 NucSpn=           0           0           0           1           1           1           1           1           0           0
 AtZEff=   0.0000000   0.0000000   0.0000000   0.0000000   0.0000000   0.0000000   0.0000000   0.0000000   0.0000000   0.0000000
 NQMom=    0.0000000   0.0000000   0.0000000   0.0000000   0.0000000   0.0000000   0.0000000   0.0000000   0.0000000   0.0000000
 NMagM=    0.0000000   0.0000000   0.0000000   2.7928460   2.7928460   2.7928460   2.7928460   2.7928460   0.0000000   0.0000000
 AtZNuc=   6.0000000   6.0000000   6.0000000   1.0000000   1.0000000   1.0000000   1.0000000   1.0000000   6.0000000   6.0000000

  Atom        21          22          23          24          25          26          27          28          29          30
 IAtWgt=          12          12           1          12           1          12           1           1           1          16
 AtmWgt=  12.0000000  12.0000000   1.0078250  12.0000000   1.0078250  12.0000000   1.0078250   1.0078250   1.0078250  15.9949146
 NucSpn=           0           0           1           0           1           0           1           1           1           0
 AtZEff=   0.0000000   0.0000000   0.0000000   0.0000000   0.0000000   0.0000000   0.0000000   0.0000000   0.0000000   0.0000000
 NQMom=    0.0000000   0.0000000   0.0000000   0.0000000   0.0000000   0.0000000   0.0000000   0.0000000   0.0000000   0.0000000
 NMagM=    0.0000000   0.0000000   2.7928460   0.0000000   2.7928460   0.0000000   2.7928460   2.7928460   2.7928460   0.0000000
 AtZNuc=   6.0000000   6.0000000   1.0000000   6.0000000   1.0000000   6.0000000   1.0000000   1.0000000   1.0000000   8.0000000

  Atom        31          32          33          34          35          36          37          38          39          40
 IAtWgt=          16          12          12          12          12           1           1           1          16          12
 AtmWgt=  15.9949146  12.0000000  12.0000000  12.0000000  12.0000000   1.0078250   1.0078250   1.0078250  15.9949146  12.0000000
 NucSpn=           0           0           0           0           0           1           1           1           0           0
 AtZEff=   0.0000000   0.0000000   0.0000000   0.0000000   0.0000000   0.0000000   0.0000000   0.0000000   0.0000000   0.0000000
 NQMom=    0.0000000   0.0000000   0.0000000   0.0000000   0.0000000   0.0000000   0.0000000   0.0000000   0.0000000   0.0000000
 NMagM=    0.0000000   0.0000000   0.0000000   0.0000000   0.0000000   2.7928460   2.7928460   2.7928460   0.0000000   0.0000000
 AtZNuc=   8.0000000   6.0000000   6.0000000   6.0000000   6.0000000   1.0000000   1.0000000   1.0000000   8.0000000   6.0000000

  Atom        41          42          43
 IAtWgt=           1           1           1
 AtmWgt=   1.0078250   1.0078250   1.0078250
 NucSpn=           1           1           1
 AtZEff=   0.0000000   0.0000000   0.0000000
 NQMom=    0.0000000   0.0000000   0.0000000
 NMagM=    2.7928460   2.7928460   2.7928460
 AtZNuc=   1.0000000   1.0000000   1.0000000
 Leave Link  101 at Tue Feb 23 01:04:07 2021, MaxMem=  5242880000 cpu:         4.4
 (Enter /opt/nce/packages/global/g09/l103.exe)

 GradGradGradGradGradGradGradGradGradGradGradGradGradGradGradGradGradGrad
 Berny optimization.
 Initialization pass.
                           ----------------------------
                           !    Initial Parameters    !
                           ! (Angstroms and Degrees)  !
 --------------------------                            --------------------------
 ! Name  Definition              Value          Derivative Info.                !
 --------------------------------------------------------------------------------
 ! R1    R(1,2)                  1.3762         estimate D2E/DX2                !
 ! R2    R(1,6)                  1.4186         estimate D2E/DX2                !
 ! R3    R(1,15)                 1.0926         estimate D2E/DX2                !
 ! R4    R(2,3)                  1.4244         estimate D2E/DX2                !
 ! R5    R(2,16)                 1.0929         estimate D2E/DX2                !
 ! R6    R(3,4)                  1.4346         estimate D2E/DX2                !
 ! R7    R(3,7)                  1.4106         estimate D2E/DX2                !
 ! R8    R(4,5)                  1.4261         estimate D2E/DX2                !
 ! R9    R(4,8)                  1.4299         estimate D2E/DX2                !
 ! R10   R(5,6)                  1.3774         estimate D2E/DX2                !
 ! R11   R(5,17)                 1.0897         estimate D2E/DX2                !
 ! R12   R(6,18)                 1.0923         estimate D2E/DX2                !
 ! R13   R(7,10)                 1.3851         estimate D2E/DX2                !
 ! R14   R(7,14)                 1.0904         estimate D2E/DX2                !
 ! R15   R(8,9)                  1.3995         estimate D2E/DX2                !
 ! R16   R(8,19)                 1.494          estimate D2E/DX2                !
 ! R17   R(9,10)                 1.4383         estimate D2E/DX2                !
 ! R18   R(9,13)                 1.4881         estimate D2E/DX2                !
 ! R19   R(10,11)                1.4643         estimate D2E/DX2                !
 ! R20   R(11,12)                1.4075         estimate D2E/DX2                !
 ! R21   R(11,32)                1.4052         estimate D2E/DX2                !
 ! R22   R(12,31)                1.3623         estimate D2E/DX2                !
 ! R23   R(12,33)                1.3915         estimate D2E/DX2                !
 ! R24   R(13,30)                1.2008         estimate D2E/DX2                !
 ! R25   R(13,31)                1.3762         estimate D2E/DX2                !
 ! R26   R(19,20)                1.4008         estimate D2E/DX2                !
 ! R27   R(19,21)                1.4008         estimate D2E/DX2                !
 ! R28   R(20,22)                1.3958         estimate D2E/DX2                !
 ! R29   R(20,23)                1.0924         estimate D2E/DX2                !
 ! R30   R(21,24)                1.3958         estimate D2E/DX2                !
 ! R31   R(21,25)                1.0924         estimate D2E/DX2                !
 ! R32   R(22,26)                1.3975         estimate D2E/DX2                !
 ! R33   R(22,27)                1.0927         estimate D2E/DX2                !
 ! R34   R(24,26)                1.3975         estimate D2E/DX2                !
 ! R35   R(24,28)                1.0927         estimate D2E/DX2                !
 ! R36   R(26,29)                1.0926         estimate D2E/DX2                !
 ! R37   R(32,35)                1.3913         estimate D2E/DX2                !
 ! R38   R(32,37)                1.0904         estimate D2E/DX2                !
 ! R39   R(33,34)                1.3992         estimate D2E/DX2                !
 ! R40   R(33,38)                1.0895         estimate D2E/DX2                !
 ! R41   R(34,35)                1.4084         estimate D2E/DX2                !
 ! R42   R(34,39)                1.3518         estimate D2E/DX2                !
 ! R43   R(35,36)                1.0888         estimate D2E/DX2                !
 ! R44   R(39,40)                1.4103         estimate D2E/DX2                !
 ! R45   R(40,41)                1.1045         estimate D2E/DX2                !
 ! R46   R(40,42)                1.0977         estimate D2E/DX2                !
 ! R47   R(40,43)                1.1045         estimate D2E/DX2                !
 ! A1    A(2,1,6)              120.1862         estimate D2E/DX2                !
 ! A2    A(2,1,15)             120.1129         estimate D2E/DX2                !
 ! A3    A(6,1,15)             119.7009         estimate D2E/DX2                !
 ! A4    A(1,2,3)              120.7988         estimate D2E/DX2                !
 ! A5    A(1,2,16)             120.5993         estimate D2E/DX2                !
 ! A6    A(3,2,16)             118.6019         estimate D2E/DX2                !
 ! A7    A(2,3,4)              119.1733         estimate D2E/DX2                !
 ! A8    A(2,3,7)              121.4971         estimate D2E/DX2                !
 ! A9    A(4,3,7)              119.3295         estimate D2E/DX2                !
 ! A10   A(3,4,5)              118.4659         estimate D2E/DX2                !
 ! A11   A(3,4,8)              119.3209         estimate D2E/DX2                !
 ! A12   A(5,4,8)              122.2132         estimate D2E/DX2                !
 ! A13   A(4,5,6)              120.9247         estimate D2E/DX2                !
 ! A14   A(4,5,17)             118.8825         estimate D2E/DX2                !
 ! A15   A(6,5,17)             120.1927         estimate D2E/DX2                !
 ! A16   A(1,6,5)              120.451          estimate D2E/DX2                !
 ! A17   A(1,6,18)             119.6638         estimate D2E/DX2                !
 ! A18   A(5,6,18)             119.8852         estimate D2E/DX2                !
 ! A19   A(3,7,10)             121.849          estimate D2E/DX2                !
 ! A20   A(3,7,14)             117.8624         estimate D2E/DX2                !
 ! A21   A(10,7,14)            120.2886         estimate D2E/DX2                !
 ! A22   A(4,8,9)              119.7248         estimate D2E/DX2                !
 ! A23   A(4,8,19)             117.3125         estimate D2E/DX2                !
 ! A24   A(9,8,19)             122.9627         estimate D2E/DX2                !
 ! A25   A(8,9,10)             120.8148         estimate D2E/DX2                !
 ! A26   A(8,9,13)             119.4442         estimate D2E/DX2                !
 ! A27   A(10,9,13)            119.7409         estimate D2E/DX2                !
 ! A28   A(7,10,9)             118.9609         estimate D2E/DX2                !
 ! A29   A(7,10,11)            122.3414         estimate D2E/DX2                !
 ! A30   A(9,10,11)            118.6976         estimate D2E/DX2                !
 ! A31   A(10,11,12)           118.6151         estimate D2E/DX2                !
 ! A32   A(10,11,32)           124.7457         estimate D2E/DX2                !
 ! A33   A(12,11,32)           116.6393         estimate D2E/DX2                !
 ! A34   A(11,12,31)           121.5144         estimate D2E/DX2                !
 ! A35   A(11,12,33)           122.3328         estimate D2E/DX2                !
 ! A36   A(31,12,33)           116.1528         estimate D2E/DX2                !
 ! A37   A(9,13,30)            126.3502         estimate D2E/DX2                !
 ! A38   A(9,13,31)            116.8663         estimate D2E/DX2                !
 ! A39   A(30,13,31)           116.7835         estimate D2E/DX2                !
 ! A40   A(8,19,20)            120.3407         estimate D2E/DX2                !
 ! A41   A(8,19,21)            120.3438         estimate D2E/DX2                !
 ! A42   A(20,19,21)           119.2257         estimate D2E/DX2                !
 ! A43   A(19,20,22)           120.3793         estimate D2E/DX2                !
 ! A44   A(19,20,23)           119.3815         estimate D2E/DX2                !
 ! A45   A(22,20,23)           120.2373         estimate D2E/DX2                !
 ! A46   A(19,21,24)           120.3792         estimate D2E/DX2                !
 ! A47   A(19,21,25)           119.3816         estimate D2E/DX2                !
 ! A48   A(24,21,25)           120.2374         estimate D2E/DX2                !
 ! A49   A(20,22,26)           120.17           estimate D2E/DX2                !
 ! A50   A(20,22,27)           119.7317         estimate D2E/DX2                !
 ! A51   A(26,22,27)           120.0982         estimate D2E/DX2                !
 ! A52   A(21,24,26)           120.17           estimate D2E/DX2                !
 ! A53   A(21,24,28)           119.7317         estimate D2E/DX2                !
 ! A54   A(26,24,28)           120.0982         estimate D2E/DX2                !
 ! A55   A(22,26,24)           119.6711         estimate D2E/DX2                !
 ! A56   A(22,26,29)           120.1644         estimate D2E/DX2                !
 ! A57   A(24,26,29)           120.1645         estimate D2E/DX2                !
 ! A58   A(12,31,13)           124.5656         estimate D2E/DX2                !
 ! A59   A(11,32,35)           122.3112         estimate D2E/DX2                !
 ! A60   A(11,32,37)           119.5397         estimate D2E/DX2                !
 ! A61   A(35,32,37)           118.1491         estimate D2E/DX2                !
 ! A62   A(12,33,34)           119.6953         estimate D2E/DX2                !
 ! A63   A(12,33,38)           119.977          estimate D2E/DX2                !
 ! A64   A(34,33,38)           120.3277         estimate D2E/DX2                !
 ! A65   A(33,34,35)           119.4585         estimate D2E/DX2                !
 ! A66   A(33,34,39)           116.2273         estimate D2E/DX2                !
 ! A67   A(35,34,39)           124.3142         estimate D2E/DX2                !
 ! A68   A(32,35,34)           119.5628         estimate D2E/DX2                !
 ! A69   A(32,35,36)           119.2963         estimate D2E/DX2                !
 ! A70   A(34,35,36)           121.1409         estimate D2E/DX2                !
 ! A71   A(34,39,40)           119.2173         estimate D2E/DX2                !
 ! A72   A(39,40,41)           111.7419         estimate D2E/DX2                !
 ! A73   A(39,40,42)           106.5037         estimate D2E/DX2                !
 ! A74   A(39,40,43)           111.7416         estimate D2E/DX2                !
 ! A75   A(41,40,42)           108.9721         estimate D2E/DX2                !
 ! A76   A(41,40,43)           108.8251         estimate D2E/DX2                !
 ! A77   A(42,40,43)           108.9721         estimate D2E/DX2                !
 ! D1    D(6,1,2,3)              0.0019         estimate D2E/DX2                !
 ! D2    D(6,1,2,16)          -179.9966         estimate D2E/DX2                !
 ! D3    D(15,1,2,3)           180.0            estimate D2E/DX2                !
 ! D4    D(15,1,2,16)            0.0015         estimate D2E/DX2                !
 ! D5    D(2,1,6,5)             -0.0032         estimate D2E/DX2                !
 ! D6    D(2,1,6,18)           179.9956         estimate D2E/DX2                !
 ! D7    D(15,1,6,5)           179.9987         estimate D2E/DX2                !
 ! D8    D(15,1,6,18)           -0.0024         estimate D2E/DX2                !
 ! D9    D(1,2,3,4)              0.0037         estimate D2E/DX2                !
 ! D10   D(1,2,3,7)           -179.99           estimate D2E/DX2                !
 ! D11   D(16,2,3,4)          -179.9978         estimate D2E/DX2                !
 ! D12   D(16,2,3,7)             0.0085         estimate D2E/DX2                !
 ! D13   D(2,3,4,5)             -0.0079         estimate D2E/DX2                !
 ! D14   D(2,3,4,8)            179.9927         estimate D2E/DX2                !
 ! D15   D(7,3,4,5)            179.986          estimate D2E/DX2                !
 ! D16   D(7,3,4,8)             -0.0135         estimate D2E/DX2                !
 ! D17   D(2,3,7,10)           179.9984         estimate D2E/DX2                !
 ! D18   D(2,3,7,14)             0.0017         estimate D2E/DX2                !
 ! D19   D(4,3,7,10)             0.0048         estimate D2E/DX2                !
 ! D20   D(4,3,7,14)          -179.992          estimate D2E/DX2                !
 ! D21   D(3,4,5,6)              0.0067         estimate D2E/DX2                !
 ! D22   D(3,4,5,17)          -179.9931         estimate D2E/DX2                !
 ! D23   D(8,4,5,6)           -179.9939         estimate D2E/DX2                !
 ! D24   D(8,4,5,17)             0.0063         estimate D2E/DX2                !
 ! D25   D(3,4,8,9)              0.006          estimate D2E/DX2                !
 ! D26   D(3,4,8,19)           179.9973         estimate D2E/DX2                !
 ! D27   D(5,4,8,9)           -179.9935         estimate D2E/DX2                !
 ! D28   D(5,4,8,19)            -0.0021         estimate D2E/DX2                !
 ! D29   D(4,5,6,1)             -0.0012         estimate D2E/DX2                !
 ! D30   D(4,5,6,18)           180.0            estimate D2E/DX2                !
 ! D31   D(17,5,6,1)           179.9986         estimate D2E/DX2                !
 ! D32   D(17,5,6,18)           -0.0002         estimate D2E/DX2                !
 ! D33   D(3,7,10,9)             0.0113         estimate D2E/DX2                !
 ! D34   D(3,7,10,11)         -179.9824         estimate D2E/DX2                !
 ! D35   D(14,7,10,9)         -179.9921         estimate D2E/DX2                !
 ! D36   D(14,7,10,11)           0.0143         estimate D2E/DX2                !
 ! D37   D(4,8,9,10)             0.0102         estimate D2E/DX2                !
 ! D38   D(4,8,9,13)          -179.9718         estimate D2E/DX2                !
 ! D39   D(19,8,9,10)         -179.9806         estimate D2E/DX2                !
 ! D40   D(19,8,9,13)            0.0374         estimate D2E/DX2                !
 ! D41   D(4,8,19,20)          -88.3254         estimate D2E/DX2                !
 ! D42   D(4,8,19,21)           88.2026         estimate D2E/DX2                !
 ! D43   D(9,8,19,20)           91.6656         estimate D2E/DX2                !
 ! D44   D(9,8,19,21)          -91.8064         estimate D2E/DX2                !
 ! D45   D(8,9,10,7)            -0.0189         estimate D2E/DX2                !
 ! D46   D(8,9,10,11)          179.975          estimate D2E/DX2                !
 ! D47   D(13,9,10,7)          179.9631         estimate D2E/DX2                !
 ! D48   D(13,9,10,11)          -0.043          estimate D2E/DX2                !
 ! D49   D(8,9,13,30)            0.0331         estimate D2E/DX2                !
 ! D50   D(8,9,13,31)         -179.9628         estimate D2E/DX2                !
 ! D51   D(10,9,13,30)        -179.9491         estimate D2E/DX2                !
 ! D52   D(10,9,13,31)           0.055          estimate D2E/DX2                !
 ! D53   D(7,10,11,12)        -179.9939         estimate D2E/DX2                !
 ! D54   D(7,10,11,32)           0.0149         estimate D2E/DX2                !
 ! D55   D(9,10,11,12)           0.0124         estimate D2E/DX2                !
 ! D56   D(9,10,11,32)        -179.9788         estimate D2E/DX2                !
 ! D57   D(10,11,12,31)          0.0066         estimate D2E/DX2                !
 ! D58   D(10,11,12,33)       -179.9866         estimate D2E/DX2                !
 ! D59   D(32,11,12,31)        179.9985         estimate D2E/DX2                !
 ! D60   D(32,11,12,33)          0.0053         estimate D2E/DX2                !
 ! D61   D(10,11,32,35)        179.9945         estimate D2E/DX2                !
 ! D62   D(10,11,32,37)         -0.0112         estimate D2E/DX2                !
 ! D63   D(12,11,32,35)          0.0031         estimate D2E/DX2                !
 ! D64   D(12,11,32,37)        179.9974         estimate D2E/DX2                !
 ! D65   D(11,12,31,13)          0.0074         estimate D2E/DX2                !
 ! D66   D(33,12,31,13)       -179.999          estimate D2E/DX2                !
 ! D67   D(11,12,33,34)         -0.0053         estimate D2E/DX2                !
 ! D68   D(11,12,33,38)        179.9947         estimate D2E/DX2                !
 ! D69   D(31,12,33,34)       -179.9989         estimate D2E/DX2                !
 ! D70   D(31,12,33,38)          0.0012         estimate D2E/DX2                !
 ! D71   D(9,13,31,12)          -0.0377         estimate D2E/DX2                !
 ! D72   D(30,13,31,12)        179.966          estimate D2E/DX2                !
 ! D73   D(8,19,20,22)         177.327          estimate D2E/DX2                !
 ! D74   D(8,19,20,23)          -3.1628         estimate D2E/DX2                !
 ! D75   D(21,19,20,22)          0.7604         estimate D2E/DX2                !
 ! D76   D(21,19,20,23)       -179.7294         estimate D2E/DX2                !
 ! D77   D(8,19,21,24)        -177.3282         estimate D2E/DX2                !
 ! D78   D(8,19,21,25)           3.1628         estimate D2E/DX2                !
 ! D79   D(20,19,21,24)         -0.7617         estimate D2E/DX2                !
 ! D80   D(20,19,21,25)        179.7293         estimate D2E/DX2                !
 ! D81   D(19,20,22,26)         -0.285          estimate D2E/DX2                !
 ! D82   D(19,20,22,27)        179.5933         estimate D2E/DX2                !
 ! D83   D(23,20,22,26)       -179.7909         estimate D2E/DX2                !
 ! D84   D(23,20,22,27)          0.0874         estimate D2E/DX2                !
 ! D85   D(19,21,24,26)          0.2875         estimate D2E/DX2                !
 ! D86   D(19,21,24,28)       -179.5907         estimate D2E/DX2                !
 ! D87   D(25,21,24,26)        179.7923         estimate D2E/DX2                !
 ! D88   D(25,21,24,28)         -0.0859         estimate D2E/DX2                !
 ! D89   D(20,22,26,24)         -0.1971         estimate D2E/DX2                !
 ! D90   D(20,22,26,29)        179.8741         estimate D2E/DX2                !
 ! D91   D(27,22,26,24)        179.925          estimate D2E/DX2                !
 ! D92   D(27,22,26,29)         -0.0038         estimate D2E/DX2                !
 ! D93   D(21,24,26,22)          0.1958         estimate D2E/DX2                !
 ! D94   D(21,24,26,29)       -179.8754         estimate D2E/DX2                !
 ! D95   D(28,24,26,22)       -179.9264         estimate D2E/DX2                !
 ! D96   D(28,24,26,29)          0.0024         estimate D2E/DX2                !
 ! D97   D(11,32,35,34)         -0.0113         estimate D2E/DX2                !
 ! D98   D(11,32,35,36)        179.9951         estimate D2E/DX2                !
 ! D99   D(37,32,35,34)        179.9944         estimate D2E/DX2                !
 ! D100  D(37,32,35,36)          0.0008         estimate D2E/DX2                !
 ! D101  D(12,33,34,35)         -0.003          estimate D2E/DX2                !
 ! D102  D(12,33,34,39)        179.9985         estimate D2E/DX2                !
 ! D103  D(38,33,34,35)        179.997          estimate D2E/DX2                !
 ! D104  D(38,33,34,39)         -0.0016         estimate D2E/DX2                !
 ! D105  D(33,34,35,32)          0.011          estimate D2E/DX2                !
 ! D106  D(33,34,35,36)       -179.9955         estimate D2E/DX2                !
 ! D107  D(39,34,35,32)       -179.9906         estimate D2E/DX2                !
 ! D108  D(39,34,35,36)          0.0029         estimate D2E/DX2                !
 ! D109  D(33,34,39,40)        179.9917         estimate D2E/DX2                !
 ! D110  D(35,34,39,40)         -0.0067         estimate D2E/DX2                !
 ! D111  D(34,39,40,41)         61.1107         estimate D2E/DX2                !
 ! D112  D(34,39,40,42)       -179.9945         estimate D2E/DX2                !
 ! D113  D(34,39,40,43)        -61.0999         estimate D2E/DX2                !
 --------------------------------------------------------------------------------
 Trust Radius=3.00D-01 FncErr=1.00D-07 GrdErr=1.00D-06
 Number of steps in this run=    247 maximum allowed number of steps=    258.
 GradGradGradGradGradGradGradGradGradGradGradGradGradGradGradGradGradGrad

 Leave Link  103 at Tue Feb 23 01:04:08 2021, MaxMem=  5242880000 cpu:         1.2
 (Enter /opt/nce/packages/global/g09/l202.exe)
                          Input orientation:                          
 ---------------------------------------------------------------------
 Center     Atomic      Atomic             Coordinates (Angstroms)
 Number     Number       Type             X           Y           Z
 ---------------------------------------------------------------------
      1          6           0        2.836155    4.138012   -0.000326
      2          6           0        1.497628    3.818038    0.000115
      3          6           0        1.072762    2.458511    0.000220
      4          6           0        2.059798    1.417378   -0.000060
      5          6           0        3.437236    1.786622   -0.000607
      6          6           0        3.815015    3.111201   -0.000724
      7          6           0       -0.295131    2.113839    0.000460
      8          6           0        1.636808    0.051505    0.000203
      9          6           0        0.270575   -0.251827    0.000602
     10          6           0       -0.716402    0.794333    0.000531
     11          6           0       -2.133156    0.424372    0.000400
     12          6           0       -2.473188   -0.941447    0.000616
     13          6           0       -0.162672   -1.675450    0.001512
     14          1           0       -1.024826    2.924106    0.000536
     15          1           0        3.149561    5.184726   -0.000403
     16          1           0        0.737850    4.603615    0.000367
     17          1           0        4.192656    1.001316   -0.000937
     18          1           0        4.875033    3.374838   -0.001145
     19          6           0        2.702048   -0.996015   -0.000168
     20          6           0        3.230848   -1.467038   -1.208780
     21          6           0        3.233708   -1.465082    1.207951
     22          6           0        4.264658   -2.404859   -1.209107
     23          1           0        2.821157   -1.099597   -2.152393
     24          6           0        4.267501   -2.402924    1.207347
     25          1           0        2.826253   -1.096112    2.151934
     26          6           0        4.784764   -2.877236   -0.001111
     27          1           0        4.664745   -2.770077   -2.158124
     28          1           0        4.669806   -2.766639    2.156004
     29          1           0        5.592600   -3.612867   -0.001473
     30          8           0        0.555353   -2.637934    0.002523
     31          8           0       -1.518251   -1.913010    0.001074
     32          6           0       -3.199783    1.339207   -0.000107
     33          6           0       -3.793885   -1.379576    0.000238
     34          6           0       -4.834443   -0.444233   -0.000267
     35          6           0       -4.529766    0.930827   -0.000322
     36          1           0       -5.317793    1.682154   -0.000636
     37          1           0       -2.990228    2.409331   -0.000249
     38          1           0       -4.013418   -2.446764    0.000337
     39          8           0       -6.089403   -0.946710   -0.000644
     40          6           0       -7.186039   -0.059879   -0.000984
     41          1           0       -7.192233    0.582788   -0.899264
     42          1           0       -8.090330   -0.682182   -0.001152
     43          1           0       -7.192666    0.582928    0.897186
 ---------------------------------------------------------------------
                    Distance matrix (angstroms):
                    1          2          3          4          5
     1  C    0.000000
     2  C    1.376241   0.000000
     3  C    2.435216   1.424368   0.000000
     4  C    2.829237   2.465604   1.434642   0.000000
     5  C    2.427001   2.808688   2.458083   1.426070   0.000000
     6  C    1.418629   2.422788   2.818857   2.439226   1.377398
     7  C    3.728569   2.473516   1.410649   2.455758   3.746683
     8  C    4.258870   3.769104   2.472211   1.429871   2.500434
     9  C    5.084574   4.250819   2.826559   2.446950   3.766035
    10  C    4.878612   3.747629   2.443480   2.845254   4.270521
    11  C    6.203642   4.969865   3.796792   4.308935   5.734544
    12  C    7.347791   6.198393   4.912583   5.109992   6.509645
    13  C    6.541354   5.738903   4.314618   3.808538   4.994525
    14  H    4.047313   2.676171   2.148640   3.432948   4.604766
    15  H    1.092627   2.143996   3.427148   3.921797   3.410259
    16  H    2.149342   1.092883   2.171091   3.449587   3.901555
    17  H    3.417449   3.898346   3.443422   2.173060   1.089663
    18  H    2.177030   3.406361   3.911128   3.428877   2.142356
    19  C    5.135778   4.962432   3.819466   2.497389   2.878119
    20  C    5.747411   5.691881   4.639930   3.339494   3.476864
    21  C    5.745663   5.690712   4.639276   3.338552   3.474999
    22  C    6.805214   6.916872   5.941636   4.575227   4.440001
    23  H    5.662523   5.528847   4.511182   3.398142   3.652396
    24  C    6.803754   6.915922   5.941133   4.574548   4.438557
    25  H    5.659362   5.526702   4.509983   3.396493   3.649231
    26  C    7.280850   7.458683   6.499935   5.086172   4.854627
    27  H    7.464685   7.621803   6.700666   5.383100   5.188946
    28  H    7.462321   7.620272   6.699875   5.382077   5.186751
    29  H    8.226428   8.484524   7.569053   6.146874   5.813783
    30  O    7.149511   6.524374   5.122643   4.325381   5.280337
    31  O    7.454913   6.476144   5.081687   4.888141   6.184184
    32  C    6.653259   5.311334   4.416728   5.260162   6.652083
    33  C    8.625613   7.417230   6.197997   6.487569   7.893917
    34  C    8.935046   7.632960   6.581869   7.141159   8.567228
    35  C    8.033855   6.683223   5.807077   6.607502   8.012834
    36  H    8.515756   7.142266   6.437540   7.382341   8.755652
    37  H    6.077424   4.703755   4.063288   5.146526   6.457558
    38  H    9.501364   8.343822   7.066184   7.198302   8.569353
    39  O   10.272292   8.959122   7.930456   8.485186   9.911002
    40  C   10.865848   9.510222   8.634239   9.363108  10.782557
    41  H   10.677840   9.316083   8.522767   9.333016  10.735102
    42  H   11.942460  10.591549   9.686393  10.365001  11.788968
    43  H   10.678080   9.316216   8.522890   9.333244  10.735443
                    6          7          8          9         10
     6  C    0.000000
     7  C    4.229425   0.000000
     8  C    3.755839   2.825882   0.000000
     9  C    4.886002   2.432365   1.399501   0.000000
    10  C    5.089363   1.385123   2.467669   1.438254   0.000000
    11  C    6.526851   2.496525   3.788358   2.497032   1.464262
    12  C    7.481006   3.752160   4.228241   2.829101   2.469662
    13  C    6.223667   3.791604   2.494094   1.488088   2.531096
    14  H    4.843456   1.090407   3.916137   3.429958   2.151989
    15  H    2.177690   4.614786   5.351484   6.151802   5.849891
    16  H    3.419977   2.695558   4.640025   4.877875   4.077435
    17  H    2.143415   4.623629   2.726628   4.117413   4.913420
    18  H    1.092311   5.321721   4.640113   5.861206   6.158178
    19  C    4.255340   4.319059   1.494000   2.542809   3.858905
    20  C    4.770841   5.168894   2.511688   3.420900   4.707124
    21  C    4.768771   5.169083   2.511729   3.421964   4.708098
    22  C    5.664741   6.532485   3.794964   4.695918   6.042269
    23  H    4.832003   4.967112   2.713188   3.443773   4.553721
    24  C    5.663016   6.532636   3.794992   4.696687   6.043025
    25  H    4.828361   4.967461   2.713255   3.445655   4.555516
    26  C    6.066448   7.121528   4.299669   5.222133   6.613868
    27  H    6.321855   7.287832   4.667773   5.505489   6.805994
    28  H    6.319110   7.288075   4.667814   5.506657   6.807189
    29  H    6.955063   8.213437   5.392209   6.294485   7.695903
    30  O    6.608930   4.827284   2.898729   2.403042   3.660303
    31  O    7.327102   4.208508   3.716681   2.441194   2.823591
    32  C    7.235147   3.006170   5.005076   3.817692   2.542453
    33  C    8.835295   4.944212   5.616086   4.218015   3.767862
    34  C    9.351697   5.210479   6.490212   5.108643   4.300268
    35  C    8.624929   4.396777   6.228952   4.943880   3.815806
    36  H    9.243936   5.041179   7.143213   5.913556   4.686259
    37  H    6.841342   2.711248   5.193150   4.208871   2.788997
    38  H    9.600799   5.884281   6.177896   4.813558   4.623313
    39  O   10.703464   6.552904   7.790428   6.397827   5.648041
    40  C   11.448971   7.225626   8.823550   7.459084   6.525786
    41  H   11.329596   7.122053   8.890628   7.563058   6.541465
    42  H   12.495079   8.281477   9.754769   8.371974   7.520300
    43  H   11.329936   7.122064   8.890815   7.563111   6.541458
                   11         12         13         14         15
    11  C    0.000000
    12  C    1.407510   0.000000
    13  C    2.879594   2.424303   0.000000
    14  H    2.734422   4.127984   4.679661   0.000000
    15  H    7.111123   8.315365   7.617933   4.747200   0.000000
    16  H    5.070379   6.407689   6.343311   2.434703   2.480734
    17  H    6.352068   6.943184   5.112139   5.560507   4.311492
    18  H    7.603944   8.522128   7.133294   5.917051   2.500590
    19  C    5.039514   5.175524   2.944190   5.408968   6.196921
    20  C    5.814816   5.854478   3.608908   6.233406   6.761120
    21  C    5.816480   5.856664   3.610422   6.233613   6.759227
    22  C    7.099259   7.000255   4.647460   7.605245   7.765707
    23  H    5.612684   5.717565   3.724802   5.967987   6.650686
    24  C    7.100615   7.002071   4.648622   7.605417   7.764076
    25  H    5.615755   5.721553   3.727415   5.968373   6.647256
    26  C    7.665392   7.511668   5.091308   8.210171   8.226124
    27  H    7.815062   7.678160   5.400573   8.333952   8.380360
    28  H    7.817255   7.681106   5.402349   8.334234   8.377675
    29  H    8.717030   8.496671   6.072623   9.301739   9.130503
    30  O    4.075022   3.471330   1.200807   5.782150   8.241598
    31  O    2.416912   1.362292   1.376237   4.862218   8.495077
    32  C    1.405210   2.393601   4.279276   2.691160   7.423085
    33  C    2.451989   1.391473   3.643247   5.117555   9.555182
    34  C    2.837504   2.413037   4.831288   5.085164   9.768802
    35  C    2.449538   2.781173   5.085685   4.032092   8.778822
    36  H    3.424022   3.869762   6.152136   4.469006   9.163192
    37  H    2.162090   3.390434   4.967948   2.031699   6.737939
    38  H    3.432027   2.153668   3.927235   6.146375  10.466514
    39  O    4.187094   3.616219   5.971366   6.374414  11.088416
    40  C    5.076035   4.794594   7.206786   6.845781  11.590104
    41  H    5.140890   5.040086   7.438129   6.657952  11.355108
    42  H    6.059075   5.623122   7.989640   7.932633  12.678949
    43  H    5.140818   5.039943   7.437965   6.657878  11.355345
                   16         17         18         19         20
    16  H    0.000000
    17  H    4.991217   0.000000
    18  H    4.315806   2.469665   0.000000
    19  C    5.934133   2.492237   4.881211   0.000000
    20  C    6.673073   2.911483   5.254093   1.400798   0.000000
    21  C    6.672080   2.909314   5.251732   1.400799   2.416733
    22  C    7.938508   3.614815   5.936045   2.426546   1.395805
    23  H    6.442140   3.305088   5.372787   2.158006   1.092367
    24  C    7.937684   3.613088   5.933977   2.426547   2.790735
    25  H    6.440307   3.301684   5.368672   2.158006   3.405243
    26  C    8.505330   3.923488   6.252726   2.806546   2.421111
    27  H    8.628495   4.370324   6.515885   3.414125   2.157597
    28  H    8.627149   4.367786   6.512538   3.414126   3.883469
    29  H    9.543541   4.821880   7.024452   3.899129   3.411751
    30  O    7.243849   5.145301   7.403585   2.702629   3.161728
    31  O    6.896114   6.411533   8.296711   4.318774   4.921034
    32  C    5.114813   7.400157   8.327451   6.347036   7.119615
    33  C    7.505678   8.333876   9.887092   6.507247   7.128552
    34  C    7.518725   9.142107  10.433563   7.556663   8.219218
    35  C    6.421616   8.722707   9.717172   7.484107   8.212019
    36  H    6.723522   9.534788  10.332419   8.455202   9.190010
    37  H    4.325904   7.319585   7.924300   6.633128   7.428901
    38  H    8.501905   8.901062  10.625235   6.870383   7.409536
    39  O    8.798721  10.464967  11.785357   8.791589   9.412620
    40  C    9.194357  11.428072  12.540604   9.932302  10.580662
    41  H    8.936588  11.427942  12.418578  10.059711  10.627239
    42  H   10.289627  12.397819  13.585288  10.796940  11.412425
    43  H    8.936626  11.428352  12.418982  10.060003  10.829917
                   21         22         23         24         25
    21  C    0.000000
    22  C    2.790736   0.000000
    23  H    3.405244   2.162682   0.000000
    24  C    1.395807   2.416456   3.883095   0.000000
    25  H    1.092365   3.883095   4.304331   2.162683   0.000000
    26  C    2.421112   1.397464   3.412296   1.397463   3.412297
    27  H    3.883470   1.092743   2.487841   3.408665   4.975823
    28  H    2.157599   3.408666   4.975823   1.092743   2.487843
    29  H    3.411753   2.163583   4.315539   2.163584   4.315541
    30  O    3.162629   3.909132   3.484826   3.909843   3.486283
    31  O    4.923241   5.928616   4.912181   5.930433   4.916120
    32  C    7.121323   8.437866   6.843378   8.439302   6.846544
    33  C    7.131125   8.213028   6.962111   8.215248   6.966805
    34  C    8.221739   9.386106   7.979308   9.388301   7.983933
    35  C    8.214124   9.483135   7.924020   9.484949   7.927907
    36  H    9.192059  10.487490   8.866268  10.489278   8.870051
    37  H    7.430222   8.790400   7.121551   8.791514   7.124007
    38  H    7.412346   8.366066   7.291126   8.368537   7.296213
    39  O    9.415403  10.525833   9.167959  10.528308   9.173049
    40  C   10.583348  11.750615  10.288515  11.753021  10.293436
    41  H   10.832099  11.844087  10.230774  12.028208  10.606535
    42  H   11.415284  12.532857  11.129359  12.535446  11.134581
    43  H   10.630155  12.026372  10.602239  11.846811  10.235834
                   26         27         28         29         30
    26  C    0.000000
    27  H    2.163005   0.000000
    28  H    2.163005   4.314132   0.000000
    29  H    1.092590   2.494465   2.494465   0.000000
    30  O    4.236177   4.644670   4.645726   5.130728   0.000000
    31  O    6.376342   6.605009   6.607909   7.311205   2.196668
    32  C    9.029473   9.132034   9.134397  10.091037   5.469799
    33  C    8.708399   8.839708   8.843378   9.648507   4.527620
    34  C    9.922129  10.015012  10.018674  10.897865   5.819126
    35  C   10.062893  10.143561  10.146582  11.095380   6.212447
    36  H   11.083758  11.141283  11.144281  12.127404   7.290886
    37  H    9.402037   9.491117   9.492956  10.484837   6.168147
    38  H    8.808707   8.948408   8.952519   9.676538   4.572769
    39  O   11.044204  11.118952  11.123122  11.982387   6.856605
    40  C   12.297871  12.346640  12.350717  13.263383   8.159383
    41  H   12.499076  12.386055  12.698870  13.485604   8.438682
    42  H   13.060869  13.103579  13.107988  13.993266   8.864131
    43  H   12.499540  12.695501  12.390418  13.486115   8.438375
                   31         32         33         34         35
    31  O    0.000000
    32  C    3.661211   0.000000
    33  C    2.337320   2.782937   0.000000
    34  C    3.626905   2.419250   1.399153   0.000000
    35  C    4.142057   1.391269   2.424765   1.408410   0.000000
    36  H    5.230844   2.145595   3.420013   2.180630   1.088797
    37  H    4.566109   1.090449   3.873200   3.397640   2.134514
    38  H    2.551618   3.872412   1.089534   2.164304   3.416831
    39  O    4.672170   3.684470   2.335974   1.351817   2.440822
    40  C    5.963046   4.224651   3.639823   2.382799   2.835011
    41  H    6.263680   4.161768   4.026009   2.724361   2.831600
    42  H    6.686342   5.291830   4.352677   3.264571   3.908889
    43  H    6.263522   4.161755   4.025873   2.724279   2.831535
                   36         37         38         39         40
    36  H    0.000000
    37  H    2.438513   0.000000
    38  H    4.330053   4.962719   0.000000
    39  O    2.739764   4.568139   2.561226   0.000000
    40  C    2.554412   4.868452   3.970232   1.410347   0.000000
    41  H    2.351524   4.669190   4.482447   2.088807   1.104521
    42  H    3.643768   5.963933   4.442405   2.018337   1.097726
    43  H    2.351495   4.669221   4.482297   2.088799   1.104515
                   41         42         43
    41  H    0.000000
    42  H    1.792577   0.000000
    43  H    1.796450   1.792572   0.000000
 Symmetry turned off by external request.
 Stoichiometry    C24H16O3
 Framework group  C1[X(C24H16O3)]
 Deg. of freedom   123
 Full point group                 C1      NOp   1
 Rotational constants (GHZ):      0.3393275      0.1186549      0.0907690
 Leave Link  202 at Tue Feb 23 01:04:08 2021, MaxMem=  5242880000 cpu:         0.2
 (Enter /opt/nce/packages/global/g09/l301.exe)
 Standard basis: def2TZVP (5D, 7F)
 Ernie: Thresh=  0.10000D-02 Tol=  0.10000D-05 Strict=F.
   933 basis functions,  1505 primitive gaussians,  1068 cartesian basis functions
    92 alpha electrons       92 beta electrons
       nuclear repulsion energy      2242.2853937510 Hartrees.
 IExCor= 4336 DFT=T Ex+Corr=M062X ExCW=0 ScaHFX=  0.540000
 ScaDFX=  1.000000  1.000000  1.000000  1.000000 ScalE2=  1.000000  1.000000
 IRadAn=      5 IRanWt=     -1 IRanGd=            0 ICorTp=0 IEmpDi=  4
 NAtoms=   43 NActive=   43 NUniq=   43 SFac= 1.00D+00 NAtFMM=   60 NAOKFM=F Big=F
 Integral buffers will be    131072 words long.
 Raffenetti 2 integral format.
 Two-electron integral symmetry is turned off.
 ------------------------------------------------------------------------------
 Polarizable Continuum Model (PCM)
 =================================
 Model                : PCM (using non-symmetric T matrix).
 Atomic radii         : SMD-Coulomb.
 Polarization charges : Total charges.
 Charge compensation  : None.
 Solution method      : On-the-fly selection.
 Cavity type          : VdW (van der Waals Surface) (Alpha=1.000).
 Cavity algorithm     : GePol (No added spheres)
                        Default sphere list used, NSphG=   43.
                        Lebedev-Laikov grids with approx.  5.0 points / Ang**2.
                        Smoothing algorithm: York/Karplus (Gamma=1.0000).
                        Polarization charges: spherical gaussians, with
                                              point-specific exponents (IZeta= 3).
                        Self-potential: point-specific (ISelfS= 7).
                        Self-field    : sphere-specific E.n sum rule (ISelfD= 2).
 1st derivatives      : Analytical E(r).r(x)/FMM algorithm (CHGder, D1EAlg=3).
                        Cavity 1st derivative terms included.
 Solvent              : Acetonitrile, Eps=  35.688000 Eps(inf)=   1.806874
 ------------------------------------------------------------------------------
 GePol: Number of generator spheres                  =      43
 GePol: Total number of spheres                      =      43
 GePol: Number of exposed spheres                    =      43 (100.00%)
 GePol: Number of points                             =    3289
 GePol: Average weight of points                     =       0.11
 GePol: Minimum weight of points                     =   0.24D-09
 GePol: Maximum weight of points                     =    0.21559
 GePol: Number of points with low weight             =     160
 GePol: Fraction of low-weight points (<1% of avg)   =       4.86%
 GePol: Cavity surface area                          =    371.292 Ang**2
 GePol: Cavity volume                                =    377.339 Ang**3
 ------------------------------------------------------------------------------
 Atomic radii for non-electrostatic terms: SMD-CDS.
 ------------------------------------------------------------------------------
 PCM non-electrostatic energy =        -0.0079595609 Hartrees.
 Nuclear repulsion after PCM non-electrostatic terms =     2242.2774341901 Hartrees.
 Leave Link  301 at Tue Feb 23 01:04:08 2021, MaxMem=  5242880000 cpu:         2.7
 (Enter /opt/nce/packages/global/g09/l302.exe)
 NPDir=0 NMtPBC=     1 NCelOv=     1 NCel=       1 NClECP=     1 NCelD=      1
         NCelK=      1 NCelE2=     1 NClLst=     1 CellRange=     0.0.
 One-electron integrals computed using PRISM.
   1 Symmetry operations used in ECPInt.
 ECPInt:  NShTT=   65341 NPrTT=  203208 LenC2=   53161 LenP2D=  114787.
 LDataN:  DoStor=T MaxTD1= 6 Len=  172
 NBasis=   933 RedAO= T EigKep=  2.87D-06  NBF=   933
 NBsUse=   933 1.00D-06 EigRej= -1.00D+00 NBFU=   933
 Precomputing XC quadrature grid using
 IXCGrd= 4 IRadAn=           5 IRanWt=          -1 IRanGd=           0 AccXCQ= 0.00D+00.
 Generated NRdTot=       0 NPtTot=           0 NUsed=           0 NTot=          32
 NSgBfM=  1027  1027  1027  1027  1027 MxSgAt=    43 MxSgA2=    43.
 Leave Link  302 at Tue Feb 23 01:04:10 2021, MaxMem=  5242880000 cpu:        23.6
 (Enter /opt/nce/packages/global/g09/l303.exe)
 DipDrv:  MaxL=1.
 Leave Link  303 at Tue Feb 23 01:04:10 2021, MaxMem=  5242880000 cpu:         3.6
 (Enter /opt/nce/packages/global/g09/l401.exe)
 ExpMin= 9.52D-02 ExpMax= 2.70D+04 ExpMxC= 9.22D+02 IAcc=3 IRadAn=         5 AccDes= 0.00D+00
 Harris functional with IExCor= 1009 and IRadAn=       5 diagonalized for initial guess.
 HarFok:  IExCor= 1009 AccDes= 0.00D+00 IRadAn=         5 IDoV= 1 UseB2=F ITyADJ=14
 ICtDFT=  3500011 ScaDFX=  1.000000  1.000000  1.000000  1.000000
 FoFCou: FMM=F IPFlag=           0 FMFlag=      100000 FMFlg1=           0
         NFxFlg=           0 DoJE=T BraDBF=F KetDBF=T FulRan=T
         wScrn=  0.000000 ICntrl=     500 IOpCl=  0 I1Cent=   200000004 NGrid=           0
         NMat0=    1 NMatS0=      1 NMatT0=    0 NMatD0=    1 NMtDS0=    0 NMtDT0=    0
 Symmetry not used in FoFCou.
 Harris En= -1149.29703285270    
 JPrj=0 DoOrth=F DoCkMO=F.
 Leave Link  401 at Tue Feb 23 01:04:19 2021, MaxMem=  5242880000 cpu:       100.2
 (Enter /opt/nce/packages/global/g09/l502.exe)
 Closed shell SCF:
 Using DIIS extrapolation, IDIIS=  1040.
 Two-electron integral symmetry not used.
 IVT=     3459732 IEndB=     3459732 NGot=  5242880000 MDV=  5240578601
 LenX=  5240578601 LenY=  5239436909
 Requested convergence on RMS density matrix=1.00D-08 within 128 cycles.
 Requested convergence on MAX density matrix=1.00D-06.
 Requested convergence on             energy=1.00D-06.
 No special actions if energy rises.
 Fock matrices will be formed incrementally for  20 cycles.

 Cycle   1  Pass 1  IDiag  1:
 FoFJK:  IHMeth= 1 ICntrl=       0 DoSepK=F KAlg= 0 I1Cent=   0 FoldK=F
 IRaf= 700000000 NMat=   1 IRICut=       1 DoRegI=T DoRafI=F ISym2E= 0.
 FoFCou: FMM=F IPFlag=           0 FMFlag=      100000 FMFlg1=           0
         NFxFlg=           0 DoJE=F BraDBF=F KetDBF=F FulRan=T
         wScrn=  0.000000 ICntrl=       0 IOpCl=  0 I1Cent=           0 NGrid=           0
         NMat0=    1 NMatS0=      1 NMatT0=    0 NMatD0=    1 NMtDS0=    0 NMtDT0=    0
 Symmetry not used in FoFCou.
 Inv3:  Mode=1 IEnd=    32452563.
 Iteration    1 A*A^-1 deviation from unit magnitude is 6.22D-15 for   3269.
 Iteration    1 A*A^-1 deviation from orthogonality  is 2.84D-15 for   3281   3157.
 Iteration    1 A^-1*A deviation from unit magnitude is 6.00D-15 for   3269.
 Iteration    1 A^-1*A deviation from orthogonality  is 1.33D-07 for   3035   1460.
 Iteration    2 A*A^-1 deviation from unit magnitude is 2.22D-15 for    167.
 Iteration    2 A*A^-1 deviation from orthogonality  is 2.44D-15 for   2600    640.
 Iteration    2 A^-1*A deviation from unit magnitude is 1.11D-15 for    256.
 Iteration    2 A^-1*A deviation from orthogonality  is 3.33D-16 for   2845   1073.
 E= -1149.31319422783    
 DIIS: error= 2.16D-02 at cycle   1 NSaved=   1.
 NSaved= 1 IEnMin= 1 EnMin= -1149.31319422783     IErMin= 1 ErrMin= 2.16D-02
 ErrMax= 2.16D-02  0.00D+00 EMaxC= 1.00D-01 BMatC= 7.24D-01 BMatP= 7.24D-01
 IDIUse=3 WtCom= 7.84D-01 WtEn= 2.16D-01
 Coeff-Com:  0.100D+01
 Coeff-En:   0.100D+01
 Coeff:      0.100D+01
 Gap=     0.211 Goal=   None    Shift=    0.000
 GapD=    0.211 DampG=1.000 DampE=0.500 DampFc=0.5000 IDamp=-1.
 Damping current iteration by 5.00D-01
 RMSDP=2.98D-03 MaxDP=2.74D-01              OVMax= 1.68D-01

 Cycle   2  Pass 1  IDiag  1:
 RMSU=  1.49D-03    CP:  9.83D-01
 E= -1149.59794929535     Delta-E=       -0.284755067522 Rises=F Damp=T
 DIIS: error= 6.11D-03 at cycle   2 NSaved=   2.
 NSaved= 2 IEnMin= 2 EnMin= -1149.59794929535     IErMin= 2 ErrMin= 6.11D-03
 ErrMax= 6.11D-03  0.00D+00 EMaxC= 1.00D-01 BMatC= 7.71D-02 BMatP= 7.24D-01
 IDIUse=3 WtCom= 9.39D-01 WtEn= 6.11D-02
 Coeff-Com: -0.136D+00 0.114D+01
 Coeff-En:   0.000D+00 0.100D+01
 Coeff:     -0.128D+00 0.113D+01
 Gap=     0.216 Goal=   None    Shift=    0.000
 RMSDP=1.22D-03 MaxDP=1.05D-01 DE=-2.85D-01 OVMax= 1.11D-01

 Cycle   3  Pass 1  IDiag  1:
 RMSU=  1.17D-03    CP:  9.25D-01  9.53D-01
 E= -1149.84212401322     Delta-E=       -0.244174717871 Rises=F Damp=F
 DIIS: error= 6.41D-03 at cycle   3 NSaved=   3.
 NSaved= 3 IEnMin= 3 EnMin= -1149.84212401322     IErMin= 2 ErrMin= 6.11D-03
 ErrMax= 6.41D-03  0.00D+00 EMaxC= 1.00D-01 BMatC= 5.15D-02 BMatP= 7.71D-02
 IDIUse=3 WtCom= 9.36D-01 WtEn= 6.41D-02
 Coeff-Com: -0.151D+00 0.568D+00 0.583D+00
 Coeff-En:   0.000D+00 0.000D+00 0.100D+01
 Coeff:     -0.142D+00 0.532D+00 0.610D+00
 Gap=     0.209 Goal=   None    Shift=    0.000
 RMSDP=4.97D-04 MaxDP=5.41D-02 DE=-2.44D-01 OVMax= 4.56D-02

 Cycle   4  Pass 1  IDiag  1:
 RMSU=  3.77D-04    CP:  9.30D-01  1.10D+00  7.91D-01
 E= -1149.87667966687     Delta-E=       -0.034555653647 Rises=F Damp=F
 DIIS: error= 2.12D-03 at cycle   4 NSaved=   4.
 NSaved= 4 IEnMin= 4 EnMin= -1149.87667966687     IErMin= 4 ErrMin= 2.12D-03
 ErrMax= 2.12D-03  0.00D+00 EMaxC= 1.00D-01 BMatC= 6.20D-03 BMatP= 5.15D-02
 IDIUse=3 WtCom= 9.79D-01 WtEn= 2.12D-02
 Coeff-Com: -0.475D-01 0.122D+00 0.303D+00 0.623D+00
 Coeff-En:   0.000D+00 0.000D+00 0.583D-01 0.942D+00
 Coeff:     -0.465D-01 0.119D+00 0.298D+00 0.629D+00
 Gap=     0.208 Goal=   None    Shift=    0.000
 RMSDP=1.86D-04 MaxDP=2.61D-02 DE=-3.46D-02 OVMax= 1.27D-02

 Cycle   5  Pass 1  IDiag  1:
 RMSU=  8.23D-05    CP:  9.26D-01  1.04D+00  8.62D-01  7.07D-01
 E= -1149.88114715432     Delta-E=       -0.004467487453 Rises=F Damp=F
 DIIS: error= 3.70D-04 at cycle   5 NSaved=   5.
 NSaved= 5 IEnMin= 5 EnMin= -1149.88114715432     IErMin= 5 ErrMin= 3.70D-04
 ErrMax= 3.70D-04  0.00D+00 EMaxC= 1.00D-01 BMatC= 2.03D-04 BMatP= 6.20D-03
 IDIUse=3 WtCom= 9.96D-01 WtEn= 3.70D-03
 Coeff-Com: -0.116D-01 0.220D-01 0.932D-01 0.261D+00 0.635D+00
 Coeff-En:   0.000D+00 0.000D+00 0.000D+00 0.000D+00 0.100D+01
 Coeff:     -0.116D-01 0.219D-01 0.929D-01 0.260D+00 0.636D+00
 Gap=     0.209 Goal=   None    Shift=    0.000
 RMSDP=3.69D-05 MaxDP=3.84D-03 DE=-4.47D-03 OVMax= 2.87D-03

 Cycle   6  Pass 1  IDiag  1:
 RMSU=  2.51D-05    CP:  9.27D-01  1.05D+00  8.52D-01  7.01D-01  9.14D-01
 E= -1149.88130912780     Delta-E=       -0.000161973474 Rises=F Damp=F
 DIIS: error= 1.02D-04 at cycle   6 NSaved=   6.
 NSaved= 6 IEnMin= 6 EnMin= -1149.88130912780     IErMin= 6 ErrMin= 1.02D-04
 ErrMax= 1.02D-04  0.00D+00 EMaxC= 1.00D-01 BMatC= 1.89D-05 BMatP= 2.03D-04
 IDIUse=3 WtCom= 9.99D-01 WtEn= 1.02D-03
 Coeff-Com: -0.147D-02 0.870D-03 0.165D-01 0.597D-01 0.274D+00 0.650D+00
 Coeff-En:   0.000D+00 0.000D+00 0.000D+00 0.000D+00 0.000D+00 0.100D+01
 Coeff:     -0.147D-02 0.869D-03 0.165D-01 0.596D-01 0.274D+00 0.650D+00
 Gap=     0.209 Goal=   None    Shift=    0.000
 RMSDP=1.07D-05 MaxDP=9.11D-04 DE=-1.62D-04 OVMax= 1.41D-03

 Cycle   7  Pass 1  IDiag  1:
 RMSU=  9.22D-06    CP:  9.27D-01  1.05D+00  8.53D-01  7.00D-01  9.46D-01
                    CP:  9.33D-01
 E= -1149.88132757634     Delta-E=       -0.000018448546 Rises=F Damp=F
 DIIS: error= 5.80D-05 at cycle   7 NSaved=   7.
 NSaved= 7 IEnMin= 7 EnMin= -1149.88132757634     IErMin= 7 ErrMin= 5.80D-05
 ErrMax= 5.80D-05  0.00D+00 EMaxC= 1.00D-01 BMatC= 2.27D-06 BMatP= 1.89D-05
 IDIUse=1 WtCom= 1.00D+00 WtEn= 0.00D+00
 Coeff-Com:  0.127D-02-0.324D-02-0.694D-02-0.153D-01 0.199D-01 0.262D+00
 Coeff-Com:  0.742D+00
 Coeff:      0.127D-02-0.324D-02-0.694D-02-0.153D-01 0.199D-01 0.262D+00
 Coeff:      0.742D+00
 Gap=     0.209 Goal=   None    Shift=    0.000
 RMSDP=5.55D-06 MaxDP=6.00D-04 DE=-1.84D-05 OVMax= 6.34D-04

 Cycle   8  Pass 1  IDiag  1:
 RMSU=  3.51D-06    CP:  9.27D-01  1.05D+00  8.54D-01  6.99D-01  9.80D-01
                    CP:  9.92D-01  1.01D+00
 E= -1149.88133032663     Delta-E=       -0.000002750283 Rises=F Damp=F
 DIIS: error= 1.67D-05 at cycle   8 NSaved=   8.
 NSaved= 8 IEnMin= 8 EnMin= -1149.88133032663     IErMin= 8 ErrMin= 1.67D-05
 ErrMax= 1.67D-05  0.00D+00 EMaxC= 1.00D-01 BMatC= 2.77D-07 BMatP= 2.27D-06
 IDIUse=1 WtCom= 1.00D+00 WtEn= 0.00D+00
 Coeff-Com:  0.719D-03-0.149D-02-0.446D-02-0.139D-01-0.262D-01 0.185D-01
 Coeff-Com:  0.274D+00 0.753D+00
 Coeff:      0.719D-03-0.149D-02-0.446D-02-0.139D-01-0.262D-01 0.185D-01
 Coeff:      0.274D+00 0.753D+00
 Gap=     0.209 Goal=   None    Shift=    0.000
 RMSDP=1.72D-06 MaxDP=1.25D-04 DE=-2.75D-06 OVMax= 2.56D-04

 Cycle   9  Pass 1  IDiag  1:
 RMSU=  9.68D-07    CP:  9.27D-01  1.05D+00  8.54D-01  6.97D-01  9.87D-01
                    CP:  1.01D+00  1.10D+00  1.09D+00
 E= -1149.88133070425     Delta-E=       -0.000000377625 Rises=F Damp=F
 DIIS: error= 6.85D-06 at cycle   9 NSaved=   9.
 NSaved= 9 IEnMin= 9 EnMin= -1149.88133070425     IErMin= 9 ErrMin= 6.85D-06
 ErrMax= 6.85D-06  0.00D+00 EMaxC= 1.00D-01 BMatC= 3.70D-08 BMatP= 2.77D-07
 IDIUse=1 WtCom= 1.00D+00 WtEn= 0.00D+00
 Coeff-Com:  0.151D-03-0.258D-03-0.849D-03-0.382D-02-0.119D-01-0.193D-01
 Coeff-Com:  0.302D-01 0.288D+00 0.717D+00
 Coeff:      0.151D-03-0.258D-03-0.849D-03-0.382D-02-0.119D-01-0.193D-01
 Coeff:      0.302D-01 0.288D+00 0.717D+00
 Gap=     0.209 Goal=   None    Shift=    0.000
 RMSDP=6.27D-07 MaxDP=5.70D-05 DE=-3.78D-07 OVMax= 1.15D-04

 Cycle  10  Pass 1  IDiag  1:
 RMSU=  3.68D-07    CP:  9.27D-01  1.05D+00  8.55D-01  6.96D-01  9.88D-01
                    CP:  1.01D+00  1.12D+00  1.15D+00  1.10D+00
 E= -1149.88133075579     Delta-E=       -0.000000051541 Rises=F Damp=F
 DIIS: error= 2.97D-06 at cycle  10 NSaved=  10.
 NSaved=10 IEnMin=10 EnMin= -1149.88133075579     IErMin=10 ErrMin= 2.97D-06
 ErrMax= 2.97D-06  0.00D+00 EMaxC= 1.00D-01 BMatC= 5.93D-09 BMatP= 3.70D-08
 IDIUse=1 WtCom= 1.00D+00 WtEn= 0.00D+00
 Coeff-Com: -0.750D-04 0.176D-03 0.577D-03 0.121D-02 0.484D-03-0.109D-01
 Coeff-Com: -0.398D-01-0.414D-01 0.278D+00 0.811D+00
 Coeff:     -0.750D-04 0.176D-03 0.577D-03 0.121D-02 0.484D-03-0.109D-01
 Coeff:     -0.398D-01-0.414D-01 0.278D+00 0.811D+00
 Gap=     0.209 Goal=   None    Shift=    0.000
 RMSDP=3.69D-07 MaxDP=3.63D-05 DE=-5.15D-08 OVMax= 5.56D-05

 Cycle  11  Pass 1  IDiag  1:
 RMSU=  1.69D-07    CP:  9.27D-01  1.05D+00  8.55D-01  6.96D-01  9.89D-01
                    CP:  1.01D+00  1.13D+00  1.20D+00  1.21D+00  1.08D+00
 E= -1149.88133076566     Delta-E=       -0.000000009868 Rises=F Damp=F
 DIIS: error= 6.89D-07 at cycle  11 NSaved=  11.
 NSaved=11 IEnMin=11 EnMin= -1149.88133076566     IErMin=11 ErrMin= 6.89D-07
 ErrMax= 6.89D-07  0.00D+00 EMaxC= 1.00D-01 BMatC= 6.45D-10 BMatP= 5.93D-09
 IDIUse=1 WtCom= 1.00D+00 WtEn= 0.00D+00
 Coeff-Com: -0.382D-04 0.828D-04 0.288D-03 0.764D-03 0.106D-02-0.276D-02
 Coeff-Com: -0.176D-01-0.437D-01 0.381D-01 0.317D+00 0.707D+00
 Coeff:     -0.382D-04 0.828D-04 0.288D-03 0.764D-03 0.106D-02-0.276D-02
 Coeff:     -0.176D-01-0.437D-01 0.381D-01 0.317D+00 0.707D+00
 Gap=     0.209 Goal=   None    Shift=    0.000
 RMSDP=8.44D-08 MaxDP=8.81D-06 DE=-9.87D-09 OVMax= 1.71D-05

 Cycle  12  Pass 1  IDiag  1:
 RMSU=  3.98D-08    CP:  9.27D-01  1.05D+00  8.55D-01  6.96D-01  9.89D-01
                    CP:  1.01D+00  1.13D+00  1.20D+00  1.22D+00  1.17D+00
                    CP:  1.08D+00
 E= -1149.88133076648     Delta-E=       -0.000000000819 Rises=F Damp=F
 DIIS: error= 2.10D-07 at cycle  12 NSaved=  12.
 NSaved=12 IEnMin=12 EnMin= -1149.88133076648     IErMin=12 ErrMin= 2.10D-07
 ErrMax= 2.10D-07  0.00D+00 EMaxC= 1.00D-01 BMatC= 7.66D-11 BMatP= 6.45D-10
 IDIUse=1 WtCom= 1.00D+00 WtEn= 0.00D+00
 Coeff-Com: -0.151D-05 0.142D-05 0.212D-04 0.103D-03 0.369D-03 0.865D-03
 Coeff-Com:  0.376D-03-0.100D-01-0.340D-01-0.875D-02 0.258D+00 0.793D+00
 Coeff:     -0.151D-05 0.142D-05 0.212D-04 0.103D-03 0.369D-03 0.865D-03
 Coeff:      0.376D-03-0.100D-01-0.340D-01-0.875D-02 0.258D+00 0.793D+00
 Gap=     0.209 Goal=   None    Shift=    0.000
 RMSDP=3.11D-08 MaxDP=2.38D-06 DE=-8.19D-10 OVMax= 6.79D-06

 Cycle  13  Pass 1  IDiag  1:
 RMSU=  1.68D-08    CP:  9.27D-01  1.05D+00  8.55D-01  6.96D-01  9.89D-01
                    CP:  1.01D+00  1.13D+00  1.20D+00  1.23D+00  1.19D+00
                    CP:  1.17D+00  1.21D+00
 E= -1149.88133076661     Delta-E=       -0.000000000124 Rises=F Damp=F
 DIIS: error= 1.12D-07 at cycle  13 NSaved=  13.
 NSaved=13 IEnMin=13 EnMin= -1149.88133076661     IErMin=13 ErrMin= 1.12D-07
 ErrMax= 1.12D-07  0.00D+00 EMaxC= 1.00D-01 BMatC= 6.50D-12 BMatP= 7.66D-11
 IDIUse=1 WtCom= 1.00D+00 WtEn= 0.00D+00
 Coeff-Com:  0.251D-05-0.587D-05-0.138D-04-0.268D-04 0.324D-04 0.435D-03
 Coeff-Com:  0.135D-02 0.579D-03-0.132D-01-0.249D-01 0.943D-02 0.225D+00
 Coeff-Com:  0.801D+00
 Coeff:      0.251D-05-0.587D-05-0.138D-04-0.268D-04 0.324D-04 0.435D-03
 Coeff:      0.135D-02 0.579D-03-0.132D-01-0.249D-01 0.943D-02 0.225D+00
 Coeff:      0.801D+00
 Gap=     0.209 Goal=   None    Shift=    0.000
 RMSDP=9.82D-09 MaxDP=8.12D-07 DE=-1.24D-10 OVMax= 2.23D-06

 Error on total polarization charges =  0.05861
 SCF Done:  E(RM062X) =  -1149.88133077     A.U. after   13 cycles
            NFock= 13  Conv=0.98D-08     -V/T= 2.0055
 KE= 1.143578260109D+03 PE=-7.160885476237D+03 EE= 2.625148451172D+03
 SMD-CDS (non-electrostatic) energy       (kcal/mol) =      -4.99
 (included in total energy above)
 Leave Link  502 at Tue Feb 23 01:25:55 2021, MaxMem=  5242880000 cpu:     15510.5
 (Enter /opt/nce/packages/global/g09/l601.exe)
 Copying SCF densities to generalized density rwf, IOpCl= 0 IROHF=0.

 **********************************************************************

            Population analysis using the SCF density.

 **********************************************************************

 Alpha  occ. eigenvalues --  -19.69314 -19.66203 -19.62319 -10.69089 -10.62324
 Alpha  occ. eigenvalues --  -10.61699 -10.58185 -10.58084 -10.57653 -10.57592
 Alpha  occ. eigenvalues --  -10.56624 -10.56524 -10.56065 -10.55702 -10.55689
 Alpha  occ. eigenvalues --  -10.55177 -10.55096 -10.55027 -10.54930 -10.54811
 Alpha  occ. eigenvalues --  -10.54598 -10.54552 -10.54306 -10.54297 -10.54220
 Alpha  occ. eigenvalues --  -10.54213 -10.54110  -1.25367  -1.20010  -1.16560
 Alpha  occ. eigenvalues --   -1.00068  -0.97172  -0.96127  -0.94108  -0.90103
 Alpha  occ. eigenvalues --   -0.87561  -0.86089  -0.85236  -0.84313  -0.84024
 Alpha  occ. eigenvalues --   -0.81724  -0.78623  -0.75972  -0.73276  -0.72220
 Alpha  occ. eigenvalues --   -0.70058  -0.69241  -0.68592  -0.65357  -0.64447
 Alpha  occ. eigenvalues --   -0.63637  -0.60323  -0.60058  -0.58506  -0.57381
 Alpha  occ. eigenvalues --   -0.56967  -0.56511  -0.54915  -0.54860  -0.53445
 Alpha  occ. eigenvalues --   -0.53345  -0.52521  -0.52159  -0.50824  -0.50340
 Alpha  occ. eigenvalues --   -0.49699  -0.48682  -0.48301  -0.48267  -0.47510
 Alpha  occ. eigenvalues --   -0.47052  -0.46993  -0.46100  -0.44135  -0.43900
 Alpha  occ. eigenvalues --   -0.43151  -0.43007  -0.41958  -0.41341  -0.40918
 Alpha  occ. eigenvalues --   -0.40140  -0.39562  -0.38560  -0.38053  -0.36917
 Alpha  occ. eigenvalues --   -0.35417  -0.32319  -0.31028  -0.30331  -0.29876
 Alpha  occ. eigenvalues --   -0.29130  -0.25582
 Alpha virt. eigenvalues --   -0.04698  -0.02822   0.01157   0.01896   0.02122
 Alpha virt. eigenvalues --    0.03183   0.05348   0.07627   0.08184   0.08656
 Alpha virt. eigenvalues --    0.09318   0.09840   0.10348   0.11231   0.11814
 Alpha virt. eigenvalues --    0.11818   0.12179   0.12664   0.13597   0.14076
 Alpha virt. eigenvalues --    0.14472   0.14657   0.14871   0.15179   0.15695
 Alpha virt. eigenvalues --    0.16384   0.16427   0.17032   0.17350   0.18726
 Alpha virt. eigenvalues --    0.19009   0.19510   0.20022   0.20981   0.21705
 Alpha virt. eigenvalues --    0.21825   0.22316   0.22479   0.22742   0.22779
 Alpha virt. eigenvalues --    0.23077   0.24070   0.24074   0.24506   0.24718
 Alpha virt. eigenvalues --    0.24869   0.25173   0.25579   0.26170   0.26441
 Alpha virt. eigenvalues --    0.27162   0.27348   0.27609   0.27704   0.27983
 Alpha virt. eigenvalues --    0.28476   0.28726   0.29033   0.29825   0.30313
 Alpha virt. eigenvalues --    0.30423   0.30913   0.31153   0.31401   0.31809
 Alpha virt. eigenvalues --    0.32383   0.33174   0.33483   0.33748   0.33918
 Alpha virt. eigenvalues --    0.34280   0.35246   0.35591   0.36438   0.36541
 Alpha virt. eigenvalues --    0.37111   0.37242   0.37573   0.37937   0.38107
 Alpha virt. eigenvalues --    0.38459   0.39076   0.39561   0.39632   0.40315
 Alpha virt. eigenvalues --    0.40389   0.40808   0.41220   0.41411   0.41899
 Alpha virt. eigenvalues --    0.42489   0.42605   0.43146   0.43251   0.43409
 Alpha virt. eigenvalues --    0.43581   0.44059   0.44299   0.44976   0.45074
 Alpha virt. eigenvalues --    0.45212   0.46078   0.46809   0.46833   0.47593
 Alpha virt. eigenvalues --    0.47875   0.48184   0.48713   0.49648   0.49783
 Alpha virt. eigenvalues --    0.49810   0.50531   0.50883   0.50997   0.51478
 Alpha virt. eigenvalues --    0.51642   0.52503   0.52539   0.52636   0.53545
 Alpha virt. eigenvalues --    0.53701   0.53843   0.54556   0.54870   0.55093
 Alpha virt. eigenvalues --    0.55702   0.55736   0.56843   0.57110   0.58449
 Alpha virt. eigenvalues --    0.58989   0.59403   0.60182   0.60590   0.60995
 Alpha virt. eigenvalues --    0.61525   0.62883   0.63194   0.64018   0.64678
 Alpha virt. eigenvalues --    0.65291   0.65576   0.66124   0.67103   0.67396
 Alpha virt. eigenvalues --    0.67746   0.67921   0.68221   0.68833   0.68843
 Alpha virt. eigenvalues --    0.69009   0.70057   0.70180   0.70653   0.71034
 Alpha virt. eigenvalues --    0.71277   0.72350   0.72782   0.72916   0.73356
 Alpha virt. eigenvalues --    0.73609   0.73779   0.74058   0.74944   0.75086
 Alpha virt. eigenvalues --    0.75729   0.76185   0.76341   0.76406   0.77422
 Alpha virt. eigenvalues --    0.78038   0.78317   0.78652   0.78980   0.79839
 Alpha virt. eigenvalues --    0.79968   0.80750   0.81342   0.81780   0.81831
 Alpha virt. eigenvalues --    0.82322   0.83056   0.83869   0.83934   0.84117
 Alpha virt. eigenvalues --    0.84424   0.85201   0.86589   0.87261   0.87450
 Alpha virt. eigenvalues --    0.87890   0.88440   0.88630   0.89069   0.89540
 Alpha virt. eigenvalues --    0.89910   0.90703   0.90904   0.90995   0.91434
 Alpha virt. eigenvalues --    0.92689   0.93194   0.93680   0.93759   0.94985
 Alpha virt. eigenvalues --    0.95292   0.96233   0.97075   0.97967   0.98217
 Alpha virt. eigenvalues --    0.99093   0.99992   1.01255   1.01844   1.01884
 Alpha virt. eigenvalues --    1.03667   1.04115   1.04305   1.05346   1.05474
 Alpha virt. eigenvalues --    1.06160   1.06519   1.06884   1.08194   1.08917
 Alpha virt. eigenvalues --    1.10799   1.11332   1.11732   1.11837   1.12703
 Alpha virt. eigenvalues --    1.13055   1.13988   1.15055   1.15701   1.15989
 Alpha virt. eigenvalues --    1.16690   1.17800   1.18238   1.19307   1.19873
 Alpha virt. eigenvalues --    1.21110   1.21752   1.22150   1.22774   1.23192
 Alpha virt. eigenvalues --    1.23590   1.24842   1.25516   1.26208   1.27285
 Alpha virt. eigenvalues --    1.27376   1.28023   1.28370   1.28817   1.29373
 Alpha virt. eigenvalues --    1.29796   1.30210   1.31438   1.31442   1.33442
 Alpha virt. eigenvalues --    1.33581   1.34507   1.34844   1.35377   1.36315
 Alpha virt. eigenvalues --    1.36466   1.37717   1.38868   1.40167   1.40236
 Alpha virt. eigenvalues --    1.40550   1.41662   1.43470   1.43765   1.44171
 Alpha virt. eigenvalues --    1.44706   1.45007   1.45928   1.46850   1.46863
 Alpha virt. eigenvalues --    1.47645   1.49294   1.49803   1.49859   1.50408
 Alpha virt. eigenvalues --    1.50736   1.52133   1.52175   1.52662   1.53575
 Alpha virt. eigenvalues --    1.53950   1.54462   1.54507   1.55711   1.55977
 Alpha virt. eigenvalues --    1.56030   1.56729   1.56746   1.57588   1.57648
 Alpha virt. eigenvalues --    1.58381   1.58800   1.60216   1.60265   1.61409
 Alpha virt. eigenvalues --    1.61911   1.61942   1.62866   1.63564   1.64997
 Alpha virt. eigenvalues --    1.65264   1.65573   1.65633   1.65723   1.67066
 Alpha virt. eigenvalues --    1.67663   1.68432   1.69346   1.69965   1.70950
 Alpha virt. eigenvalues --    1.72001   1.72377   1.72394   1.73088   1.73510
 Alpha virt. eigenvalues --    1.73770   1.74681   1.74832   1.75158   1.76049
 Alpha virt. eigenvalues --    1.76432   1.76833   1.77551   1.77711   1.78596
 Alpha virt. eigenvalues --    1.79467   1.80133   1.80502   1.81088   1.83262
 Alpha virt. eigenvalues --    1.83488   1.83746   1.84540   1.85740   1.86666
 Alpha virt. eigenvalues --    1.88570   1.88771   1.89343   1.90385   1.90758
 Alpha virt. eigenvalues --    1.91559   1.93101   1.93256   1.94349   1.94694
 Alpha virt. eigenvalues --    1.95668   1.96270   1.97476   1.97896   1.98805
 Alpha virt. eigenvalues --    2.00088   2.00140   2.01288   2.02061   2.03010
 Alpha virt. eigenvalues --    2.03111   2.03656   2.03900   2.05419   2.06723
 Alpha virt. eigenvalues --    2.07384   2.07848   2.09888   2.10120   2.11275
 Alpha virt. eigenvalues --    2.12879   2.12905   2.13621   2.14850   2.15100
 Alpha virt. eigenvalues --    2.15475   2.15537   2.16813   2.18271   2.18340
 Alpha virt. eigenvalues --    2.18732   2.19512   2.19582   2.19949   2.21349
 Alpha virt. eigenvalues --    2.21455   2.21854   2.23362   2.24367   2.24775
 Alpha virt. eigenvalues --    2.25112   2.27054   2.27257   2.28117   2.28624
 Alpha virt. eigenvalues --    2.29580   2.30109   2.31385   2.32047   2.32872
 Alpha virt. eigenvalues --    2.33326   2.33615   2.35335   2.35800   2.36854
 Alpha virt. eigenvalues --    2.37317   2.38839   2.39974   2.40167   2.40781
 Alpha virt. eigenvalues --    2.43322   2.43713   2.44487   2.45560   2.46869
 Alpha virt. eigenvalues --    2.48109   2.49127   2.49847   2.49990   2.50936
 Alpha virt. eigenvalues --    2.52047   2.52163   2.53517   2.54061   2.54708
 Alpha virt. eigenvalues --    2.55417   2.55463   2.55774   2.56345   2.57300
 Alpha virt. eigenvalues --    2.59180   2.59246   2.61209   2.61370   2.61467
 Alpha virt. eigenvalues --    2.62172   2.62270   2.63945   2.64162   2.64614
 Alpha virt. eigenvalues --    2.64814   2.65844   2.66149   2.67294   2.67397
 Alpha virt. eigenvalues --    2.68030   2.68161   2.68865   2.69221   2.69771
 Alpha virt. eigenvalues --    2.70271   2.70445   2.71623   2.71678   2.71766
 Alpha virt. eigenvalues --    2.72410   2.72610   2.73820   2.74692   2.74762
 Alpha virt. eigenvalues --    2.75472   2.75982   2.76214   2.76531   2.77448
 Alpha virt. eigenvalues --    2.77466   2.78415   2.78792   2.80017   2.80359
 Alpha virt. eigenvalues --    2.80979   2.81251   2.81512   2.81729   2.82603
 Alpha virt. eigenvalues --    2.83368   2.83522   2.83886   2.84101   2.85130
 Alpha virt. eigenvalues --    2.85846   2.86040   2.86256   2.86728   2.87561
 Alpha virt. eigenvalues --    2.87869   2.88600   2.89042   2.89472   2.90004
 Alpha virt. eigenvalues --    2.90700   2.91185   2.91499   2.92188   2.92829
 Alpha virt. eigenvalues --    2.94074   2.94225   2.94761   2.95067   2.97127
 Alpha virt. eigenvalues --    2.97376   2.97399   2.97944   2.98218   2.99098
 Alpha virt. eigenvalues --    2.99982   3.00246   3.00695   3.01498   3.01867
 Alpha virt. eigenvalues --    3.02309   3.03789   3.04380   3.04902   3.05568
 Alpha virt. eigenvalues --    3.06537   3.06756   3.07910   3.09106   3.09227
 Alpha virt. eigenvalues --    3.09721   3.09962   3.10446   3.10979   3.11325
 Alpha virt. eigenvalues --    3.12226   3.12796   3.13218   3.13647   3.14809
 Alpha virt. eigenvalues --    3.15010   3.15219   3.15860   3.16845   3.17294
 Alpha virt. eigenvalues --    3.17587   3.17835   3.18302   3.18483   3.19531
 Alpha virt. eigenvalues --    3.19948   3.20357   3.20441   3.20844   3.21672
 Alpha virt. eigenvalues --    3.22149   3.22580   3.22949   3.24134   3.24775
 Alpha virt. eigenvalues --    3.25607   3.25902   3.26826   3.27097   3.27327
 Alpha virt. eigenvalues --    3.27529   3.28119   3.28538   3.29065   3.30039
 Alpha virt. eigenvalues --    3.30688   3.31180   3.31591   3.31833   3.32629
 Alpha virt. eigenvalues --    3.32654   3.33002   3.33223   3.34147   3.34763
 Alpha virt. eigenvalues --    3.35951   3.36024   3.36696   3.36708   3.37780
 Alpha virt. eigenvalues --    3.38116   3.38221   3.39059   3.39324   3.39810
 Alpha virt. eigenvalues --    3.40174   3.40830   3.40954   3.42015   3.42295
 Alpha virt. eigenvalues --    3.43073   3.43723   3.43860   3.44542   3.44583
 Alpha virt. eigenvalues --    3.45312   3.45506   3.45762   3.46756   3.47600
 Alpha virt. eigenvalues --    3.48004   3.48420   3.49328   3.49641   3.49965
 Alpha virt. eigenvalues --    3.50469   3.50510   3.51096   3.51415   3.52062
 Alpha virt. eigenvalues --    3.52098   3.52805   3.53360   3.53801   3.53940
 Alpha virt. eigenvalues --    3.54682   3.56205   3.56827   3.56951   3.58021
 Alpha virt. eigenvalues --    3.58054   3.59988   3.60301   3.60753   3.61193
 Alpha virt. eigenvalues --    3.62824   3.63512   3.64226   3.64370   3.65333
 Alpha virt. eigenvalues --    3.66610   3.67009   3.67111   3.68159   3.68347
 Alpha virt. eigenvalues --    3.70768   3.70977   3.73396   3.73584   3.74786
 Alpha virt. eigenvalues --    3.74799   3.75466   3.76774   3.79272   3.79529
 Alpha virt. eigenvalues --    3.80836   3.81529   3.83323   3.83806   3.86239
 Alpha virt. eigenvalues --    3.86662   3.89128   3.89832   3.90083   3.90446
 Alpha virt. eigenvalues --    3.91739   3.92751   3.93223   3.93926   3.95380
 Alpha virt. eigenvalues --    3.96102   3.98111   3.98420   4.01209   4.01564
 Alpha virt. eigenvalues --    4.02446   4.02714   4.03547   4.04773   4.04942
 Alpha virt. eigenvalues --    4.07371   4.08673   4.09041   4.09593   4.10370
 Alpha virt. eigenvalues --    4.11114   4.11216   4.11683   4.13434   4.13532
 Alpha virt. eigenvalues --    4.14287   4.14853   4.15843   4.16244   4.16705
 Alpha virt. eigenvalues --    4.17010   4.17214   4.18416   4.18925   4.19913
 Alpha virt. eigenvalues --    4.19972   4.19987   4.20828   4.22754   4.22781
 Alpha virt. eigenvalues --    4.24079   4.24877   4.25303   4.26019   4.27417
 Alpha virt. eigenvalues --    4.27990   4.28398   4.29572   4.30463   4.32227
 Alpha virt. eigenvalues --    4.32908   4.35166   4.36217   4.36597   4.38872
 Alpha virt. eigenvalues --    4.40920   4.41306   4.42052   4.44577   4.45521
 Alpha virt. eigenvalues --    4.47010   4.47785   4.50366   4.51005   4.52804
[...]
     6  C   -0.003039  -0.000179  -0.000179  -0.000188   0.000007  -0.000188
     7  C   -0.019031   0.000839   0.000838  -0.000026  -0.000084  -0.000026
     8  C    0.304301  -0.087022  -0.087025  -0.012767   0.003607  -0.012762
     9  C   -0.174213   0.007506   0.007493  -0.001526   0.001656  -0.001528
    10  C    0.035566   0.000699   0.000693  -0.000024   0.000161  -0.000024
    11  C   -0.003941   0.000125   0.000124  -0.000018   0.000021  -0.000018
    12  C    0.001279   0.000039   0.000039   0.000009   0.000005   0.000009
    13  C   -0.089608  -0.001767  -0.001762   0.000010  -0.000042   0.000011
    14  H    0.000223  -0.000011  -0.000011   0.000000  -0.000001   0.000000
    15  H   -0.000005   0.000001   0.000001  -0.000000   0.000000  -0.000000
    16  H    0.000047  -0.000004  -0.000004   0.000000  -0.000000   0.000000
    17  H    0.013347  -0.005828  -0.005828   0.000818   0.000118   0.000818
    18  H    0.000205   0.000018   0.000018   0.000005   0.000002   0.000005
    19  C    5.683576   0.406331   0.406340  -0.036212  -0.050845  -0.036205
    20  C    0.406331   5.156447  -0.085938   0.478139   0.428416  -0.024410
    21  C    0.406340  -0.085938   5.156449  -0.024403   0.009761   0.478127
    22  C   -0.036212   0.478139  -0.024403   5.000642  -0.039919  -0.056995
    23  H   -0.050845   0.428416   0.009761  -0.039919   0.457151  -0.002641
    24  C   -0.036205  -0.024410   0.478127  -0.056995  -0.002641   5.000660
    25  H   -0.050848   0.009762   0.428420  -0.002641  -0.000112  -0.039920
    26  C   -0.058851  -0.046683  -0.046682   0.475810   0.006710   0.475803
    27  H    0.006382  -0.036476  -0.000860   0.422795  -0.003957   0.004781
    28  H    0.006382  -0.000860  -0.036476   0.004781   0.000043   0.422796
    29  H    0.000905   0.002352   0.002352  -0.030328  -0.000164  -0.030328
    30  O   -0.005313  -0.003821  -0.003816   0.004022  -0.000419   0.004022
    31  O   -0.002110  -0.000319  -0.000317   0.000015   0.000019   0.000015
    32  C   -0.000239  -0.000004  -0.000004  -0.000000  -0.000001  -0.000000
    33  C    0.000140   0.000004   0.000004   0.000000   0.000000   0.000000
    34  C   -0.000004   0.000000   0.000000  -0.000000   0.000000  -0.000000
    35  C    0.000014  -0.000000  -0.000000   0.000000   0.000000   0.000000
    36  H    0.000000  -0.000000  -0.000000  -0.000000  -0.000000  -0.000000
    37  H    0.000007  -0.000000  -0.000000  -0.000000   0.000000  -0.000000
    38  H    0.000011  -0.000000  -0.000000   0.000000   0.000000   0.000000
    39  O   -0.000000   0.000000   0.000000   0.000000   0.000000   0.000000
    40  C    0.000000  -0.000000  -0.000000   0.000000   0.000000   0.000000
    41  H   -0.000000   0.000000  -0.000000  -0.000000   0.000000   0.000000
    42  H   -0.000000   0.000000   0.000000   0.000000  -0.000000   0.000000
    43  H   -0.000000  -0.000000   0.000000   0.000000  -0.000000  -0.000000
              25         26         27         28         29         30
     1  C    0.000001   0.000005   0.000000   0.000000  -0.000000  -0.000001
     2  C    0.000005  -0.000002   0.000000   0.000000   0.000000   0.000000
     3  C    0.000203  -0.000031  -0.000002  -0.000002  -0.000000  -0.001147
     4  C    0.001997   0.001100  -0.000048  -0.000048   0.000006   0.007800
     5  C    0.000399  -0.000137   0.000000   0.000000  -0.000003   0.000016
     6  C    0.000007  -0.000166  -0.000001  -0.000001  -0.000000   0.000005
     7  C   -0.000084   0.000005  -0.000000  -0.000000  -0.000000   0.002143
     8  C    0.003604   0.005247  -0.000211  -0.000211   0.000044  -0.047063
     9  C    0.001657   0.000800  -0.000008  -0.000008   0.000001  -0.145838
    10  C    0.000162   0.000029  -0.000001  -0.000001   0.000000  -0.001349
    11  C    0.000021   0.000002   0.000000   0.000000   0.000000  -0.002556
    12  C    0.000005  -0.000002   0.000000   0.000000  -0.000000  -0.000756
    13  C   -0.000043   0.000181   0.000006   0.000006  -0.000006   0.782198
    14  H   -0.000001  -0.000000   0.000000   0.000000   0.000000   0.000009
    15  H    0.000000   0.000000   0.000000   0.000000   0.000000  -0.000000
    16  H   -0.000000  -0.000000  -0.000000  -0.000000   0.000000   0.000000
    17  H    0.000118   0.000368  -0.000004  -0.000004  -0.000002   0.000017
    18  H    0.000002  -0.000002   0.000000   0.000000  -0.000000   0.000000
    19  C   -0.050848  -0.058851   0.006382   0.006382   0.000905  -0.005313
    20  C    0.009762  -0.046683  -0.036476  -0.000860   0.002352  -0.003821
    21  C    0.428420  -0.046682  -0.000860  -0.036476   0.002352  -0.003816
    22  C   -0.002641   0.475810   0.422795   0.004781  -0.030328   0.004022
    23  H   -0.000112   0.006710  -0.003957   0.000043  -0.000164  -0.000419
    24  C   -0.039920   0.475803   0.004781   0.422796  -0.030328   0.004022
    25  H    0.457150   0.006711   0.000043  -0.003957  -0.000164  -0.000419
    26  C    0.006711   5.013528  -0.034571  -0.034571   0.417595  -0.001868
    27  H    0.000043  -0.034571   0.463608  -0.000165  -0.003454   0.000051
    28  H   -0.003957  -0.034571  -0.000165   0.463608  -0.003454   0.000051
    29  H   -0.000164   0.417595  -0.003454  -0.003454   0.461626  -0.000016
    30  O   -0.000419  -0.001868   0.000051   0.000051  -0.000016   7.853166
    31  O    0.000018  -0.000001   0.000000   0.000000  -0.000000  -0.103652
    32  C   -0.000001   0.000000  -0.000000  -0.000000   0.000000   0.000254
    33  C    0.000000  -0.000000   0.000000   0.000000  -0.000000   0.000295
    34  C    0.000000   0.000000  -0.000000  -0.000000   0.000000   0.000001
    35  C    0.000000  -0.000000   0.000000   0.000000  -0.000000  -0.000021
    36  H   -0.000000  -0.000000   0.000000   0.000000   0.000000   0.000000
    37  H    0.000000   0.000000   0.000000   0.000000   0.000000   0.000001
    38  H    0.000000  -0.000000   0.000000   0.000000   0.000000  -0.000038
    39  O    0.000000   0.000000  -0.000000  -0.000000  -0.000000  -0.000000
    40  C    0.000000  -0.000000   0.000000   0.000000   0.000000   0.000000
    41  H   -0.000000   0.000000   0.000000  -0.000000  -0.000000  -0.000000
    42  H   -0.000000  -0.000000  -0.000000  -0.000000   0.000000  -0.000000
    43  H    0.000000   0.000000  -0.000000   0.000000  -0.000000  -0.000000
              31         32         33         34         35         36
     1  C   -0.000001  -0.000031   0.000000  -0.000000  -0.000001   0.000000
     2  C    0.000005   0.000373  -0.000003   0.000001   0.000004  -0.000000
     3  C   -0.000402   0.004007   0.000278   0.000042  -0.000793   0.000024
     4  C    0.000833   0.001235  -0.000121   0.000006  -0.000014  -0.000000
     5  C    0.000013  -0.000019  -0.000001   0.000000  -0.000001  -0.000000
     6  C    0.000001   0.000009  -0.000000   0.000000   0.000000  -0.000000
     7  C    0.001167  -0.033847   0.001464  -0.001349   0.000029   0.000298
     8  C   -0.005445  -0.005988   0.000903  -0.000225   0.000630   0.000001
     9  C   -0.155942   0.021345   0.020737  -0.001571   0.003474  -0.000027
    10  C    0.001830  -0.086798  -0.001919   0.002801  -0.005332  -0.000429
    11  C   -0.092684   0.281403   0.045292  -0.093359   0.019955   0.009824
    12  C    0.257356  -0.006375   0.430807  -0.042547  -0.079200   0.000052
    13  C    0.447513   0.015973  -0.016308   0.000525  -0.001861  -0.000010
    14  H   -0.000012   0.006877   0.000005  -0.000046   0.000911   0.000021
    15  H   -0.000000   0.000000   0.000000  -0.000000   0.000000   0.000000
    16  H   -0.000000   0.000162  -0.000000   0.000000   0.000002   0.000000
    17  H    0.000000   0.000000  -0.000000   0.000000  -0.000000  -0.000000
    18  H    0.000000  -0.000000  -0.000000   0.000000  -0.000000  -0.000000
    19  C   -0.002110  -0.000239   0.000140  -0.000004   0.000014   0.000000
    20  C   -0.000319  -0.000004   0.000004   0.000000  -0.000000  -0.000000
    21  C   -0.000317  -0.000004   0.000004   0.000000  -0.000000  -0.000000
    22  C    0.000015  -0.000000   0.000000  -0.000000   0.000000  -0.000000
    23  H    0.000019  -0.000001   0.000000   0.000000   0.000000  -0.000000
    24  C    0.000015  -0.000000   0.000000  -0.000000   0.000000  -0.000000
    25  H    0.000018  -0.000001   0.000000   0.000000   0.000000  -0.000000
    26  C   -0.000001   0.000000  -0.000000   0.000000  -0.000000  -0.000000
    27  H    0.000000  -0.000000   0.000000  -0.000000   0.000000   0.000000
    28  H    0.000000  -0.000000   0.000000  -0.000000   0.000000   0.000000
    29  H   -0.000000   0.000000  -0.000000   0.000000  -0.000000   0.000000
    30  O   -0.103652   0.000254   0.000295   0.000001  -0.000021   0.000000
    31  O    7.888959   0.008819  -0.037057   0.005992  -0.000437   0.000009
    32  C    0.008819   5.473444  -0.161344   0.131109   0.258811  -0.011068
    33  C   -0.037057  -0.161344   5.220057   0.413875   0.065689   0.003960
    34  C    0.005992   0.131109   0.413875   4.857384   0.216970  -0.045485
    35  C   -0.000437   0.258811   0.065689   0.216970   5.471635   0.412994
    36  H    0.000009  -0.011068   0.003960  -0.045485   0.412994   0.436593
    37  H   -0.000086   0.376113   0.001160  -0.000344  -0.007828  -0.002683
    38  H    0.004848  -0.007734   0.413180  -0.047583   0.016874   0.000040
    39  O   -0.000029   0.013302  -0.079703   0.384037  -0.094171  -0.006978
    40  C    0.000012  -0.008355   0.015581  -0.087047  -0.000060   0.004702
    41  H    0.000000  -0.001395   0.001802  -0.010510   0.005064  -0.000400
    42  H   -0.000000   0.000497  -0.001606   0.004404  -0.001001  -0.000383
    43  H    0.000000  -0.001398   0.001805  -0.010505   0.005063  -0.000401
              37         38         39         40         41         42
     1  C   -0.000007   0.000000  -0.000000   0.000000   0.000000  -0.000000
     2  C    0.000105   0.000000   0.000000   0.000000  -0.000000  -0.000000
     3  C    0.003595   0.000001  -0.000000   0.000000  -0.000000   0.000000
     4  C    0.000098  -0.000004   0.000000  -0.000000   0.000000   0.000000
     5  C   -0.000008  -0.000000   0.000000  -0.000000   0.000000  -0.000000
     6  C    0.000002  -0.000000  -0.000000   0.000000   0.000000   0.000000
     7  C    0.007460   0.000040  -0.000013   0.000011   0.000000   0.000000
     8  C    0.000103   0.000072  -0.000000   0.000000   0.000000  -0.000000
     9  C   -0.000855   0.001604  -0.000008   0.000002   0.000000  -0.000000
    10  C   -0.010242  -0.001136   0.000075  -0.000021  -0.000002  -0.000000
    11  C   -0.007331   0.014237  -0.004361   0.002973   0.000152  -0.000088
    12  C    0.001966  -0.037728   0.008210  -0.003670  -0.000132   0.000159
    13  C   -0.000076  -0.000748   0.000013  -0.000005   0.000000   0.000000
    14  H    0.007884   0.000002  -0.000001   0.000002   0.000000  -0.000000
    15  H    0.000000   0.000000  -0.000000   0.000000  -0.000000   0.000000
    16  H    0.000121  -0.000000  -0.000000   0.000000  -0.000000   0.000000
    17  H    0.000000  -0.000000   0.000000  -0.000000  -0.000000   0.000000
    18  H   -0.000000  -0.000000   0.000000  -0.000000   0.000000  -0.000000
    19  C    0.000007   0.000011  -0.000000   0.000000  -0.000000  -0.000000
    20  C   -0.000000  -0.000000   0.000000  -0.000000   0.000000   0.000000
    21  C   -0.000000  -0.000000   0.000000  -0.000000  -0.000000   0.000000
    22  C   -0.000000   0.000000   0.000000   0.000000  -0.000000   0.000000
    23  H    0.000000   0.000000   0.000000   0.000000   0.000000  -0.000000
    24  C   -0.000000   0.000000   0.000000   0.000000   0.000000   0.000000
    25  H    0.000000   0.000000   0.000000   0.000000  -0.000000  -0.000000
    26  C    0.000000  -0.000000   0.000000  -0.000000   0.000000  -0.000000
    27  H    0.000000   0.000000  -0.000000   0.000000   0.000000  -0.000000
    28  H    0.000000   0.000000  -0.000000   0.000000  -0.000000  -0.000000
    29  H    0.000000   0.000000  -0.000000   0.000000  -0.000000   0.000000
    30  O    0.000001  -0.000038  -0.000000   0.000000  -0.000000  -0.000000
    31  O   -0.000086   0.004848  -0.000029   0.000012   0.000000  -0.000000
    32  C    0.376113  -0.007734   0.013302  -0.008355  -0.001395   0.000497
    33  C    0.001160   0.413180  -0.079703   0.015581   0.001802  -0.001606
    34  C   -0.000344  -0.047583   0.384037  -0.087047  -0.010510   0.004404
    35  C   -0.007828   0.016874  -0.094171  -0.000060   0.005064  -0.001001
    36  H   -0.002683   0.000040  -0.006978   0.004702  -0.000400  -0.000383
    37  H    0.435003   0.000028   0.000010  -0.000074  -0.000026   0.000003
    38  H    0.000028   0.444310   0.006162   0.000348   0.000106  -0.000215
    39  O    0.000010   0.006162   7.950283   0.216669  -0.039428  -0.027697
    40  C   -0.000074   0.000348   0.216669   4.935165   0.417034   0.401769
    41  H   -0.000026   0.000106  -0.039428   0.417034   0.524171  -0.018808
    42  H    0.000003  -0.000215  -0.027697   0.401769  -0.018808   0.487104
    43  H   -0.000026   0.000106  -0.039431   0.417035  -0.048032  -0.018806
              43
     1  C    0.000000
     2  C   -0.000000
     3  C   -0.000000
     4  C    0.000000
     5  C    0.000000
     6  C    0.000000
     7  C    0.000000
     8  C    0.000000
     9  C    0.000000
    10  C   -0.000002
    11  C    0.000153
    12  C   -0.000133
    13  C    0.000000
    14  H    0.000000
    15  H   -0.000000
    16  H   -0.000000
    17  H   -0.000000
    18  H    0.000000
    19  C   -0.000000
    20  C   -0.000000
    21  C    0.000000
    22  C    0.000000
    23  H   -0.000000
    24  C   -0.000000
    25  H    0.000000
    26  C    0.000000
    27  H   -0.000000
    28  H    0.000000
    29  H   -0.000000
    30  O   -0.000000
    31  O    0.000000
    32  C   -0.001398
    33  C    0.001805
    34  C   -0.010505
    35  C    0.005063
    36  H   -0.000401
    37  H   -0.000026
    38  H    0.000106
    39  O   -0.039431
    40  C    0.417035
    41  H   -0.048032
    42  H   -0.018806
    43  H    0.524168
 Mulliken charges:
               1
     1  C   -0.156287
     2  C   -0.248553
     3  C    0.089131
     4  C    0.078707
     5  C   -0.247065
     6  C   -0.191277
     7  C   -0.289936
     8  C    0.113744
     9  C   -0.109173
    10  C    0.127127
    11  C    0.049287
    12  C    0.217264
    13  C    0.337151
    14  H    0.192905
    15  H    0.185764
    16  H    0.178608
    17  H    0.209502
    18  H    0.186508
    19  C   -0.077141
    20  C   -0.202899
    21  C   -0.202904
    22  C   -0.180576
    23  H    0.187905
    24  C   -0.180577
    25  H    0.187905
    26  C   -0.180325
    27  H    0.182092
    28  H    0.182092
    29  H    0.183037
    30  O   -0.335960
    31  O   -0.218932
    32  C   -0.269133
    33  C   -0.338973
    34  C    0.323428
    35  C   -0.287398
    36  H    0.199346
    37  H    0.195927
    38  H    0.193215
    39  O   -0.286941
    40  C   -0.312070
    41  H    0.170401
    42  H    0.174668
    43  H    0.170403
 Sum of Mulliken charges =  -0.00000
 Mulliken charges with hydrogens summed into heavy atoms:
               1
     1  C    0.029477
     2  C   -0.069945
     3  C    0.089131
     4  C    0.078707
     5  C   -0.037563
     6  C   -0.004769
     7  C   -0.097032
     8  C    0.113744
     9  C   -0.109173
    10  C    0.127127
    11  C    0.049287
    12  C    0.217264
    13  C    0.337151
    19  C   -0.077141
    20  C   -0.014994
    21  C   -0.014999
    22  C    0.001516
    24  C    0.001515
    26  C    0.002712
    30  O   -0.335960
    31  O   -0.218932
    32  C   -0.073206
    33  C   -0.145758
    34  C    0.323428
    35  C   -0.088052
    39  O   -0.286941
    40  C    0.203402
 Electronic spatial extent (au):  <R**2>=          11180.1828
 Charge=              0.0000 electrons
 Dipole moment (field-independent basis, Debye):
    X=              2.8580    Y=              7.5498    Z=              0.0000  Tot=              8.0726
 Quadrupole moment (field-independent basis, Debye-Ang):
   XX=           -108.8102   YY=           -148.9414   ZZ=           -154.2600
   XY=              9.9602   XZ=             -0.0039   YZ=             -0.0007
 Traceless Quadrupole moment (field-independent basis, Debye-Ang):
   XX=             28.5270   YY=            -11.6042   ZZ=            -16.9228
   XY=              9.9602   XZ=             -0.0039   YZ=             -0.0007
 Octapole moment (field-independent basis, Debye-Ang**2):
  XXX=            234.7331  YYY=            101.3948  ZZZ=             -0.0059  XYY=            -15.7421
  XXY=             42.4843  XXZ=             -0.0226  XZZ=             -6.8596  YZZ=            -30.4716
  YYZ=              0.0174  XYZ=             -0.0061
 Hexadecapole moment (field-independent basis, Debye-Ang**3):
 XXXX=          -8594.9807 YYYY=          -3542.2598 ZZZZ=           -401.8944 XXXY=            383.7794
 XXXZ=              0.1378 YYYX=           -111.8226 YYYZ=             -0.0992 ZZZX=              0.3203
 ZZZY=             -0.1516 XXYY=          -2172.8824 XXZZ=          -1905.0650 YYZZ=           -735.6916
 XXYZ=             -0.0279 YYXZ=              0.0419 ZZXY=             68.4639
 N-N= 2.254422691315D+03 E-N=-7.185867879545D+03  KE= 1.144379959796D+03
 Leave Link  601 at Tue Feb 23 11:54:13 2021, MaxMem=  5242880000 cpu:         6.0
 (Enter /opt/nce/packages/global/g09/l9999.exe)
 1\1\GINC-CN065\SP\RM062X TD-FC\Gen\C24H16O3\PNG4RJV\23-Feb-2021\0\\#p 
 m062x chkbasis geom=allcheck Guess=Read int=ultrafine scrf=(SMD,solven
 t=Acetonitrile) td=(NStates=30)\\Title\\0,1\C,0,2.8068810119,4.1121341
 445,-0.0007535704\C,0,1.4811848554,3.7906332761,-0.0005992296\C,0,1.06
 68311443,2.4327090545,-0.0004309588\C,0,2.0456624801,1.4042858131,-0.0
 004204327\C,0,3.4187970625,1.7758191249,-0.000584858\C,0,3.7864257471,
 3.0910322535,-0.0007473797\C,0,-0.2979872334,2.0961589661,-0.000291891
 \C,0,1.6245993769,0.0443922175,-0.0002561412\C,0,0.2696265592,-0.25177
 73326,-0.0001221438\C,0,-0.7126364504,0.7878853703,-0.0001506976\C,0,-
 2.1289868042,0.4193388266,-0.0000517431\C,0,-2.4686253279,-0.930676132
 4,-0.0000612505\C,0,-0.1746358476,-1.666628107,0.000076514\H,0,-1.0143
 616474,2.9067396568,-0.0003187777\H,0,3.1162766399,5.1497189484,-0.000
 8837999\H,0,0.7204926446,4.5622729518,-0.0006053959\H,0,4.1784667217,1
 .0059111454,-0.0005844551\H,0,4.8355156459,3.3580821343,-0.000876004\C
 ,0,2.6917443464,-0.9972698433,-0.0002441863\C,0,3.2203453038,-1.457017
 195,-1.2020209152\C,0,3.2206354305,-1.4566933017,1.2015295255\C,0,4.25
 19998606,-2.38650898,-1.2018472462\H,0,2.8182937944,-1.0892745042,-2.1
 38926721\C,0,4.2522866333,-2.3861867133,1.2013572605\H,0,2.8188094179,
 -1.088699349,2.1384334192\C,0,4.768365043,-2.8563309782,-0.0002443841\
 H,0,4.6540245413,-2.7428848256,-2.1422344264\H,0,4.6545344333,-2.74231
 49495,2.1417427544\H,0,5.5734791311,-3.5804251284,-0.0002431958\O,0,0.
 5362404428,-2.6333545263,0.000066301\O,0,-1.5117515665,-1.9083722276,-
 0.000107837\C,0,-3.188778375,1.3289818046,0.0000215964\C,0,-3.77587316
 49,-1.3762916378,-0.0000148512\C,0,-4.8084713757,-0.4456775213,0.00006
 04859\C,0,-4.509675269,0.9204158592,0.0000809854\H,0,-5.2947982894,1.6
 619801995,0.0001406672\H,0,-2.987467598,2.3914562432,0.0000360079\H,0,
 -3.9915320998,-2.4364890962,-0.0000229339\O,0,-6.0595196353,-0.9469511
 848,0.0001102252\C,0,-7.1446703979,-0.0299227329,0.0002614171\H,0,-7.1
 267661008,0.5986638461,-0.8927124416\H,0,-8.0474865548,-0.6352528546,0
 .0003204818\H,0,-7.12658953,0.5985762854,0.8932932265\\Version=ES64L-G
 09RevE.01\State=1-A\HF=-1149.8847333\RMSD=6.813e-09\PG=C01 [X(C24H16O3
 )]\\@


 THE PROBLEM WITH THE LADDER OF SUCCESS IS YOU CAN'T
 CLIMB IT WHILE YOU'RE TWIDDLING YOUR THUMBS.
 Job cpu time:       1 days 17 hours 17 minutes 50.0 seconds.
 File lengths (MBytes):  RWF=   4329 Int=      0 D2E=      0 Chk=    780 Scr=      1
 Normal termination of Gaussian 09 at Tue Feb 23 11:54:14 2021.
