
                                 *****************
                                 * O   R   C   A *
                                 *****************

                                            #,                                       
                                            ###                                      
                                            ####                                     
                                            #####                                    
                                            ######                                   
                                           ########,                                 
                                     ,,################,,,,,                         
                               ,,#################################,,                 
                          ,,##########################################,,             
                       ,#########################################, ''#####,          
                    ,#############################################,,   '####,        
                  ,##################################################,,,,####,       
                ,###########''''           ''''###############################       
              ,#####''   ,,,,##########,,,,          '''####'''          '####       
            ,##' ,,,,###########################,,,                        '##       
           ' ,,###''''                  '''############,,,                           
         ,,##''                                '''############,,,,        ,,,,,,###''
      ,#''                                            '''#######################'''  
     '                                                          ''''####''''         
             ,#######,   #######,   ,#######,      ##                                
            ,#'     '#,  ##    ##  ,#'     '#,    #''#        ######   ,####,        
            ##       ##  ##   ,#'  ##            #'  '#       #        #'  '#        
            ##       ##  #######   ##           ,######,      #####,   #    #        
            '#,     ,#'  ##    ##  '#,     ,#' ,#      #,         ##   #,  ,#        
             '#######'   ##     ##  '#######'  #'      '#     #####' # '####'        



                  #######################################################
                  #                        -***-                        #
                  #          Department of theory and spectroscopy      #
                  #    Directorship and core code : Frank Neese         #
                  #        Max Planck Institute fuer Kohlenforschung    #
                  #                Kaiser Wilhelm Platz 1               #
                  #                 D-45470 Muelheim/Ruhr               #
                  #                      Germany                        #
                  #                                                     #
                  #                  All rights reserved                #
                  #                        -***-                        #
                  #######################################################


                         Program Version 5.0.2 -  RELEASE  -


 With contributions from (in alphabetic order):
   Daniel Aravena         : Magnetic Suceptibility
   Michael Atanasov       : Ab Initio Ligand Field Theory (pilot matlab implementation)
   Alexander A. Auer      : GIAO ZORA, VPT2 properties, NMR spectrum
   Ute Becker             : Parallelization
   Giovanni Bistoni       : ED, misc. LED, open-shell LED, HFLD
   Martin Brehm           : Molecular dynamics
   Dmytro Bykov           : SCF Hessian
   Vijay G. Chilkuri      : MRCI spin determinant printing, contributions to CSF-ICE
   Dipayan Datta          : RHF DLPNO-CCSD density
   Achintya Kumar Dutta   : EOM-CC, STEOM-CC
   Dmitry Ganyushin       : Spin-Orbit,Spin-Spin,Magnetic field MRCI
   Miquel Garcia          : C-PCM and meta-GGA Hessian, CC/C-PCM, Gaussian charge scheme
   Yang Guo               : DLPNO-NEVPT2, F12-NEVPT2, CIM, IAO-localization
   Andreas Hansen         : Spin unrestricted coupled pair/coupled cluster methods
   Benjamin Helmich-Paris : MC-RPA, TRAH-SCF, COSX integrals
   Lee Huntington         : MR-EOM, pCC
   Robert Izsak           : Overlap fitted RIJCOSX, COSX-SCS-MP3, EOM
   Marcus Kettner         : VPT2
   Christian Kollmar      : KDIIS, OOCD, Brueckner-CCSD(T), CCSD density, CASPT2, CASPT2-K
   Simone Kossmann        : Meta GGA functionals, TD-DFT gradient, OOMP2, MP2 Hessian
   Martin Krupicka        : Initial AUTO-CI
   Lucas Lang             : DCDCAS
   Marvin Lechner         : AUTO-CI (C++ implementation), FIC-MRCC
   Dagmar Lenk            : GEPOL surface, SMD
   Dimitrios Liakos       : Extrapolation schemes; Compound Job, initial MDCI parallelization
   Dimitrios Manganas     : Further ROCIS development; embedding schemes
   Dimitrios Pantazis     : SARC Basis sets
   Anastasios Papadopoulos: AUTO-CI, single reference methods and gradients
   Taras Petrenko         : DFT Hessian,TD-DFT gradient, ASA, ECA, R-Raman, ABS, FL, XAS/XES, NRVS
   Peter Pinski           : DLPNO-MP2, DLPNO-MP2 Gradient
   Christoph Reimann      : Effective Core Potentials
   Marius Retegan         : Local ZFS, SOC
   Christoph Riplinger    : Optimizer, TS searches, QM/MM, DLPNO-CCSD(T), (RO)-DLPNO pert. Triples
   Tobias Risthaus        : Range-separated hybrids, TD-DFT gradient, RPA, STAB
   Michael Roemelt        : Original ROCIS implementation
   Masaaki Saitow         : Open-shell DLPNO-CCSD energy and density
   Barbara Sandhoefer     : DKH picture change effects
   Avijit Sen             : IP-ROCIS
   Kantharuban Sivalingam : CASSCF convergence, NEVPT2, FIC-MRCI
   Bernardo de Souza      : ESD, SOC TD-DFT
   Georgi Stoychev        : AutoAux, RI-MP2 NMR, DLPNO-MP2 response
   Willem Van den Heuvel  : Paramagnetic NMR
   Boris Wezisla          : Elementary symmetry handling
   Frank Wennmohs         : Technical directorship


 We gratefully acknowledge several colleagues who have allowed us to
 interface, adapt or use parts of their codes:
   Stefan Grimme, W. Hujo, H. Kruse, P. Pracht,  : VdW corrections, initial TS optimization,
                  C. Bannwarth, S. Ehlert          DFT functionals, gCP, sTDA/sTD-DF
   Ed Valeev, F. Pavosevic, A. Kumar             : LibInt (2-el integral package), F12 methods
   Garnet Chan, S. Sharma, J. Yang, R. Olivares  : DMRG
   Ulf Ekstrom                                   : XCFun DFT Library
   Mihaly Kallay                                 : mrcc  (arbitrary order and MRCC methods)
   Jiri Pittner, Ondrej Demel                    : Mk-CCSD
   Frank Weinhold                                : gennbo (NPA and NBO analysis)
   Christopher J. Cramer and Donald G. Truhlar   : smd solvation model
   Lars Goerigk                                  : TD-DFT with DH, B97 family of functionals
   V. Asgeirsson, H. Jonsson                     : NEB implementation
   FAccTs GmbH                                   : IRC, NEB, NEB-TS, DLPNO-Multilevel, CI-OPT
                                                   MM, QMMM, 2- and 3-layer-ONIOM, Crystal-QMMM,
                                                   LR-CPCM, SF, NACMEs, symmetry and pop. for TD-DFT,
                                                   nearIR, NL-DFT gradient (VV10), updates on ESD,
                                                   ML-optimized integration grids
   S Lehtola, MJT Oliveira, MAL Marques          : LibXC Library
   Liviu Ungur et al                             : ANISO software


 Your calculation uses the libint2 library for the computation of 2-el integrals
 For citations please refer to: http://libint.valeyev.net

 Your ORCA version has been built with support for libXC version: 5.1.0
 For citations please refer to: https://tddft.org/programs/libxc/

 This ORCA versions uses:
   CBLAS   interface :  Fast vector & matrix operations
   LAPACKE interface :  Fast linear algebra routines
   SCALAPACK package :  Parallel linear algebra routines
   Shared memory     :  Shared parallel matrices
   BLAS/LAPACK       :  OpenBLAS 0.3.15  USE64BITINT DYNAMIC_ARCH NO_AFFINITY Zen SINGLE_THREADED
        Core in use  :  Zen
   Copyright (c) 2011-2014, The OpenBLAS Project


Your calculation utilizes the atom-pairwise dispersion correction
with the Becke-Johnson damping scheme (D3BJ)
Cite in your paper:
S.Grimme, S.Ehrlich, L.Goerigk, J Comput Chem, (2011), 32, 1456–1465 
S.Grimme, J.Antony, S.Ehrlich and H.Krieg, J.Chem.Phys., 132, (2010), 154104 
   

Your calculation utilizes the SMD solvation module
Please cite in your paper:
A.V. Marenich, C.J. Cramer, D.G. Truhlar J. Phys. Chem. B, 113, (2009), 6378 

================================================================================

----- Orbital basis set information -----
Your calculation utilizes the basis: def2-TZVP
   F. Weigend and R. Ahlrichs, Phys. Chem. Chem. Phys. 7, 3297 (2005).

----- AuxJ basis set information -----
Your calculation utilizes the auxiliary basis: def2/J
   F. Weigend, Phys. Chem. Chem. Phys. 8, 1057 (2006).

----- AuxC basis set information -----
Your calculation utilizes the auxiliary basis: def2-TZVP/C
  H-La, Hf-Rn : A. Hellweg, C. Hattig, S. Hofener and W. Klopper, Theor. Chem. Acc. 117, 587 (2007).
        Ce-Lu : J. Chmela and M. E. Harding, Mol. Phys. (2018).

================================================================================
                                        WARNINGS
                       Please study these warnings very carefully!
================================================================================

INFO   : Checking CIS options ...
  ===> : (D) CORRECTION FOUND - SETTING MODE=3
  ===> : JK MODE FOUND - ACTIVATING RI-MP2 CODE
  ===> : MP2 AND CIS FOUND - CHECKING
WARNING: CIS(D) and MP2 runs must have the same orbital window
  ===> : adjusting orbital windows

WARNING: No MP2 level density has been requested!
         To caclulate MP2 level properties use
         %mp2 Density relaxed end
         or
         %mp2 Density unrelaxed end
         Otherwise for double-hybrid DFT only the energy is correct!

WARNING: The frozen-core approximation is turned on by default for 
         the MP2 part of double-hybrid DFT.

WARNING: CIS/ROCIS methods need fully converged wavefunctions
  ===> : Setting SCFConvForced true
         You can overwrite this default with %scf ConvForced false 


INFO   : the flag for use of the SHARK integral package has been found!

================================================================================
                                       INPUT FILE
================================================================================
NAME = NCE_2_M06L_def2TZVP_coords.inp
|  1> %maxcore 3200
|  2> %pal
|  3>  nprocs= 8
|  4> end
|  5> ! RI-B2PLYP D3BJ def2-TZVP def2/J def2-TZVP/C RIJCOSX CPCM TightSCF
|  6> %TDDFT DCORR 4
|  7>    NROOTS   30
|  8> 
|  9>    TDA      FALSE
| 10> END
| 11> 
| 12> %CPCM
| 13>    SMD          TRUE
| 14>    SMDsolvent   "ACETONITRILE"
| 15> END
| 16>    
| 17> 
| 18> * xyz 0 1
| 19> C                  -2.79293800    4.12055100    0.00048800
| 20> C                  -1.46622100    3.79291700    0.00034500
| 21> C                  -1.05286200    2.44017500    0.00020200
| 22> C                  -2.04168300    1.41007400    0.00019500
| 23> C                  -3.40652800    1.78994200    0.00035800
| 24> C                  -3.77190700    3.10832400    0.00049900
| 25> C                   0.30285200    2.09382800    0.00008900
| 26> C                  -1.62929500    0.05246500    0.00004900
| 27> C                  -0.26938100   -0.25631800   -0.00007400
| 28> C                   0.71709800    0.78004900   -0.00003500
| 29> C                   2.11986200    0.41216600   -0.00011900
| 30> C                   2.46183500   -0.94127600   -0.00017400
| 31> C                   0.15746000   -1.66057700   -0.00032100
| 32> H                   1.02838400    2.89659300    0.00011500
| 33> H                  -3.09646100    5.15987500    0.00060100
| 34> H                  -0.70465800    4.56360300    0.00034600
| 35> H                  -4.16865700    1.02183200    0.00037600
| 36> H                  -4.82047400    3.37711400    0.00062600
| 37> C                  -2.69458300   -0.98341100    0.00007100
| 38> C                  -3.22739400   -1.44695400    1.19996100
| 39> C                  -3.22796800   -1.44642400   -1.19977000
| 40> C                  -4.25500700   -2.37793300    1.19964400
| 41> H                  -2.82614200   -1.08022700    2.13758000
| 42> C                  -4.25557000   -2.37741500   -1.19937300
| 43> H                  -2.82717400   -1.07927300   -2.13741900
| 44> C                  -4.77009800   -2.84971300    0.00015400
| 45> H                  -4.65586800   -2.73442000    2.14055200
| 46> H                  -4.65686900   -2.73350100   -2.14024600
| 47> H                  -5.57268300   -3.57650600    0.00018600
| 48> O                  -0.55376000   -2.63420400   -0.00045200
| 49> O                   1.50506500   -1.91615600   -0.00020200
| 50> C                   3.18326000    1.32007500   -0.00012700
| 51> C                   3.76940100   -1.38466800   -0.00022200
| 52> C                   4.80184500   -0.45358900   -0.00023000
| 53> C                   4.50132600    0.91224300   -0.00018400
| 54> H                   5.28952700    1.65075600   -0.00019000
| 55> H                   2.97751300    2.38210700   -0.00008700
| 56> H                   3.98545000   -2.44422900   -0.00026600
| 57> O                   6.05250400   -0.95690400   -0.00028400
| 58> C                   7.13492200   -0.03735000   -0.00035300
| 59> H                   7.12357600    0.59473400    0.89029100
| 60> H                   8.04005000   -0.63818000   -0.00042600
| 61> H                   7.12344400    0.59475500   -0.89098000
| 62> *
| 63> 
| 64> 
| 65>                          ****END OF INPUT****
================================================================================

                       ****************************
                       * Single Point Calculation *
                       ****************************

---------------------------------
CARTESIAN COORDINATES (ANGSTROEM)
---------------------------------
  C     -2.792938    4.120551    0.000488
  C     -1.466221    3.792917    0.000345
  C     -1.052862    2.440175    0.000202
  C     -2.041683    1.410074    0.000195
  C     -3.406528    1.789942    0.000358
  C     -3.771907    3.108324    0.000499
  C      0.302852    2.093828    0.000089
  C     -1.629295    0.052465    0.000049
  C     -0.269381   -0.256318   -0.000074
  C      0.717098    0.780049   -0.000035
  C      2.119862    0.412166   -0.000119
  C      2.461835   -0.941276   -0.000174
  C      0.157460   -1.660577   -0.000321
  H      1.028384    2.896593    0.000115
  H     -3.096461    5.159875    0.000601
  H     -0.704658    4.563603    0.000346
  H     -4.168657    1.021832    0.000376
  H     -4.820474    3.377114    0.000626
  C     -2.694583   -0.983411    0.000071
  C     -3.227394   -1.446954    1.199961
  C     -3.227968   -1.446424   -1.199770
  C     -4.255007   -2.377933    1.199644
  H     -2.826142   -1.080227    2.137580
  C     -4.255570   -2.377415   -1.199373
  H     -2.827174   -1.079273   -2.137419
  C     -4.770098   -2.849713    0.000154
  H     -4.655868   -2.734420    2.140552
  H     -4.656869   -2.733501   -2.140246
  H     -5.572683   -3.576506    0.000186
  O     -0.553760   -2.634204   -0.000452
  O      1.505065   -1.916156   -0.000202
  C      3.183260    1.320075   -0.000127
  C      3.769401   -1.384668   -0.000222
  C      4.801845   -0.453589   -0.000230
  C      4.501326    0.912243   -0.000184
  H      5.289527    1.650756   -0.000190
  H      2.977513    2.382107   -0.000087
  H      3.985450   -2.444229   -0.000266
  O      6.052504   -0.956904   -0.000284
  C      7.134922   -0.037350   -0.000353
  H      7.123576    0.594734    0.890291
  H      8.040050   -0.638180   -0.000426
  H      7.123444    0.594755   -0.890980

----------------------------
CARTESIAN COORDINATES (A.U.)
----------------------------
  NO LB      ZA    FRAG     MASS         X           Y           Z
   0 C     6.0000    0    12.011   -5.277888    7.786713    0.000922
   1 C     6.0000    0    12.011   -2.770756    7.167574    0.000652
   2 C     6.0000    0    12.011   -1.989621    4.611262    0.000382
   3 C     6.0000    0    12.011   -3.858222    2.664654    0.000368
   4 C     6.0000    0    12.011   -6.437405    3.382500    0.000677
   5 C     6.0000    0    12.011   -7.127871    5.873881    0.000943
   6 C     6.0000    0    12.011    0.572307    3.956761    0.000168
   7 C     6.0000    0    12.011   -3.078921    0.099144    0.000093
   8 C     6.0000    0    12.011   -0.509056   -0.484371   -0.000140
   9 C     6.0000    0    12.011    1.355119    1.474079   -0.000066
  10 C     6.0000    0    12.011    4.005959    0.778881   -0.000225
  11 C     6.0000    0    12.011    4.652194   -1.778754   -0.000329
  12 C     6.0000    0    12.011    0.297556   -3.138036   -0.000607
  13 H     1.0000    0     1.008    1.943364    5.473767    0.000217
  14 H     1.0000    0     1.008   -5.851463    9.750751    0.001136
  15 H     1.0000    0     1.008   -1.331611    8.623960    0.000654
  16 H     1.0000    0     1.008   -7.877620    1.930983    0.000711
  17 H     1.0000    0     1.008   -9.109376    6.381821    0.001183
  18 C     6.0000    0    12.011   -5.092024   -1.858377    0.000134
  19 C     6.0000    0    12.011   -6.098891   -2.734347    2.267598
  20 C     6.0000    0    12.011   -6.099975   -2.733345   -2.267237
  21 C     6.0000    0    12.011   -8.040798   -4.493642    2.266999
  22 H     1.0000    0     1.008   -5.340634   -2.041333    4.039441
  23 C     6.0000    0    12.011   -8.041862   -4.492663   -2.266487
  24 H     1.0000    0     1.008   -5.342585   -2.039530   -4.039137
  25 C     6.0000    0    12.011   -9.014179   -5.385177    0.000291
  26 H     1.0000    0     1.008   -8.798315   -5.167305    4.045057
  27 H     1.0000    0     1.008   -8.800207   -5.165568   -4.044479
  28 H     1.0000    0     1.008  -10.530845   -6.758617    0.000351
  29 O     8.0000    0    15.999   -1.046455   -4.977924   -0.000854
  30 O     8.0000    0    15.999    2.844161   -3.621010   -0.000382
  31 C     6.0000    0    12.011    6.015490    2.494580   -0.000240
  32 C     6.0000    0    12.011    7.123136   -2.616643   -0.000420
  33 C     6.0000    0    12.011    9.074172   -0.857159   -0.000435
  34 C     6.0000    0    12.011    8.506273    1.723889   -0.000348
  35 H     1.0000    0     1.008    9.995757    3.119477   -0.000359
  36 H     1.0000    0     1.008    5.626684    4.501530   -0.000164
  37 H     1.0000    0     1.008    7.531409   -4.618923   -0.000503
  38 O     8.0000    0    15.999   11.437575   -1.808286   -0.000537
  39 C     6.0000    0    12.011   13.483049   -0.070581   -0.000667
  40 H     1.0000    0     1.008   13.461608    1.123884    1.682406
  41 H     1.0000    0     1.008   15.193493   -1.205985   -0.000805
  42 H     1.0000    0     1.008   13.461358    1.123924   -1.683708

--------------------------------
INTERNAL COORDINATES (ANGSTROEM)
--------------------------------
 C      0   0   0     0.000000000000     0.00000000     0.00000000
 C      1   0   0     1.366573106897     0.00000000     0.00000000
 C      2   1   0     1.414488105957   120.86334715     0.00000000
 C      3   2   1     1.427891816732   119.17969472     0.00000000
 C      4   3   2     1.416722131548   118.27554400     0.00000000
 C      5   4   3     1.368076361701   121.04340454     0.00000000
 C      3   2   1     1.399255768962   121.32258626   180.00163140
 C      4   3   2     1.418860839103   119.27462801   179.99987604
 C      8   4   3     1.394529685455   119.68942320     0.00000000
 C      7   3   2     1.377539482096   121.83146153   179.99923321
 C     10   7   3     1.450201623376   122.19573234   180.00156995
 C     11  10   7     1.395976641322   118.87530004   179.99674262
 C      9   8   4     1.467697734335   119.69997810   180.00431275
 H      7   3   2     1.082048210074   117.77605670     0.00000000
 H      1   2   3     1.082737549582   120.15156007   179.99973230
 H      2   1   3     1.083482862608   120.78716160   180.00046883
 H      5   4   3     1.082050638864   119.22294056   180.00126924
 H      6   5   4     1.082469784206   119.86792155   180.00022076
 C      8   4   3     1.485892866530   117.30131840   179.99898524
 C     19   8   4     1.392298705979   120.42924291   271.87415868
 C     19   8   4     1.392299903640   120.42952446    88.10272996
 C     20  19   8     1.386618360148   120.46022552   177.65406527
 H     20  19   8     1.083799450634   119.42153874   357.12498540
 C     21  19   8     1.386618285648   120.46020344   182.34517649
 H     21  19   8     1.083799489960   119.42160007     2.87419822
 C     24  21  19     1.388045203629   120.22599169     0.49807671
 H     22  20  19     1.083088356024   119.67447788   179.62328375
 H     24  21  19     1.083088236907   119.67454346   180.37788153
 H     26  24  21     1.082760706757   120.21122995   179.98480865
 O     13   9   8     1.205729422669   126.94516459     0.00000000
 O     12  11  10     1.365942842173   121.35706906     0.00000000
 C     11  10   7     1.398253932141   124.81471644     0.00000000
 C     12  11  10     1.380697400709   122.91174140   180.00163340
 C     33  12  11     1.390269296734   119.22356148     0.00000000
 C     32  11  10     1.379719146721   122.31697483   179.99877918
 H     35  32  11     1.080121413363   119.67111891   179.99987278
 H     32  11  10     1.081778072727   119.52600151     0.00000000
 H     33  12  11     1.081363345531   120.25651895   180.00013730
 O     34  33  12     1.348137206082   116.03339800   180.00029516
 C     39  34  33     1.420284580780   117.72905367   179.99730763
 H     40  39  34     1.092202201750   111.51437890    61.22756752
 H     40  39  34     1.086394675343   106.07440018   180.00207498
 H     40  39  34     1.092201871743   111.51435949   298.77670615

---------------------------
INTERNAL COORDINATES (A.U.)
---------------------------
 C      0   0   0     0.000000000000     0.00000000     0.00000000
 C      1   0   0     2.582448914017     0.00000000     0.00000000
 C      2   1   0     2.672995139948   120.86334715     0.00000000
 C      3   2   1     2.698324482491   119.17969472     0.00000000
 C      4   3   2     2.677216836491   118.27554400     0.00000000
 C      5   4   3     2.585289653907   121.04340454     0.00000000
 C      3   2   1     2.644210194648   121.32258626   180.00163140
 C      4   3   2     2.681258408051   119.27462801   179.99987604
 C      8   4   3     2.635279191132   119.68942320     0.00000000
 C      7   3   2     2.603172359825   121.83146153   179.99923321
 C     10   7   3     2.740483907148   122.19573234   180.00156995
 C     11  10   7     2.638013541451   118.87530004   179.99674262
 C      9   8   4     2.773546765269   119.69997810   180.00431275
 H      7   3   2     2.044774780740   117.77605670     0.00000000
 H      1   2   3     2.046077443622   120.15156007   179.99973230
 H      2   1   3     2.047485881127   120.78716160   180.00046883
 H      5   4   3     2.044779370487   119.22294056   180.00126924
 H      6   5   4     2.045571440393   119.86792155   180.00022076
 C      8   4   3     2.807930582088   117.30131840   179.99898524
 C     19   8   4     2.631063250913   120.42924291   271.87415868
 C     19   8   4     2.631065514164   120.42952446    88.10272996
 C     20  19   8     2.620328952946   120.46022552   177.65406527
 H     20  19   8     2.048084145792   119.42153874   357.12498540
 C     21  19   8     2.620328812163   120.46020344   182.34517649
 H     21  19   8     2.048084220108   119.42160007     2.87419822
 C     24  21  19     2.623025296361   120.22599169     0.49807671
 H     22  20  19     2.046740371724   119.67447788   179.62328375
 H     24  21  19     2.046740146626   119.67454346   180.37788153
 H     26  24  21     2.046121204343   120.21122995   179.98480865
 O     13   9   8     2.278498400456   126.94516459     0.00000000
 O     12  11  10     2.581257886297   121.35706906     0.00000000
 C     11  10   7     2.642316997426   124.81471644     0.00000000
 C     12  11  10     2.609139961157   122.91174140   180.00163340
 C     33  12  11     2.627228223226   119.22356148     0.00000000
 C     32  11  10     2.607291329031   122.31697483   179.99877918
 H     35  32  11     2.041133662641   119.67111891   179.99987278
 H     32  11  10     2.044264295135   119.52600151     0.00000000
 H     33  12  11     2.043480574314   120.25651895   180.00013730
 O     34  33  12     2.547610110444   116.03339800   180.00029516
 C     39  34  33     2.683948889905   117.72905367   179.99730763
 H     40  39  34     2.063963044174   111.51437890    61.22756752
 H     40  39  34     2.052988409748   106.07440018   180.00207498
 H     40  39  34     2.063962420550   111.51435949   298.77670615

---------------------
BASIS SET INFORMATION
---------------------
There are 3 groups of distinct atoms

 Group   1 Type C   : 11s6p2d1f contracted to 5s3p2d1f pattern {62111/411/11/1}
 Group   2 Type H   : 5s1p contracted to 3s1p pattern {311/1}
 Group   3 Type O   : 11s6p2d1f contracted to 5s3p2d1f pattern {62111/411/11/1}

Atom   0C    basis set group =>   1
Atom   1C    basis set group =>   1
Atom   2C    basis set group =>   1
Atom   3C    basis set group =>   1
Atom   4C    basis set group =>   1
Atom   5C    basis set group =>   1
Atom   6C    basis set group =>   1
Atom   7C    basis set group =>   1
Atom   8C    basis set group =>   1
Atom   9C    basis set group =>   1
Atom  10C    basis set group =>   1
Atom  11C    basis set group =>   1
Atom  12C    basis set group =>   1
Atom  13H    basis set group =>   2
Atom  14H    basis set group =>   2
Atom  15H    basis set group =>   2
Atom  16H    basis set group =>   2
Atom  17H    basis set group =>   2
Atom  18C    basis set group =>   1
Atom  19C    basis set group =>   1
Atom  20C    basis set group =>   1
Atom  21C    basis set group =>   1
Atom  22H    basis set group =>   2
Atom  23C    basis set group =>   1
Atom  24H    basis set group =>   2
Atom  25C    basis set group =>   1
Atom  26H    basis set group =>   2
Atom  27H    basis set group =>   2
Atom  28H    basis set group =>   2
Atom  29O    basis set group =>   3
Atom  30O    basis set group =>   3
Atom  31C    basis set group =>   1
Atom  32C    basis set group =>   1
Atom  33C    basis set group =>   1
Atom  34C    basis set group =>   1
Atom  35H    basis set group =>   2
Atom  36H    basis set group =>   2
Atom  37H    basis set group =>   2
Atom  38O    basis set group =>   3
Atom  39C    basis set group =>   1
Atom  40H    basis set group =>   2
Atom  41H    basis set group =>   2
Atom  42H    basis set group =>   2
---------------------------------
AUXILIARY/J BASIS SET INFORMATION
---------------------------------
There are 3 groups of distinct atoms

 Group   1 Type C   : 12s5p4d2f1g contracted to 6s4p3d1f1g pattern {711111/2111/211/2/1}
 Group   2 Type H   : 5s2p1d contracted to 3s1p1d pattern {311/2/1}
 Group   3 Type O   : 12s5p4d2f1g contracted to 6s4p3d1f1g pattern {711111/2111/211/2/1}

Atom   0C    basis set group =>   1
Atom   1C    basis set group =>   1
Atom   2C    basis set group =>   1
Atom   3C    basis set group =>   1
Atom   4C    basis set group =>   1
Atom   5C    basis set group =>   1
Atom   6C    basis set group =>   1
Atom   7C    basis set group =>   1
Atom   8C    basis set group =>   1
Atom   9C    basis set group =>   1
Atom  10C    basis set group =>   1
Atom  11C    basis set group =>   1
Atom  12C    basis set group =>   1
Atom  13H    basis set group =>   2
Atom  14H    basis set group =>   2
Atom  15H    basis set group =>   2
Atom  16H    basis set group =>   2
Atom  17H    basis set group =>   2
Atom  18C    basis set group =>   1
Atom  19C    basis set group =>   1
Atom  20C    basis set group =>   1
Atom  21C    basis set group =>   1
Atom  22H    basis set group =>   2
Atom  23C    basis set group =>   1
Atom  24H    basis set group =>   2
Atom  25C    basis set group =>   1
Atom  26H    basis set group =>   2
Atom  27H    basis set group =>   2
Atom  28H    basis set group =>   2
Atom  29O    basis set group =>   3
Atom  30O    basis set group =>   3
Atom  31C    basis set group =>   1
Atom  32C    basis set group =>   1
Atom  33C    basis set group =>   1
Atom  34C    basis set group =>   1
Atom  35H    basis set group =>   2
Atom  36H    basis set group =>   2
Atom  37H    basis set group =>   2
Atom  38O    basis set group =>   3
Atom  39C    basis set group =>   1
Atom  40H    basis set group =>   2
Atom  41H    basis set group =>   2
Atom  42H    basis set group =>   2
---------------------------------
AUXILIARY/C BASIS SET INFORMATION
---------------------------------
There are 3 groups of distinct atoms

 Group   1 Type C   : 8s6p5d3f1g contracted to 8s6p4d3f1g pattern {11111111/111111/2111/111/1}
 Group   2 Type H   : 4s3p2d contracted to 4s2p1d pattern {1111/21/2}
 Group   3 Type O   : 8s6p5d3f1g contracted to 8s6p4d3f1g pattern {11111111/111111/2111/111/1}

Atom   0C    basis set group =>   1
Atom   1C    basis set group =>   1
Atom   2C    basis set group =>   1
Atom   3C    basis set group =>   1
Atom   4C    basis set group =>   1
Atom   5C    basis set group =>   1
Atom   6C    basis set group =>   1
Atom   7C    basis set group =>   1
Atom   8C    basis set group =>   1
Atom   9C    basis set group =>   1
Atom  10C    basis set group =>   1
Atom  11C    basis set group =>   1
Atom  12C    basis set group =>   1
Atom  13H    basis set group =>   2
Atom  14H    basis set group =>   2
Atom  15H    basis set group =>   2
Atom  16H    basis set group =>   2
Atom  17H    basis set group =>   2
Atom  18C    basis set group =>   1
Atom  19C    basis set group =>   1
Atom  20C    basis set group =>   1
Atom  21C    basis set group =>   1
Atom  22H    basis set group =>   2
Atom  23C    basis set group =>   1
Atom  24H    basis set group =>   2
Atom  25C    basis set group =>   1
Atom  26H    basis set group =>   2
Atom  27H    basis set group =>   2
Atom  28H    basis set group =>   2
Atom  29O    basis set group =>   3
Atom  30O    basis set group =>   3
Atom  31C    basis set group =>   1
Atom  32C    basis set group =>   1
Atom  33C    basis set group =>   1
Atom  34C    basis set group =>   1
Atom  35H    basis set group =>   2
Atom  36H    basis set group =>   2
Atom  37H    basis set group =>   2
Atom  38O    basis set group =>   3
Atom  39C    basis set group =>   1
Atom  40H    basis set group =>   2
Atom  41H    basis set group =>   2
Atom  42H    basis set group =>   2


           ************************************************************
           *        Program running with 8 parallel MPI-processes     *
           *              working on a common directory               *
           ************************************************************
------------------------------------------------------------------------------
                           ORCA GTO INTEGRAL CALCULATION
                           -- RI-GTO INTEGRALS CHOSEN --
------------------------------------------------------------------------------
------------------------------------------------------------------------------
                   ___                                                        
                  /   \      - P O W E R E D   B Y -                         
                 /     \                                                     
                 |  |  |   _    _      __       _____    __    __             
                 |  |  |  | |  | |    /  \     |  _  \  |  |  /  |          
                  \  \/   | |  | |   /    \    | | | |  |  | /  /          
                 / \  \   | |__| |  /  /\  \   | |_| |  |  |/  /          
                |  |  |   |  __  | /  /__\  \  |    /   |      \           
                |  |  |   | |  | | |   __   |  |    \   |  |\   \          
                \     /   | |  | | |  |  |  |  | |\  \  |  | \   \       
                 \___/    |_|  |_| |__|  |__|  |_| \__\ |__|  \__/        
                                                                              
                      - O R C A' S   B I G   F R I E N D -                    
                                      &                                       
                       - I N T E G R A L  F E E D E R -                       
                                                                              
 v1 FN, 2020, v2 2021                                                         
------------------------------------------------------------------------------


Reading SHARK input file NCE_2_M06L_def2TZVP_coords.SHARKINP.tmp ... ok
----------------------
SHARK INTEGRAL PACKAGE
----------------------

Number of atoms                             ...     43
Number of basis functions                   ...    933
Number of shells                            ...    361
Maximum angular momentum                    ...      3
Integral batch strategy                     ... SHARK/LIBINT Hybrid
RI-J (if used) integral strategy            ... SPLIT-RIJ (Revised 2003 algorithm where possible)
Printlevel                                  ...      1
Contraction scheme used                     ... SEGMENTED contraction
Coulomb Range Separation                    ... NOT USED
Exchange Range Separation                   ... NOT USED
Finite Nucleus Model                        ... NOT USED
Auxiliary Coulomb fitting basis             ... AVAILABLE
   # of basis functions in Aux-J            ...   1499
   # of shells in Aux-J                     ...    485
   Maximum angular momentum in Aux-J        ...      4
Auxiliary J/K fitting basis                 ... NOT available
Auxiliary Correlation fitting basis         ... AVAILABLE
   # of basis functions in Aux-C            ...   2292
   # of shells in Aux-C                     ...    706
   Maximum angular momentum in Aux-C        ...      4
Auxiliary 'external' fitting basis          ... NOT available
Integral threshold                          ...     2.500000e-11
Primitive cut-off                           ...     2.500000e-12
Primitive pair pre-selection threshold      ...     2.500000e-12

Calculating pre-screening integrals         ... done (  0.1 sec) Dimension = 361
Organizing shell pair data                  ... done ( 13.6 sec)
Shell pair information
Total number of shell pairs                 ...     65341
Shell pairs after pre-screening             ...     42268
Total number of primitive shell pairs       ...    203208
Primitive shell pairs kept                  ...     86334
          la=0 lb=0:  10191 shell pairs
          la=1 lb=0:  12070 shell pairs
          la=1 lb=1:   3547 shell pairs
          la=2 lb=0:   6114 shell pairs
          la=2 lb=1:   3668 shell pairs
          la=2 lb=2:    956 shell pairs
          la=3 lb=0:   2878 shell pairs
          la=3 lb=1:   1749 shell pairs
          la=3 lb=2:    872 shell pairs
          la=3 lb=3:    223 shell pairs

Calculating one electron integrals          ... done (  0.1 sec)
Calculating RI/J V-Matrix + Cholesky decomp.... done (  0.2 sec)
Calculating RI/C V-Matrix + Cholesky decomp.... done (  0.2 sec)
Calculating Nuclear repulsion               ... done (  0.0 sec) ENN=   2255.519740715050 Eh

SHARK setup successfully completed in  14.6 seconds

Maximum memory used throughout the entire GTOINT-calculation: 70.8 MB


           ************************************************************
           *        Program running with 8 parallel MPI-processes     *
           *              working on a common directory               *
           ************************************************************
-------------------------------------------------------------------------------
                                 ORCA SCF
-------------------------------------------------------------------------------

------------
SCF SETTINGS
------------
Hamiltonian:
 Density Functional     Method          .... DFT(GTOs)
 Exchange Functional    Exchange        .... B88
   X-Alpha parameter    XAlpha          ....  0.666667
   Becke's b parameter  XBeta           ....  0.004200
 Correlation Functional Correlation     .... LYP
 LDA part of GGA corr.  LDAOpt          .... VWN-3
 Gradients option       PostSCFGGA      .... off
 Hybrid DFT is turned on
   Fraction HF Exchange ScalHFX         ....  0.530000
   Scaling of DF-GGA-X  ScalDFX         ....  0.470000
   Scaling of DF-GGA-C  ScalDFC         ....  0.730000
   Scaling of DF-LDA-C  ScalLDAC        ....  0.730000
   Perturbative correction              ....  0.270000
   Density functional embedding theory  .... OFF
   NL short-range parameter             ....  7.800000
 RI-approximation to the Coulomb term is turned on
   Number of AuxJ basis functions       .... 1499
   RIJ-COSX (HFX calculated with COS-X)).... on


General Settings:
 Integral files         IntName         .... NCE_2_M06L_def2TZVP_coords
 Hartree-Fock type      HFTyp           .... RHF
 Total Charge           Charge          ....    0
 Multiplicity           Mult            ....    1
 Number of Electrons    NEL             ....  184
 Basis Dimension        Dim             ....  933
 Nuclear Repulsion      ENuc            ....   2255.5197407151 Eh

Convergence Acceleration:
 DIIS                   CNVDIIS         .... on
   Start iteration      DIISMaxIt       ....    12
   Startup error        DIISStart       ....  0.200000
   # of expansion vecs  DIISMaxEq       ....     5
   Bias factor          DIISBfac        ....   1.050
   Max. coefficient     DIISMaxC        ....  10.000
 Trust-Rad. Augm. Hess. CNVTRAH         .... auto
   Auto Start mean grad. ratio tolernc. ....  1.125000
   Auto Start start iteration           ....    20
   Auto Start num. interpolation iter.  ....    10
   Max. Number of Micro iterations      ....    16
   Max. Number of Macro iterations      .... Maxiter - #DIIS iter
   Number of Davidson start vectors     ....     2
   Converg. threshold I  (grad. norm)   ....   1.000e-05
   Converg. threshold II (energy diff.) ....   1.000e-08
   Grad. Scal. Fac. for Micro threshold ....   0.100
   Minimum threshold for Micro iter.    ....   0.010
   NR start threshold (gradient norm)   ....   0.001
   Initial trust radius                 ....   0.400
   Minimum AH scaling param. (alpha)    ....   1.000
   Maximum AH scaling param. (alpha)    .... 1000.000
   Orbital update algorithm             .... Taylor
   White noise on init. David. guess    .... on
   Maximum white noise                  ....   0.010
   Quad. conv. algorithm                .... NR
 SOSCF                  CNVSOSCF        .... on
   Start iteration      SOSCFMaxIt      ....   150
   Startup grad/error   SOSCFStart      ....  0.003300
 Level Shifting         CNVShift        .... on
   Level shift para.    LevelShift      ....    0.2500
   Turn off err/grad.   ShiftErr        ....    0.0010
 Zerner damping         CNVZerner       .... off
 Static damping         CNVDamp         .... on
   Fraction old density DampFac         ....    0.7000
   Max. Damping (<1)    DampMax         ....    0.9800
   Min. Damping (>=0)   DampMin         ....    0.0000
   Turn off err/grad.   DampErr         ....    0.1000
 Fernandez-Rico         CNVRico         .... off

SCF Procedure:
 Maximum # iterations   MaxIter         ....   125
 SCF integral mode      SCFMode         .... Direct
   Integral package                     .... SHARK and LIBINT hybrid scheme
 Reset frequency        DirectResetFreq ....    20
 Integral Threshold     Thresh          ....  2.500e-11 Eh
 Primitive CutOff       TCut            ....  2.500e-12 Eh

Convergence Tolerance:
 Convergence Check Mode ConvCheckMode   .... Total+1el-Energy
 Convergence forced     ConvForced      .... 1
 Energy Change          TolE            ....  1.000e-08 Eh
 1-El. energy change                    ....  1.000e-05 Eh
 Orbital Gradient       TolG            ....  1.000e-05
 Orbital Rotation angle TolX            ....  1.000e-05
 DIIS Error             TolErr          ....  5.000e-07


Diagonalization of the overlap matrix:
Smallest eigenvalue                        ... 2.636e-06
Time for diagonalization                   ...    0.162 sec
Threshold for overlap eigenvalues          ... 1.000e-08
Number of eigenvalues below threshold      ... 0
Time for construction of square roots      ...    0.094 sec
Total time needed                          ...    0.259 sec

Time for model grid setup =    0.332 sec

------------------------------
INITIAL GUESS: MODEL POTENTIAL
------------------------------
Loading Hartree-Fock densities                     ... done
Calculating cut-offs                               ... done
Initializing the effective Hamiltonian             ... done
Setting up the integral package (SHARK)            ... done
Starting the Coulomb interaction                   ... done (   0.6 sec)
Reading the grid                                   ... done
Mapping shells                                     ... done
Starting the XC term evaluation                    ... done (   0.3 sec)
  promolecular density results
     # of electrons  =    184.010166230
     EX              =   -152.895846977
     EC              =     -2.122634293
     EX+EC           =   -155.018481271
Transforming the Hamiltonian                       ... done (   0.1 sec)
Diagonalizing the Hamiltonian                      ... done (   0.1 sec)
Back transforming the eigenvectors                 ... done (   0.0 sec)
Now organizing SCF variables                       ... done
                      ------------------
                      INITIAL GUESS DONE (   1.5 sec)
                      ------------------
-------------------
DFT GRID GENERATION
-------------------

General Integration Accuracy     IntAcc      ... 4.388
Radial Grid Type                 RadialGrid  ... OptM3 with GC (2021)
Angular Grid (max. ang.)         AngularGrid ... 4 (Lebedev-302)
Angular grid pruning method      GridPruning ... 4 (adaptive)
Weight generation scheme         WeightScheme... Becke
Basis function cutoff            BFCut       ... 1.0000e-11
Integration weight cutoff        WCut        ... 1.0000e-14
Angular grids for H and He will be reduced by one unit
Partially contracted basis set               ... off
Rotationally invariant grid construction     ... off

Total number of grid points                  ...   211900
Total number of batches                      ...     3332
Average number of points per batch           ...       63
Average number of grid points per atom       ...     4928
Time for grid setup =    1.923 sec

--------------------
COSX GRID GENERATION
--------------------

GRIDX 1
-------
General Integration Accuracy     IntAcc      ... 3.816
Radial Grid Type                 RadialGrid  ... OptM3 with GC (2021)
Angular Grid (max. ang.)         AngularGrid ... 1 (Lebedev-50)
Angular grid pruning method      GridPruning ... 4 (adaptive)
Weight generation scheme         WeightScheme... Becke
Basis function cutoff            BFCut       ... 1.0000e-11
Integration weight cutoff        WCut        ... 1.0000e-14
Angular grids for H and He will be reduced by one unit
Partially contracted basis set               ... on
Rotationally invariant grid construction     ... off

Total number of grid points                  ...    26887
Total number of batches                      ...      444
Average number of points per batch           ...       60
Average number of grid points per atom       ...      625
UseSFitting                                  ... on

GRIDX 2
-------
General Integration Accuracy     IntAcc      ... 4.020
Radial Grid Type                 RadialGrid  ... OptM3 with GC (2021)
Angular Grid (max. ang.)         AngularGrid ... 2 (Lebedev-110)
Angular grid pruning method      GridPruning ... 4 (adaptive)
Weight generation scheme         WeightScheme... Becke
Basis function cutoff            BFCut       ... 1.0000e-11
Integration weight cutoff        WCut        ... 1.0000e-14
Angular grids for H and He will be reduced by one unit
Partially contracted basis set               ... on
Rotationally invariant grid construction     ... off

Total number of grid points                  ...    59059
Total number of batches                      ...      947
Average number of points per batch           ...       62
Average number of grid points per atom       ...     1373
UseSFitting                                  ... on

GRIDX 3
-------
General Integration Accuracy     IntAcc      ... 4.338
Radial Grid Type                 RadialGrid  ... OptM3 with GC (2021)
Angular Grid (max. ang.)         AngularGrid ... 3 (Lebedev-194)
Angular grid pruning method      GridPruning ... 4 (adaptive)
Weight generation scheme         WeightScheme... Becke
Basis function cutoff            BFCut       ... 1.0000e-11
Integration weight cutoff        WCut        ... 1.0000e-14
Angular grids for H and He will be reduced by one unit
Partially contracted basis set               ... on
Rotationally invariant grid construction     ... off

Total number of grid points                  ...   129262
Total number of batches                      ...     2040
Average number of points per batch           ...       63
Average number of grid points per atom       ...     3006
UseSFitting                                  ... on

Time for X-Grid setup             =    1.669 sec


--------------------
CPCM SOLVATION MODEL
--------------------
CPCM parameters:
  Epsilon                                         ...      35.6880
  Refrac                                          ...       1.3442
  Rsolv                                           ...       1.3000
  Surface type                                    ... GAUSSIAN VDW
  Epsilon function type                           ...         CPCM
Solvent:                                     ... ACETONITRILE
SMD-CDS solvent descriptors:
  Soln                                       ...    1.3442
  Soln25                                     ...    1.3416
  Sola                                       ...    0.0700
  Solb                                       ...    0.3200
  Solg                                       ...   41.2500
  Solc                                       ...    0.0000
  Solh                                       ...    0.0000
Radii:
 Radius for C  used is    3.4960 Bohr (=   1.8500 Ang.)
 Radius for H  used is    2.2677 Bohr (=   1.2000 Ang.)
 Radius for O  used is    4.0969 Bohr (=   2.1680 Ang.)
Calculating surface                               ...        done! (  0.0s)
GEPOL surface points                              ...         2327
GEPOL Volume                                      ...    2514.0930
GEPOL Surface-area                                ...    1309.7577
Calculating surface distance matrix               ...        done! (  0.0s)
Performing Cholesky decomposition & store         ...        done! (  3.7s)
Overall time for CPCM initialization              ...                 3.7s
--------------
SCF ITERATIONS
--------------
ITER       Energy         Delta-E        Max-DP      RMS-DP      [F,P]     Damp
               ***  Starting incremental Fock matrix formation  ***
  0  -1147.2560432365   0.000000000000 0.11102056  0.00088928  0.3032745 0.7000
  1  -1147.5214675232  -0.265424286621 0.11034486  0.00081109  0.1482415 0.7000
                               ***Turning on DIIS***
  2  -1147.6602976706  -0.138830147400 0.19144955  0.00161804  0.0590488 0.0000
  3  -1147.8996162499  -0.239318579373 0.09888657  0.00061888  0.0608827 0.0000
  4  -1147.9277234760  -0.028107226047 0.02917495  0.00017753  0.0162606 0.0000
  5  -1147.9289617325  -0.001238256493 0.02224362  0.00011657  0.0112978 0.0000
                      *** Initiating the SOSCF procedure ***
                           *** Shutting down DIIS ***
                      *** Re-Reading the Fockian *** 
                      *** Removing any level shift *** 
ITER      Energy       Delta-E        Grad      Rot      Max-DP    RMS-DP
  6  -1147.92919441  -0.0002326766  0.000554  0.000554  0.005208  0.000033
               *** Restarting incremental Fock matrix formation ***
  7  -1147.92920228  -0.0000078689  0.000340  0.001464  0.023705  0.000226
  8  -1147.92921299  -0.0000107077  0.000166  0.000995  0.009759  0.000092
  9  -1147.92921449  -0.0000015053  0.000101  0.000305  0.008572  0.000079
 10  -1147.92921557  -0.0000010833  0.000017  0.000066  0.001182  0.000011
 11  -1147.92921556   0.0000000095  0.000016  0.000040  0.000574  0.000006
                  ***Gradient check signals convergence***
              ***Rediagonalizing the Fockian in SOSCF/NRSCF***

               *****************************************************
               *                     SUCCESS                       *
               *           SCF CONVERGED AFTER  12 CYCLES          *
               *****************************************************

Old exchange energy                            =    -82.267121177 Eh
New exchange energy                            =    -82.267224109 Eh
Exchange energy change after final integration =     -0.000102932 Eh
Total energy after final integration           =  -1147.929318550 Eh
Final COS-X integration done in                =    30.515 sec

SMD CDS free energy correction energy :                -5.20989     Kcal/mol
Total Energy after SMD CDS correction =             -1147.937621039 Eh

----------------
TOTAL SCF ENERGY
----------------

Total Energy       :        -1147.93762104 Eh          -31236.97073 eV

Components:
Nuclear Repulsion  :         2255.51974072 Eh           61375.81243 eV
Electronic Energy  :        -3403.45736175 Eh          -92612.78316 eV
One Electron Energy:        -6043.39767396 Eh         -164449.21114 eV
Two Electron Energy:         2639.94031221 Eh           71836.42799 eV
Max COSX asymmetry :            0.00000612 Eh               0.00017 eV
CPCM Dielectric    :           -0.02881146 Eh              -0.78400 eV
SMD CDS (Gcds)     :           -0.00830249 Eh              -0.22592 eV

Virial components:
Potential Energy   :        -2292.25448477 Eh          -62375.41564 eV
Kinetic Energy     :         1144.31686373 Eh           31138.44491 eV
Virial Ratio       :            2.00316412


DFT components:
N(Alpha)           :       92.000071632155 electrons
N(Beta)            :       92.000071632155 electrons
N(Total)           :      184.000143264309 electrons
E(X)               :      -73.123033379332 Eh       
E(C)               :       -4.623373894337 Eh       
E(XC)              :      -77.746407273669 Eh       
DFET-embed. en.    :        0.000000000000 Eh       
CPCM Solvation Model Properties:
Surface-charge          :           -0.05960287
Charge-correction       :            0.00008568 Eh               0.00233 eV
Free-energy (cav+disp)  :           -0.00830249 Eh              -0.22592 eV

---------------
SCF CONVERGENCE
---------------

  Last Energy change         ...   -5.3030e-08  Tolerance :   1.0000e-08
  Last MAX-Density change    ...    1.7764e-15  Tolerance :   1.0000e-07
  Last RMS-Density change    ...    1.3322e-17  Tolerance :   5.0000e-09
  Last Orbital Gradient      ...    1.8513e-06  Tolerance :   1.0000e-05
  Last Orbital Rotation      ...    8.6415e-06  Tolerance :   1.0000e-05

             **** THE GBW FILE WAS UPDATED (NCE_2_M06L_def2TZVP_coords.gbw) ****
             **** DENSITY NCE_2_M06L_def2TZVP_coords.scfp WAS UPDATED ****
             **** ENERGY FILE WAS UPDATED (NCE_2_M06L_def2TZVP_coords.en.tmp) ****
             **** THE GBW FILE WAS UPDATED (NCE_2_M06L_def2TZVP_coords.gbw) ****
             **** DENSITY NCE_2_M06L_def2TZVP_coords.scfp WAS UPDATED ****
----------------
ORBITAL ENERGIES
----------------

  NO   OCC          E(Eh)            E(eV) 
   0   2.0000     -19.789179      -538.4909 
   1   2.0000     -19.758187      -537.6476 
   2   2.0000     -19.712054      -536.3923 
   3   2.0000     -10.766323      -292.9665 
   4   2.0000     -10.695773      -291.0468 
   5   2.0000     -10.689787      -290.8839 
   6   2.0000     -10.655303      -289.9455 
   7   2.0000     -10.654201      -289.9155 
   8   2.0000     -10.647977      -289.7462 
   9   2.0000     -10.645883      -289.6892 
  10   2.0000     -10.637648      -289.4651 
  11   2.0000     -10.635403      -289.4040 
  12   2.0000     -10.630399      -289.2679 
  13   2.0000     -10.628869      -289.2262 
  14   2.0000     -10.628062      -289.2043 
  15   2.0000     -10.622614      -289.0560 
  16   2.0000     -10.621529      -289.0265 
  17   2.0000     -10.620606      -289.0014 
  18   2.0000     -10.619510      -288.9715 
  19   2.0000     -10.618456      -288.9429 
  20   2.0000     -10.615457      -288.8613 
  21   2.0000     -10.615180      -288.8537 
  22   2.0000     -10.613948      -288.8202 
  23   2.0000     -10.613790      -288.8159 
  24   2.0000     -10.612718      -288.7867 
  25   2.0000     -10.612645      -288.7848 
  26   2.0000     -10.611924      -288.7651 
  27   2.0000      -1.272674       -34.6312 
  28   2.0000      -1.217893       -33.1406 
  29   2.0000      -1.178642       -32.0725 
  30   2.0000      -1.025100       -27.8944 
  31   2.0000      -0.994714       -27.0675 
  32   2.0000      -0.984516       -26.7900 
  33   2.0000      -0.963093       -26.2071 
  34   2.0000      -0.921307       -25.0700 
  35   2.0000      -0.894486       -24.3402 
  36   2.0000      -0.876745       -23.8575 
  37   2.0000      -0.869184       -23.6517 
  38   2.0000      -0.861331       -23.4380 
  39   2.0000      -0.858243       -23.3540 
  40   2.0000      -0.832684       -22.6585 
  41   2.0000      -0.800586       -21.7850 
  42   2.0000      -0.771858       -21.0033 
  43   2.0000      -0.740974       -20.1629 
  44   2.0000      -0.735965       -20.0266 
  45   2.0000      -0.712460       -19.3870 
  46   2.0000      -0.703801       -19.1514 
  47   2.0000      -0.697409       -18.9775 
  48   2.0000      -0.663844       -18.0641 
  49   2.0000      -0.652972       -17.7683 
  50   2.0000      -0.642130       -17.4732 
  51   2.0000      -0.609160       -16.5761 
  52   2.0000      -0.607821       -16.5396 
  53   2.0000      -0.589156       -16.0317 
  54   2.0000      -0.578750       -15.7486 
  55   2.0000      -0.570593       -15.5266 
  56   2.0000      -0.560693       -15.2572 
  57   2.0000      -0.549700       -14.9581 
  58   2.0000      -0.545395       -14.8410 
  59   2.0000      -0.539601       -14.6833 
  60   2.0000      -0.536307       -14.5937 
  61   2.0000      -0.529700       -14.4139 
  62   2.0000      -0.528931       -14.3929 
  63   2.0000      -0.511006       -13.9052 
  64   2.0000      -0.508985       -13.8502 
  65   2.0000      -0.501700       -13.6519 
  66   2.0000      -0.490470       -13.3464 
  67   2.0000      -0.487478       -13.2649 
  68   2.0000      -0.487406       -13.2630 
  69   2.0000      -0.474290       -12.9061 
  70   2.0000      -0.466132       -12.6841 
  71   2.0000      -0.463895       -12.6232 
  72   2.0000      -0.459847       -12.5131 
  73   2.0000      -0.447408       -12.1746 
  74   2.0000      -0.436414       -11.8754 
  75   2.0000      -0.426643       -11.6095 
  76   2.0000      -0.422545       -11.4980 
  77   2.0000      -0.418177       -11.3792 
  78   2.0000      -0.413016       -11.2387 
  79   2.0000      -0.410905       -11.1813 
  80   2.0000      -0.404826       -11.0159 
  81   2.0000      -0.398624       -10.8471 
  82   2.0000      -0.389042       -10.5864 
  83   2.0000      -0.370541       -10.0829 
  84   2.0000      -0.363179        -9.8826 
  85   2.0000      -0.340104        -9.2547 
  86   2.0000      -0.308126        -8.3845 
  87   2.0000      -0.293589        -7.9890 
  88   2.0000      -0.288898        -7.8613 
  89   2.0000      -0.282266        -7.6808 
  90   2.0000      -0.274918        -7.4809 
  91   2.0000      -0.237496        -6.4626 
  92   0.0000      -0.024177        -0.6579 
  93   0.0000      -0.004745        -0.1291 
  94   0.0000       0.036824         1.0020 
  95   0.0000       0.043663         1.1881 
  96   0.0000       0.047082         1.2812 
  97   0.0000       0.058748         1.5986 
  98   0.0000       0.081147         2.2081 
  99   0.0000       0.095570         2.6006 
 100   0.0000       0.097214         2.6453 
 101   0.0000       0.104362         2.8398 
 102   0.0000       0.106052         2.8858 
 103   0.0000       0.113144         3.0788 
 104   0.0000       0.117279         3.1913 
 105   0.0000       0.128116         3.4862 
 106   0.0000       0.130396         3.5482 
 107   0.0000       0.131268         3.5720 
 108   0.0000       0.137647         3.7456 
 109   0.0000       0.142161         3.8684 
 110   0.0000       0.150431         4.0934 
 111   0.0000       0.154440         4.2025 
 112   0.0000       0.161243         4.3876 
 113   0.0000       0.161943         4.4067 
 114   0.0000       0.167615         4.5610 
 115   0.0000       0.172627         4.6974 
 116   0.0000       0.174449         4.7470 
 117   0.0000       0.181341         4.9345 
 118   0.0000       0.181892         4.9495 
 119   0.0000       0.188897         5.1402 
 120   0.0000       0.194605         5.2955 
 121   0.0000       0.211871         5.7653 
 122   0.0000       0.213622         5.8130 
 123   0.0000       0.217098         5.9075 
 124   0.0000       0.221702         6.0328 
 125   0.0000       0.229086         6.2337 
 126   0.0000       0.236179         6.4268 
 127   0.0000       0.241920         6.5830 
 128   0.0000       0.244941         6.6652 
 129   0.0000       0.246304         6.7023 
 130   0.0000       0.250550         6.8178 
 131   0.0000       0.250989         6.8298 
 132   0.0000       0.257272         7.0007 
 133   0.0000       0.261444         7.1142 
 134   0.0000       0.263805         7.1785 
 135   0.0000       0.263900         7.1811 
 136   0.0000       0.267142         7.2693 
 137   0.0000       0.273631         7.4459 
 138   0.0000       0.274416         7.4672 
 139   0.0000       0.282746         7.6939 
 140   0.0000       0.284113         7.7311 
 141   0.0000       0.291294         7.9265 
 142   0.0000       0.293857         7.9962 
 143   0.0000       0.299856         8.1595 
 144   0.0000       0.302105         8.2207 
 145   0.0000       0.305278         8.3070 
 146   0.0000       0.310011         8.4358 
 147   0.0000       0.310661         8.4535 
 148   0.0000       0.312347         8.4994 
 149   0.0000       0.318647         8.6708 
 150   0.0000       0.329401         8.9635 
 151   0.0000       0.329569         8.9680 
 152   0.0000       0.332592         9.0503 
 153   0.0000       0.334628         9.1057 
 154   0.0000       0.339574         9.2403 
 155   0.0000       0.342484         9.3195 
 156   0.0000       0.350485         9.5372 
 157   0.0000       0.355757         9.6807 
 158   0.0000       0.359210         9.7746 
 159   0.0000       0.363600         9.8941 
 160   0.0000       0.364829         9.9275 
 161   0.0000       0.370585        10.0841 
 162   0.0000       0.378951        10.3118 
 163   0.0000       0.380860        10.3637 
 164   0.0000       0.387142        10.5347 
 165   0.0000       0.391758        10.6603 
 166   0.0000       0.398534        10.8447 
 167   0.0000       0.403120        10.9694 
 168   0.0000       0.407109        11.0780 
 169   0.0000       0.410030        11.1575 
 170   0.0000       0.410946        11.1824 
 171   0.0000       0.412002        11.2112 
 172   0.0000       0.419291        11.4095 
 173   0.0000       0.422998        11.5104 
 174   0.0000       0.427198        11.6247 
 175   0.0000       0.430249        11.7077 
 176   0.0000       0.433432        11.7943 
 177   0.0000       0.438225        11.9247 
 178   0.0000       0.439847        11.9688 
 179   0.0000       0.449051        12.2193 
 180   0.0000       0.450474        12.2580 
 181   0.0000       0.456320        12.4171 
 182   0.0000       0.461473        12.5573 
 183   0.0000       0.464326        12.6350 
 184   0.0000       0.464630        12.6432 
 185   0.0000       0.469415        12.7734 
 186   0.0000       0.470690        12.8081 
 187   0.0000       0.472780        12.8650 
 188   0.0000       0.473010        12.8713 
 189   0.0000       0.478317        13.0157 
 190   0.0000       0.485146        13.2015 
 191   0.0000       0.486051        13.2261 
 192   0.0000       0.489443        13.3184 
 193   0.0000       0.496969        13.5232 
 194   0.0000       0.503928        13.7126 
 195   0.0000       0.506403        13.7799 
 196   0.0000       0.511335        13.9141 
 197   0.0000       0.513261        13.9665 
 198   0.0000       0.518710        14.1148 
 199   0.0000       0.521233        14.1835 
 200   0.0000       0.529283        14.4025 
 201   0.0000       0.530345        14.4314 
 202   0.0000       0.532757        14.4971 
 203   0.0000       0.539956        14.6930 
 204   0.0000       0.545237        14.8367 
 205   0.0000       0.548062        14.9135 
 206   0.0000       0.548742        14.9320 
 207   0.0000       0.554114        15.0782 
 208   0.0000       0.562693        15.3117 
 209   0.0000       0.563353        15.3296 
 210   0.0000       0.565325        15.3833 
 211   0.0000       0.569836        15.5060 
 212   0.0000       0.571755        15.5582 
 213   0.0000       0.578717        15.7477 
 214   0.0000       0.584463        15.9040 
 215   0.0000       0.585776        15.9398 
 216   0.0000       0.589607        16.0440 
 217   0.0000       0.594252        16.1704 
 218   0.0000       0.597541        16.2599 
 219   0.0000       0.603246        16.4152 
 220   0.0000       0.611331        16.6352 
 221   0.0000       0.622956        16.9515 
 222   0.0000       0.631551        17.1854 
 223   0.0000       0.634223        17.2581 
 224   0.0000       0.644338        17.5333 
 225   0.0000       0.647846        17.6288 
 226   0.0000       0.650118        17.6906 
 227   0.0000       0.659508        17.9461 
 228   0.0000       0.670812        18.2537 
 229   0.0000       0.671017        18.2593 
 230   0.0000       0.680787        18.5252 
 231   0.0000       0.682866        18.5817 
 232   0.0000       0.696172        18.9438 
 233   0.0000       0.697982        18.9931 
 234   0.0000       0.705813        19.2062 
 235   0.0000       0.710166        19.3246 
 236   0.0000       0.713723        19.4214 
 237   0.0000       0.715356        19.4658 
 238   0.0000       0.725900        19.7527 
 239   0.0000       0.728462        19.8225 
 240   0.0000       0.729233        19.8435 
 241   0.0000       0.732052        19.9201 
 242   0.0000       0.736173        20.0323 
 243   0.0000       0.742880        20.2148 
 244   0.0000       0.749534        20.3959 
 245   0.0000       0.753047        20.4914 
 246   0.0000       0.753306        20.4985 
 247   0.0000       0.763237        20.7687 
 248   0.0000       0.766527        20.8583 
 249   0.0000       0.775264        21.0960 
 250   0.0000       0.777135        21.1469 
 251   0.0000       0.777964        21.1695 
 252   0.0000       0.781219        21.2581 
 253   0.0000       0.786664        21.4062 
 254   0.0000       0.789521        21.4840 
 255   0.0000       0.792171        21.5561 
 256   0.0000       0.799348        21.7514 
 257   0.0000       0.801008        21.7965 
 258   0.0000       0.807661        21.9776 
 259   0.0000       0.810552        22.0562 
 260   0.0000       0.811985        22.0952 
 261   0.0000       0.823134        22.3986 
 262   0.0000       0.825947        22.4752 
 263   0.0000       0.828014        22.5314 
 264   0.0000       0.834488        22.7076 
 265   0.0000       0.842092        22.9145 
 266   0.0000       0.844758        22.9870 
 267   0.0000       0.848485        23.0885 
 268   0.0000       0.851926        23.1821 
 269   0.0000       0.861721        23.4486 
 270   0.0000       0.862462        23.4688 
 271   0.0000       0.864572        23.5262 
 272   0.0000       0.868685        23.6381 
 273   0.0000       0.878309        23.9000 
 274   0.0000       0.886917        24.1342 
 275   0.0000       0.889134        24.1946 
 276   0.0000       0.889288        24.1988 
 277   0.0000       0.892633        24.2898 
 278   0.0000       0.897814        24.4308 
 279   0.0000       0.915182        24.9034 
 280   0.0000       0.922648        25.1065 
 281   0.0000       0.923548        25.1310 
 282   0.0000       0.927392        25.2356 
 283   0.0000       0.932654        25.3788 
 284   0.0000       0.935635        25.4599 
 285   0.0000       0.939710        25.5708 
 286   0.0000       0.945643        25.7323 
 287   0.0000       0.949624        25.8406 
 288   0.0000       0.956615        26.0308 
 289   0.0000       0.958734        26.0885 
 290   0.0000       0.962497        26.1909 
 291   0.0000       0.966238        26.2927 
 292   0.0000       0.976632        26.5755 
 293   0.0000       0.982784        26.7429 
 294   0.0000       0.985274        26.8107 
 295   0.0000       0.985753        26.8237 
 296   0.0000       1.000232        27.2177 
 297   0.0000       1.004069        27.3221 
 298   0.0000       1.014596        27.6086 
 299   0.0000       1.019988        27.7553 
 300   0.0000       1.029098        28.0032 
 301   0.0000       1.034617        28.1534 
 302   0.0000       1.045760        28.4566 
 303   0.0000       1.050931        28.5973 
 304   0.0000       1.058751        28.8101 
 305   0.0000       1.070096        29.1188 
 306   0.0000       1.072513        29.1846 
 307   0.0000       1.090981        29.6871 
 308   0.0000       1.092085        29.7171 
 309   0.0000       1.094950        29.7951 
 310   0.0000       1.104773        30.0624 
 311   0.0000       1.112152        30.2632 
 312   0.0000       1.120565        30.4921 
 313   0.0000       1.121387        30.5145 
 314   0.0000       1.123408        30.5695 
 315   0.0000       1.138985        30.9934 
 316   0.0000       1.146440        31.1962 
 317   0.0000       1.163856        31.6701 
 318   0.0000       1.169146        31.8141 
 319   0.0000       1.176097        32.0032 
 320   0.0000       1.176755        32.0211 
 321   0.0000       1.181748        32.1570 
 322   0.0000       1.186751        32.2931 
 323   0.0000       1.199789        32.6479 
 324   0.0000       1.206705        32.8361 
 325   0.0000       1.219605        33.1871 
 326   0.0000       1.222902        33.2769 
 327   0.0000       1.231360        33.5070 
 328   0.0000       1.238000        33.6877 
 329   0.0000       1.242086        33.7989 
 330   0.0000       1.253828        34.1184 
 331   0.0000       1.261630        34.3307 
 332   0.0000       1.270075        34.5605 
 333   0.0000       1.284683        34.9580 
 334   0.0000       1.285526        34.9809 
 335   0.0000       1.293544        35.1991 
 336   0.0000       1.298162        35.3248 
 337   0.0000       1.298299        35.3285 
 338   0.0000       1.313371        35.7386 
 339   0.0000       1.320888        35.9432 
 340   0.0000       1.327110        36.1125 
 341   0.0000       1.336937        36.3799 
 342   0.0000       1.341881        36.5145 
 343   0.0000       1.344168        36.5767 
 344   0.0000       1.350692        36.7542 
 345   0.0000       1.352167        36.7943 
 346   0.0000       1.357918        36.9508 
 347   0.0000       1.367275        37.2054 
 348   0.0000       1.367480        37.2110 
 349   0.0000       1.379114        37.5276 
 350   0.0000       1.380999        37.5789 
 351   0.0000       1.400867        38.1195 
 352   0.0000       1.404551        38.2198 
 353   0.0000       1.412374        38.4327 
 354   0.0000       1.416669        38.5495 
 355   0.0000       1.421254        38.6743 
 356   0.0000       1.433080        38.9961 
 357   0.0000       1.434045        39.0223 
 358   0.0000       1.447860        39.3983 
 359   0.0000       1.460880        39.7526 
 360   0.0000       1.474659        40.1275 
 361   0.0000       1.475952        40.1627 
 362   0.0000       1.479154        40.2498 
 363   0.0000       1.484610        40.3983 
 364   0.0000       1.505529        40.9675 
 365   0.0000       1.507352        41.0171 
 366   0.0000       1.509863        41.0855 
 367   0.0000       1.515363        41.2351 
 368   0.0000       1.524732        41.4901 
 369   0.0000       1.531455        41.6730 
 370   0.0000       1.532515        41.7019 
 371   0.0000       1.542570        41.9755 
 372   0.0000       1.551148        42.2089 
 373   0.0000       1.562105        42.5070 
 374   0.0000       1.566355        42.6227 
 375   0.0000       1.571730        42.7690 
 376   0.0000       1.577568        42.9278 
 377   0.0000       1.581386        43.0317 
 378   0.0000       1.589005        43.2390 
 379   0.0000       1.590175        43.2709 
 380   0.0000       1.599140        43.5148 
 381   0.0000       1.607862        43.7521 
 382   0.0000       1.610475        43.8232 
 383   0.0000       1.613722        43.9116 
 384   0.0000       1.616217        43.9795 
 385   0.0000       1.629467        44.3401 
 386   0.0000       1.629888        44.3515 
 387   0.0000       1.632002        44.4090 
 388   0.0000       1.636493        44.5312 
 389   0.0000       1.641488        44.6671 
 390   0.0000       1.645210        44.7684 
 391   0.0000       1.654409        45.0188 
 392   0.0000       1.654743        45.0278 
 393   0.0000       1.659837        45.1665 
 394   0.0000       1.678847        45.6838 
 395   0.0000       1.682507        45.7833 
 396   0.0000       1.687824        45.9280 
 397   0.0000       1.693856        46.0922 
 398   0.0000       1.698216        46.2108 
 399   0.0000       1.702897        46.3382 
 400   0.0000       1.713577        46.6288 
 401   0.0000       1.727072        46.9960 
 402   0.0000       1.729133        47.0521 
 403   0.0000       1.731182        47.1079 
 404   0.0000       1.733068        47.1592 
 405   0.0000       1.736827        47.2615 
 406   0.0000       1.745913        47.5087 
 407   0.0000       1.762321        47.9552 
 408   0.0000       1.765381        48.0385 
 409   0.0000       1.777038        48.3557 
 410   0.0000       1.779490        48.4224 
 411   0.0000       1.786989        48.6264 
 412   0.0000       1.801411        49.0189 
 413   0.0000       1.801949        49.0335 
 414   0.0000       1.803260        49.0692 
 415   0.0000       1.812233        49.3134 
 416   0.0000       1.814977        49.3880 
 417   0.0000       1.820218        49.5306 
 418   0.0000       1.827286        49.7230 
 419   0.0000       1.830697        49.8158 
 420   0.0000       1.830983        49.8236 
 421   0.0000       1.844048        50.1791 
 422   0.0000       1.846553        50.2473 
 423   0.0000       1.855678        50.4956 
 424   0.0000       1.858378        50.5690 
 425   0.0000       1.863881        50.7188 
 426   0.0000       1.875453        51.0337 
 427   0.0000       1.881757        51.2052 
 428   0.0000       1.887681        51.3664 
 429   0.0000       1.893309        51.5195 
 430   0.0000       1.894499        51.5519 
 431   0.0000       1.915888        52.1340 
 432   0.0000       1.916301        52.1452 
 433   0.0000       1.927738        52.4564 
 434   0.0000       1.932890        52.5966 
 435   0.0000       1.951468        53.1021 
 436   0.0000       1.951566        53.1048 
 437   0.0000       1.967317        53.5334 
 438   0.0000       1.976213        53.7755 
 439   0.0000       1.977421        53.8084 
 440   0.0000       1.985383        54.0250 
 441   0.0000       1.992622        54.2220 
 442   0.0000       2.002569        54.4927 
 443   0.0000       2.015650        54.8486 
 444   0.0000       2.025217        55.1090 
 445   0.0000       2.033656        55.3386 
 446   0.0000       2.041179        55.5433 
 447   0.0000       2.045097        55.6499 
 448   0.0000       2.053005        55.8651 
 449   0.0000       2.061245        56.0893 
 450   0.0000       2.073736        56.4292 
 451   0.0000       2.086099        56.7657 
 452   0.0000       2.095289        57.0157 
 453   0.0000       2.098387        57.1000 
 454   0.0000       2.107177        57.3392 
 455   0.0000       2.118936        57.6592 
 456   0.0000       2.125303        57.8324 
 457   0.0000       2.126002        57.8515 
 458   0.0000       2.130148        57.9643 
 459   0.0000       2.135180        58.1012 
 460   0.0000       2.152064        58.5606 
 461   0.0000       2.166540        58.9545 
 462   0.0000       2.173556        59.1455 
 463   0.0000       2.174918        59.1825 
 464   0.0000       2.192330        59.6563 
 465   0.0000       2.201018        59.8927 
 466   0.0000       2.207733        60.0755 
 467   0.0000       2.226549        60.5875 
 468   0.0000       2.229398        60.6650 
 469   0.0000       2.230281        60.6890 
 470   0.0000       2.248075        61.1732 
 471   0.0000       2.248733        61.1911 
 472   0.0000       2.250443        61.2377 
 473   0.0000       2.254395        61.3452 
 474   0.0000       2.270661        61.7878 
 475   0.0000       2.282547        62.1112 
 476   0.0000       2.285266        62.1853 
 477   0.0000       2.290746        62.3344 
 478   0.0000       2.295902        62.4747 
 479   0.0000       2.297055        62.5060 
 480   0.0000       2.304079        62.6972 
 481   0.0000       2.315804        63.0162 
 482   0.0000       2.325766        63.2873 
 483   0.0000       2.332607        63.4735 
 484   0.0000       2.339604        63.6639 
 485   0.0000       2.350306        63.9551 
 486   0.0000       2.353997        64.0555 
 487   0.0000       2.363060        64.3021 
 488   0.0000       2.375352        64.6366 
 489   0.0000       2.380190        64.7682 
 490   0.0000       2.388211        64.9865 
 491   0.0000       2.394401        65.1550 
 492   0.0000       2.403123        65.3923 
 493   0.0000       2.407753        65.5183 
 494   0.0000       2.422721        65.9256 
 495   0.0000       2.433104        66.2081 
 496   0.0000       2.433949        66.2311 
 497   0.0000       2.439158        66.3729 
 498   0.0000       2.443995        66.5045 
 499   0.0000       2.461633        66.9844 
 500   0.0000       2.465828        67.0986 
 501   0.0000       2.477713        67.4220 
 502   0.0000       2.486788        67.6689 
 503   0.0000       2.500427        68.0401 
 504   0.0000       2.501280        68.0633 
 505   0.0000       2.507698        68.2379 
 506   0.0000       2.520141        68.5765 
 507   0.0000       2.546108        69.2831 
 508   0.0000       2.546681        69.2987 
 509   0.0000       2.555241        69.5316 
 510   0.0000       2.568177        69.8837 
 511   0.0000       2.588102        70.4258 
 512   0.0000       2.599648        70.7400 
 513   0.0000       2.603466        70.8439 
 514   0.0000       2.607181        70.9450 
 515   0.0000       2.612337        71.0853 
 516   0.0000       2.625929        71.4552 
 517   0.0000       2.634169        71.6794 
 518   0.0000       2.636664        71.7473 
 519   0.0000       2.648904        72.0804 
 520   0.0000       2.657151        72.3047 
 521   0.0000       2.669985        72.6540 
 522   0.0000       2.670727        72.6742 
 523   0.0000       2.673748        72.7564 
 524   0.0000       2.675972        72.8169 
 525   0.0000       2.687644        73.1345 
 526   0.0000       2.692074        73.2551 
 527   0.0000       2.710504        73.7566 
 528   0.0000       2.713819        73.8468 
 529   0.0000       2.733040        74.3698 
 530   0.0000       2.733075        74.3707 
 531   0.0000       2.740970        74.5856 
 532   0.0000       2.741741        74.6066 
 533   0.0000       2.750840        74.8542 
 534   0.0000       2.763933        75.2104 
 535   0.0000       2.766247        75.2734 
 536   0.0000       2.768386        75.3316 
 537   0.0000       2.772063        75.4317 
 538   0.0000       2.778289        75.6011 
 539   0.0000       2.790049        75.9211 
 540   0.0000       2.794599        76.0449 
 541   0.0000       2.801368        76.2291 
 542   0.0000       2.804070        76.3026 
 543   0.0000       2.807213        76.3881 
 544   0.0000       2.814319        76.5815 
 545   0.0000       2.816842        76.6502 
 546   0.0000       2.823943        76.8434 
 547   0.0000       2.824269        76.8523 
 548   0.0000       2.831947        77.0612 
 549   0.0000       2.837851        77.2219 
 550   0.0000       2.840354        77.2900 
 551   0.0000       2.846716        77.4631 
 552   0.0000       2.850033        77.5534 
 553   0.0000       2.858104        77.7730 
 554   0.0000       2.865606        77.9771 
 555   0.0000       2.867354        78.0247 
 556   0.0000       2.877268        78.2944 
 557   0.0000       2.883548        78.4653 
 558   0.0000       2.885988        78.5317 
 559   0.0000       2.886552        78.5471 
 560   0.0000       2.896706        78.8234 
 561   0.0000       2.897147        78.8354 
 562   0.0000       2.903589        79.0107 
 563   0.0000       2.909213        79.1637 
 564   0.0000       2.914872        79.3177 
 565   0.0000       2.928425        79.6865 
 566   0.0000       2.929036        79.7031 
 567   0.0000       2.942841        80.0788 
 568   0.0000       2.942948        80.0817 
 569   0.0000       2.943868        80.1067 
 570   0.0000       2.948066        80.2210 
 571   0.0000       2.951369        80.3108 
 572   0.0000       2.958580        80.5071 
 573   0.0000       2.961821        80.5952 
 574   0.0000       2.967391        80.7468 
 575   0.0000       2.969292        80.7985 
 576   0.0000       2.982888        81.1685 
 577   0.0000       2.987083        81.2826 
 578   0.0000       2.989524        81.3491 
 579   0.0000       2.998589        81.5958 
 580   0.0000       3.003335        81.7249 
 581   0.0000       3.005771        81.7912 
 582   0.0000       3.010940        81.9319 
 583   0.0000       3.016975        82.0961 
 584   0.0000       3.020061        82.1800 
 585   0.0000       3.028957        82.4221 
 586   0.0000       3.030716        82.4700 
 587   0.0000       3.034393        82.5700 
 588   0.0000       3.045669        82.8769 
 589   0.0000       3.046586        82.9018 
 590   0.0000       3.056125        83.1614 
 591   0.0000       3.062390        83.3319 
 592   0.0000       3.069028        83.5125 
 593   0.0000       3.076591        83.7183 
 594   0.0000       3.076711        83.7216 
 595   0.0000       3.084003        83.9200 
 596   0.0000       3.098921        84.3259 
 597   0.0000       3.105230        84.4976 
 598   0.0000       3.108403        84.5840 
 599   0.0000       3.111279        84.6622 
 600   0.0000       3.114271        84.7436 
 601   0.0000       3.119606        84.8888 
 602   0.0000       3.127948        85.1158 
 603   0.0000       3.140157        85.4480 
 604   0.0000       3.142433        85.5099 
 605   0.0000       3.144205        85.5582 
 606   0.0000       3.156992        85.9061 
 607   0.0000       3.157285        85.9141 
 608   0.0000       3.173918        86.3667 
 609   0.0000       3.182128        86.5901 
 610   0.0000       3.183091        86.6163 
 611   0.0000       3.191204        86.8371 
 612   0.0000       3.201431        87.1154 
 613   0.0000       3.203046        87.1593 
 614   0.0000       3.213232        87.4365 
 615   0.0000       3.221602        87.6642 
[...]
    90a ->  97a  :     0.014620 
    91a ->  96a  :     0.112386 
    91a ->  97a  :     0.095906 
    91a ->  98a  :     0.012043 

STATE 14:  E=   0.203603 au      5.540 eV    44685.8 cm**-1 <S**2> =   0.000000
    86a ->  92a  :     0.099176 
    87a ->  93a  :     0.017568 
    87a ->  94a  :     0.059107 
    87a ->  96a  :     0.070797 
    88a ->  93a  :     0.135331 
    88a ->  96a  :     0.016441 
    89a ->  95a  :     0.190837 
    90a ->  93a  :     0.024140 
    90a ->  97a  :     0.013084 
    91a ->  96a  :     0.115833 
    91a ->  97a  :     0.196698 

STATE 15:  E=   0.192812 au      5.247 eV    42317.3 cm**-1 <S**2> =   0.000000
    84a ->  92a  :     0.076188 
    87a ->  95a  :     0.017205 
    89a ->  93a  :     0.296158 
    89a ->  96a  :     0.013820 
    90a ->  95a  :     0.041770 
    91a ->  95a  :     0.491516 

STATE 16:  E=   0.192973 au      5.251 eV    42352.7 cm**-1 <S**2> =   0.000000
    84a ->  92a  :     0.082622 
    87a ->  95a  :     0.053141 
    88a ->  95a  :     0.010362 
    89a ->  93a  :     0.338411 
    89a ->  96a  :     0.032020 
    90a ->  95a  :     0.012599 
    91a ->  95a  :     0.410847 

STATE 17:  E=   0.211567 au      5.757 eV    46433.6 cm**-1 <S**2> =   0.000000
    85a ->  92a  :     0.118313 
    86a ->  93a  :     0.383069 
    87a ->  94a  :     0.035382 
    88a ->  93a  :     0.021819 
    88a ->  94a  :     0.097612 
    88a ->  96a  :     0.067558 
    90a ->  94a  :     0.015975 
    91a ->  94a  :     0.034840 
    91a ->  98a  :     0.118785 

STATE 18:  E=   0.205205 au      5.584 eV    45037.3 cm**-1 <S**2> =   0.000000
    83a ->  92a  :     0.013146 
    85a ->  92a  :     0.462056 
    86a ->  92a  :     0.034233 
    86a ->  93a  :     0.050291 
    87a ->  93a  :     0.021536 
    87a ->  96a  :     0.011281 
    90a ->  94a  :     0.029981 
    90a ->  97a  :     0.015730 
    91a ->  94a  :     0.073110 
    91a ->  96a  :     0.193572 
    91a ->  97a  :     0.028950 

STATE 19:  E=   0.204254 au      5.558 eV    44828.5 cm**-1 <S**2> =   0.000000
    85a ->  92a  :     0.158621 
    85a ->  93a  :     0.022514 
    86a ->  93a  :     0.148051 
    90a ->  94a  :     0.022510 
    91a ->  94a  :     0.052592 
    91a ->  96a  :     0.220596 
    91a ->  97a  :     0.272644 

STATE 20:  E=   0.210431 au      5.726 eV    46184.2 cm**-1 <S**2> =   0.000000
    85a ->  93a  :     0.102157 
    86a ->  93a  :     0.064231 
    86a ->  98a  :     0.011124 
    87a ->  93a  :     0.331586 
    88a ->  93a  :     0.052318 
    88a ->  94a  :     0.052914 
    88a ->  96a  :     0.028903 
    89a ->  95a  :     0.081382 
    90a ->  94a  :     0.042381 
    90a ->  97a  :     0.081684 
    91a ->  96a  :     0.030436 
    91a ->  97a  :     0.024476 
    91a -> 101a  :     0.011281 

STATE 21:  E=   0.208192 au      5.665 eV    45693.0 cm**-1 <S**2> =   0.000000
    85a ->  92a  :     0.089614 
    86a ->  93a  :     0.158840 
    87a ->  93a  :     0.253350 
    87a ->  96a  :     0.024880 
    88a ->  94a  :     0.089545 
    88a ->  96a  :     0.031104 
    89a ->  95a  :     0.023154 
    90a ->  93a  :     0.014798 
    90a ->  97a  :     0.016190 
    91a ->  98a  :     0.185978 
    91a -> 101a  :     0.018971 

STATE 22:  E=   0.210513 au      5.728 eV    46202.3 cm**-1 <S**2> =   0.000000
    85a ->  93a  :     0.163809 
    86a ->  92a  :     0.017323 
    86a ->  93a  :     0.048696 
    86a ->  96a  :     0.012231 
    86a ->  97a  :     0.033166 
    86a ->  98a  :     0.011435 
    87a ->  93a  :     0.116692 
    88a ->  93a  :     0.047866 
    88a ->  94a  :     0.012438 
    89a ->  95a  :     0.017672 
    90a ->  93a  :     0.019119 
    90a ->  94a  :     0.213046 
    90a ->  97a  :     0.064248 
    90a -> 101a  :     0.019498 
    91a ->  96a  :     0.051331 
    91a ->  98a  :     0.088122 

STATE 23:  E=   0.226827 au      6.172 eV    49782.7 cm**-1 <S**2> =   0.000000
    85a ->  92a  :     0.011985 
    87a ->  93a  :     0.018333 
    87a ->  96a  :     0.099898 
    88a ->  94a  :     0.286520 
    88a ->  96a  :     0.029729 
    89a ->  95a  :     0.015276 
    90a ->  94a  :     0.028193 
    90a ->  97a  :     0.014389 
    91a ->  97a  :     0.024986 
    91a ->  98a  :     0.369723 
    91a -> 101a  :     0.020044 

STATE 24:  E=   0.219443 au      5.971 eV    48162.1 cm**-1 <S**2> =   0.000000
    83a ->  92a  :     0.011859 
    83a ->  93a  :     0.010475 
    85a ->  93a  :     0.128481 
    85a ->  94a  :     0.025681 
    85a ->  96a  :     0.011342 
    86a ->  93a  :     0.027588 
    86a ->  94a  :     0.036229 
    86a ->  97a  :     0.024000 
    87a ->  93a  :     0.011214 
    87a ->  96a  :     0.022457 
    88a ->  93a  :     0.013242 
    89a ->  95a  :     0.012851 
    90a ->  94a  :     0.277190 
    90a ->  96a  :     0.128892 
    90a ->  97a  :     0.078723 
    91a ->  94a  :     0.010738 
    91a ->  96a  :     0.038927 
    91a -> 101a  :     0.040173 

STATE 25:  E=   0.235597 au      6.411 eV    51707.6 cm**-1 <S**2> =   0.000000
    82a ->  92a  :     0.061210 
    87a ->  95a  :     0.300385 
    88a ->  95a  :     0.061074 
    89a ->  94a  :     0.159055 
    89a ->  96a  :     0.203401 
    90a ->  95a  :     0.147814 

STATE 26:  E=   0.225169 au      6.127 eV    49418.8 cm**-1 <S**2> =   0.000000
    83a ->  95a  :     0.011369 
    86a ->  95a  :     0.028193 
    87a ->  95a  :     0.093168 
    88a ->  95a  :     0.039014 
    89a ->  94a  :     0.014405 
    89a ->  96a  :     0.015902 
    90a ->  95a  :     0.720911 
    91a ->  95a  :     0.046306 

STATE 27:  E=   0.238039 au      6.477 eV    52243.5 cm**-1 <S**2> =   0.000000
    85a ->  92a  :     0.017415 
    86a ->  94a  :     0.014743 
    87a ->  93a  :     0.018789 
    87a ->  94a  :     0.144557 
    87a ->  96a  :     0.112204 
    87a ->  97a  :     0.011888 
    88a ->  96a  :     0.066354 
    89a ->  95a  :     0.217071 
    90a ->  94a  :     0.031237 
    90a ->  96a  :     0.234759 
    91a ->  98a  :     0.026044 
    91a -> 101a  :     0.019609 

STATE 28:  E=   0.228101 au      6.207 eV    50062.3 cm**-1 <S**2> =   0.000000
    77a ->  92a  :     0.038806 
    81a ->  92a  :     0.033772 
    82a ->  92a  :     0.706893 
    84a ->  92a  :     0.027286 
    87a ->  95a  :     0.027048 
    89a ->  94a  :     0.034807 

STATE 29:  E=   0.231976 au      6.312 eV    50912.8 cm**-1 <S**2> =   0.000000
    86a ->  93a  :     0.010939 
    86a ->  94a  :     0.037364 
    87a ->  94a  :     0.084132 
    87a ->  96a  :     0.057597 
    88a ->  96a  :     0.050336 
    88a ->  97a  :     0.010436 
    89a ->  95a  :     0.040653 
    90a ->  94a  :     0.173219 
    90a ->  96a  :     0.157792 
    90a ->  97a  :     0.114488 
    91a ->  97a  :     0.012096 
    91a -> 101a  :     0.159849 

STATE 30:  E=   0.248154 au      6.753 eV    54463.5 cm**-1 <S**2> =   0.000000
    91a ->  99a  :     0.666305 
    91a -> 103a  :     0.048650 
    91a -> 104a  :     0.145271 
    91a -> 110a  :     0.019837 


-------------------------
TD-DFT-EXCITATION SPECTRA
-------------------------

Center of mass = ( -0.0125, -0.0419, -0.0000)
Calculating the Dipole integrals                  ... done
Transforming integrals                            ... done
Calculating the Linear Momentum integrals         ... done
Transforming integrals                            ... done
Calculating angular momentum integrals            ... done
Transforming integrals                            ... done

-----------------------------------------------------------------------------
         ABSORPTION SPECTRUM VIA TRANSITION ELECTRIC DIPOLE MOMENTS
-----------------------------------------------------------------------------
State   Energy    Wavelength  fosc         T2        TX        TY        TZ  
        (cm-1)      (nm)                 (au**2)    (au)      (au)      (au) 
-----------------------------------------------------------------------------
   1   26675.2    374.9   0.076647115   0.94594   0.55561   0.79828   0.00002
   2   31055.8    322.0   0.378631883   4.01375   1.86199  -0.73943  -0.00012
   3   34531.3    289.6   0.925672085   8.82510  -2.77706   1.05501   0.00035
   4   32787.4    305.0   0.000041074   0.00041  -0.00839   0.00340  -0.01818
   5   36362.1    275.0   0.220507972   1.99641   0.77125  -1.18388  -0.00016
   6   37210.3    268.7   0.221369907   1.95853  -1.06588  -0.90688  -0.00002
   7   37296.0    268.1   0.003407703   0.03008   0.16029   0.06622   0.00003
   8   37751.9    264.9   0.111479325   0.97214  -0.75605   0.63287  -0.00059
   9   40313.5    248.1   0.002622768   0.02142  -0.00367   0.00329   0.14627
  10   42123.0    237.4   0.511618984   3.99855   0.73905  -1.85805  -0.00016
  11   40852.1    244.8   0.000261060   0.00210   0.00008   0.00103  -0.04586
  12   40082.5    249.5   0.024636174   0.20235   0.18964   0.40790   0.00008
  13   45875.2    218.0   0.179669697   1.28935  -0.15196   1.12528   0.00023
  14   44685.8    223.8   0.165582252   1.21989   0.52750  -0.97038  -0.00012
  15   42317.3    236.3   0.004454038   0.03465   0.00009  -0.00065   0.18615
  16   42352.7    236.1   0.003627788   0.02820  -0.00044  -0.00088  -0.16792
  17   46433.6    215.4   0.128035451   0.90777  -0.92142  -0.24239   0.00014
  18   45037.3    222.0   0.140525606   1.02721  -0.83238  -0.57824   0.00015
  19   44828.5    223.1   0.058144053   0.42700  -0.35901  -0.54599  -0.00015
  20   46184.2    216.5   0.139554133   0.99478  -0.82935  -0.55404   0.00006
  21   45693.0    218.9   0.048385373   0.34861   0.58141   0.10285   0.00011
  22   46202.3    216.4   0.067314151   0.47964  -0.68098   0.12611  -0.00007
  23   49782.7    200.9   0.594034302   3.92834   1.89091   0.59397   0.00074
  24   48162.1    207.6   0.016570767   0.11327  -0.26726   0.20440   0.00787
  25   51707.6    193.4   0.416266634   2.65029   0.00069  -0.00172   1.62797
  26   49418.8    202.4   0.045931256   0.30598  -0.00006   0.00082  -0.55315
  27   52243.5    191.4   0.446534384   2.81383   1.01014   1.33919   0.00022
  28   50062.3    199.8   0.034442111   0.22649  -0.00029  -0.00036  -0.47591
  29   50912.8    196.4   0.047483789   0.30704  -0.22374  -0.50693   0.00052
  30   54463.5    183.6   0.000119661   0.00072   0.00026  -0.00063  -0.02689

-----------------------------------------------------------------------------
         ABSORPTION SPECTRUM VIA TRANSITION VELOCITY DIPOLE MOMENTS
-----------------------------------------------------------------------------
State   Energy    Wavelength   fosc        P2         PX        PY        PZ  
        (cm-1)      (nm)                 (au**2)     (au)      (au)      (au) 
-----------------------------------------------------------------------------
   1   26675.2    374.9   0.099612199   0.01816  -0.07718  -0.11047  -0.00000
   2   31055.8    322.0   0.427578143   0.09075  -0.27995   0.11129   0.00002
   3   34531.3    289.6   1.101548533   0.25997   0.47734  -0.17920  -0.00006
   4   32787.4    305.0   0.000017712   0.00000   0.00145  -0.00058   0.00124
   5   36362.1    275.0   0.272022573   0.06760  -0.13983   0.21920   0.00003
   6   37210.3    268.7   0.277824535   0.07065   0.20142   0.17345   0.00000
   7   37296.0    268.1   0.004726755   0.00120  -0.03216  -0.01307  -0.00001
   8   37751.9    264.9   0.151769910   0.03916   0.15179  -0.12696   0.00013
   9   40313.5    248.1   0.003393884   0.00094   0.00074  -0.00066  -0.03056
  10   42123.0    237.4   0.596048751   0.17160  -0.15172   0.38546   0.00003
  11   40852.1    244.8   0.000562976   0.00016  -0.00002  -0.00022   0.01254
  12   40082.5    249.5   0.032815142   0.00899  -0.03920  -0.08633  -0.00002
  13   45875.2    218.0   0.194554030   0.06100   0.03167  -0.24494  -0.00005
  14   44685.8    223.8   0.191008904   0.05834  -0.11374   0.21307   0.00003
  15   42317.3    236.3   0.005898420   0.00171  -0.00002   0.00014  -0.04130
  16   42352.7    236.1   0.004526779   0.00131   0.00010   0.00020   0.03620
  17   46433.6    215.4   0.145570669   0.04620   0.20778   0.05501  -0.00003
  18   45037.3    222.0   0.171585449   0.05282   0.18891   0.13087  -0.00003
  19   44828.5    223.1   0.075823982   0.02323   0.08473   0.12670   0.00004
  20   46184.2    216.5   0.173104804   0.05464   0.19433   0.12991  -0.00001
  21   45693.0    218.9   0.061659196   0.01926  -0.13655  -0.02470  -0.00002
  22   46202.3    216.4   0.085779568   0.02709   0.16184  -0.02988   0.00002
  23   49782.7    200.9   0.713748532   0.24285  -0.46978  -0.14882  -0.00018
  24   48162.1    207.6   0.021527141   0.00709   0.06654  -0.05152  -0.00198
  25   51707.6    193.4   0.475552417   0.16806  -0.00017   0.00043  -0.40995
  26   49418.8    202.4   0.057715304   0.01949   0.00001  -0.00021   0.13962
  27   52243.5    191.4   0.517553659   0.18480  -0.25928  -0.34288  -0.00005
  28   50062.3    199.8   0.044377189   0.01518   0.00008   0.00009   0.12322
  29   50912.8    196.4   0.059454870   0.02069   0.05701   0.13205  -0.00015
  30   54463.5    183.6   0.000313676   0.00012  -0.00006   0.00017   0.01080

-------------------------------------------------------------------
                             CD SPECTRUM
-------------------------------------------------------------------
State  Energy     Wavelength     R         MX        MY        MZ   
       (cm-1)       (nm)     (1e40*cgs)   (au)      (au)      (au)  
-------------------------------------------------------------------
   1   26675.2    374.9     -0.00337  -0.00004   0.00003  -0.46953
   2   31055.8    322.0      0.00371  -0.00001  -0.00000  -0.17573
   3   34531.3    289.6      0.14160  -0.00012  -0.00015   0.35397
   4   32787.4    305.0     -0.13127   0.05466   0.05856   0.00103
   5   36362.1    275.0     -0.00445  -0.00003  -0.00000  -0.07866
   6   37210.3    268.7     -0.00598   0.00001  -0.00001   0.40974
   7   37296.0    268.1      0.00582   0.00003  -0.00005   0.35926
   8   37751.9    264.9     -0.16250   0.00018  -0.00108  -0.80044
   9   40313.5    248.1      0.16961  -0.03776   0.23795  -0.00383
  10   42123.0    237.4      0.01683  -0.00011  -0.00005  -0.20809
  11   40852.1    244.8     -0.11192  -0.18079  -0.22800  -0.00024
  12   40082.5    249.5      0.00795   0.00008   0.00012  -0.59894
  13   45875.2    218.0      0.12690  -0.00012   0.00005   0.84012
  14   44685.8    223.8      0.03571   0.00001   0.00002  -0.77420
  15   42317.3    236.3     -0.11869  -0.23337   0.07098  -0.00100
  16   42352.7    236.1      0.03902   0.08189  -0.11057  -0.00013
  17   46433.6    215.4     -0.01410   0.00006   0.00010   0.33352
  18   45037.3    222.0      0.04631  -0.00015   0.00012   0.28800
  19   44828.5    223.1      0.01555   0.00012  -0.00019   0.18582
  20   46184.2    216.5      0.00330   0.00000   0.00004   0.48651
  21   45693.0    218.9      0.00284  -0.00004   0.00008   0.19847
  22   46202.3    216.4     -0.02015   0.00008  -0.00006  -0.32438
  23   49782.7    200.9     -0.13414  -0.00037   0.00068   0.01748
  24   48162.1    207.6      1.66056  -0.00424   0.00766   0.10442
  25   51707.6    193.4     -1.50912  -0.87555   1.60052   0.00010
  26   49418.8    202.4     -0.09322   0.18497  -0.57658  -0.00052
  27   52243.5    191.4      0.08690  -0.00015   0.00036  -0.70070
  28   50062.3    199.8      0.02331   0.35792  -0.36942  -0.00005
  29   50912.8    196.4     -0.18351  -0.00069   0.00106  -0.00944
  30   54463.5    183.6      0.09255   0.14391  -0.22274  -0.00068

Total run time:     3387.187 sec

           *** ORCA-CIS/TD-DFT FINISHED WITHOUT ERROR ***

Maximum memory used throughout the entire CIS-calculation: 4164.8 MB

-----------------------
CIS/TD-DFT TOTAL ENERGY
-----------------------

    E(SCF)  =  -1147.937621039 Eh
    DE(CIS) =      0.121541020 Eh (Root  1)
    ----------------------------- ---------
    E(tot)  =  -1147.816080019 Eh



-------------------------------------------------------------------------------
                          DFT DISPERSION CORRECTION                            
                                                                               
                              DFTD3 V3.1  Rev 1                                
                          USING Becke-Johnson damping                          
-------------------------------------------------------------------------------
The B2PLYP functional is recognized
Active option DFTDOPT                   ...         4   

molecular C6(AA) [au] = 24670.309634 


            DFT-D V3
 parameters
 s6 scaling factor         :     0.6400 
 a1 scaling factor         :     0.3065 
 s8 scaling factor         :     0.9147 
 a2 scaling factor         :     5.0570 
 ad hoc parameters k1-k3   :    16.0000     1.3333    -4.0000 

 Edisp/kcal,au: -32.135607405986  -0.051211344699 
 E6   /kcal   : -17.850481969 
 E8   /kcal   : -14.285125437 
 % E8         :  44.452638647 

-------------------------   ----------------
Dispersion correction           -0.051211345
-------------------------   ----------------


-------------------------   --------------------
FINAL SINGLE POINT ENERGY     -1147.867291363629
-------------------------   --------------------


                            ***************************************
                            *     ORCA property calculations      *
                            ***************************************


  WARNING: The energy has been calculated at the MP2 level but the densities
           used in the property calculations are still SCF densities
           MP2 response densities have not been calculated 
           use %mp2 Density relaxed end
           or  %mp2 Density unrelaxed end

                                    ---------------------
                                    Active property flags
                                    ---------------------
   (+) Dipole Moment


------------------------------------------------------------------------------
                       ORCA ELECTRIC PROPERTIES CALCULATION
------------------------------------------------------------------------------

Dipole Moment Calculation                       ... on
Quadrupole Moment Calculation                   ... off
Polarizability Calculation                      ... off
GBWName                                         ... NCE_2_M06L_def2TZVP_coords.gbw
Electron density                                ... NCE_2_M06L_def2TZVP_coords.scfp
The origin for moment calculation is the CENTER OF MASS  = (-0.012521, -0.041934 -0.000006)

-------------
DIPOLE MOMENT
-------------
                                X             Y             Z
Electronic contribution:     -1.21389      -4.59496      -0.00077
Nuclear contribution   :      2.30387       7.71586       0.00102
                        -----------------------------------------
Total Dipole Moment    :      1.08999       3.12090       0.00025
                        -----------------------------------------
Magnitude (a.u.)       :      3.30576
Magnitude (Debye)      :      8.40259



--------------------
Rotational spectrum 
--------------------
 
Rotational constants in cm-1:     0.011445     0.004004     0.003062 
Rotational constants in MHz :   343.117137   120.023996    91.800824 

 Dipole components along the rotational axes: 
x,y,z [a.u.] :    -1.062635     3.130317     0.000102 
x,y,z [Debye]:    -2.701004     7.956633     0.000260 

 

Timings for individual modules:

Sum of individual times         ...     3928.472 sec (=  65.475 min)
GTO integral calculation        ...       15.446 sec (=   0.257 min)   0.4 %
SCF iterations                  ...      237.091 sec (=   3.952 min)   6.0 %
MP2 module                      ...      287.837 sec (=   4.797 min)   7.3 %
CIS module                      ...     3388.098 sec (=  56.468 min)  86.2 %
                             ****ORCA TERMINATED NORMALLY****
TOTAL RUN TIME: 0 days 1 hours 5 minutes 30 seconds 806 msec
