 Entering Gaussian System, Link 0=g09
 Input=/Lustre01/home/png4rjv/fotokatalizis/benchmark/OPCs/RESTART_Rh_Eos_counterion/RESTART/Rh_B_M06L_def2TZVP.gjf
 Output=/Lustre01/home/png4rjv/fotokatalizis/benchmark/OPCs/RESTART_Rh_Eos_counterion/RESTART/Rh_B_M06L_def2TZVP.log
 Initial command:
 /opt/nce/packages/global/g09/l1.exe "/Lustre01/home/png4rjv/fotokatalizis/benchmark/OPCs/RESTART_Rh_Eos_counterion/RESTART/Rh_B_M06L_def2TZVP/Gau-30428.inp" -scrdir="/Lustre01/home/png4rjv/fotokatalizis/benchmark/OPCs/RESTART_Rh_Eos_counterion/RESTART/Rh_B_M06L_def2TZVP/"
 Default is to use a total of  12 processors:
                               12 via shared-memory
                                1 via Linda
 Entering Link 1 = /opt/nce/packages/global/g09/l1.exe PID=     30429.
  
 Copyright (c) 1988,1990,1992,1993,1995,1998,2003,2009,2015,
            Gaussian, Inc.  All Rights Reserved.
  
 This is part of the Gaussian(R) 09 program.  It is based on
 the Gaussian(R) 03 system (copyright 2003, Gaussian, Inc.),
 the Gaussian(R) 98 system (copyright 1998, Gaussian, Inc.),
 the Gaussian(R) 94 system (copyright 1995, Gaussian, Inc.),
 the Gaussian 92(TM) system (copyright 1992, Gaussian, Inc.),
 the Gaussian 90(TM) system (copyright 1990, Gaussian, Inc.),
 the Gaussian 88(TM) system (copyright 1988, Gaussian, Inc.),
 the Gaussian 86(TM) system (copyright 1986, Carnegie Mellon
 University), and the Gaussian 82(TM) system (copyright 1983,
 Carnegie Mellon University). Gaussian is a federally registered
 trademark of Gaussian, Inc.
  
 This software contains proprietary and confidential information,
 including trade secrets, belonging to Gaussian, Inc.
  
 This software is provided under written license and may be
 used, copied, transmitted, or stored only in accord with that
 written license.
  
 The following legend is applicable only to US Government
 contracts under FAR:
  
                    RESTRICTED RIGHTS LEGEND
  
 Use, reproduction and disclosure by the US Government is
 subject to restrictions as set forth in subparagraphs (a)
 and (c) of the Commercial Computer Software - Restricted
 Rights clause in FAR 52.227-19.
  
 Gaussian, Inc.
 340 Quinnipiac St., Bldg. 40, Wallingford CT 06492
  
  
 ---------------------------------------------------------------
 Warning -- This program may not be used in any manner that
 competes with the business of Gaussian, Inc. or will provide
 assistance to any competitor of Gaussian, Inc.  The licensee
 of this program is prohibited from giving any competitor of
 Gaussian, Inc. access to this program.  By using this program,
 the user acknowledges that Gaussian, Inc. is engaged in the
 business of creating and licensing software in the field of
 computational chemistry and represents and warrants to the
 licensee that it is not a competitor of Gaussian, Inc. and that
 it will not use this program in any manner prohibited above.
 ---------------------------------------------------------------
  

 Cite this work as:
 Gaussian 09, Revision E.01,
 M. J. Frisch, G. W. Trucks, H. B. Schlegel, G. E. Scuseria, 
 M. A. Robb, J. R. Cheeseman, G. Scalmani, V. Barone, B. Mennucci, 
 G. A. Petersson, H. Nakatsuji, M. Caricato, X. Li, H. P. Hratchian, 
 A. F. Izmaylov, J. Bloino, G. Zheng, J. L. Sonnenberg, M. Hada, 
 M. Ehara, K. Toyota, R. Fukuda, J. Hasegawa, M. Ishida, T. Nakajima, 
 Y. Honda, O. Kitao, H. Nakai, T. Vreven, J. A. Montgomery, Jr., 
 J. E. Peralta, F. Ogliaro, M. Bearpark, J. J. Heyd, E. Brothers, 
 K. N. Kudin, V. N. Staroverov, T. Keith, R. Kobayashi, J. Normand, 
 K. Raghavachari, A. Rendell, J. C. Burant, S. S. Iyengar, J. Tomasi, 
 M. Cossi, N. Rega, J. M. Millam, M. Klene, J. E. Knox, J. B. Cross, 
 V. Bakken, C. Adamo, J. Jaramillo, R. Gomperts, R. E. Stratmann, 
 O. Yazyev, A. J. Austin, R. Cammi, C. Pomelli, J. W. Ochterski, 
 R. L. Martin, K. Morokuma, V. G. Zakrzewski, G. A. Voth, 
 P. Salvador, J. J. Dannenberg, S. Dapprich, A. D. Daniels, 
 O. Farkas, J. B. Foresman, J. V. Ortiz, J. Cioslowski, 
 and D. J. Fox, Gaussian, Inc., Wallingford CT, 2013.
 
 ******************************************
 Gaussian 09:  ES64L-G09RevE.01 30-Nov-2015
                 2-Apr-2022 
 ******************************************
 %chk=cp.chk
 Default route:  MaxDisk=500GB
 ----------------------------------------------------------------------
 #p m06l/def2TZVP freq=noraman Symmetry=None int=ultrafine scrf=(SMD,so
 lvent=Ethanol)
 ----------------------------------------------------------------------
 1/10=4,30=1,38=1/1,3;
 2/12=2,15=3,17=6,18=5,40=1/2;
 3/5=44,7=101,11=2,16=1,25=1,30=1,70=32201,71=2,72=4,74=-53,75=-5,140=1/1,2,3;
 4//1;
 5/5=2,38=5,53=4,98=1/2;
 8/6=4,10=90,11=11/1;
 11/6=1,8=1,9=11,15=111,16=1,31=1/1,2,10;
 10/6=1,31=1/2;
 6/7=2,8=2,9=2,10=2,18=1,28=1/1;
 7/8=1,10=1,25=1,30=1/1,2,3,16;
 1/10=4,30=1/3;
 99//99;
 Leave Link    1 at Sat Apr  2 13:43:15 2022, MaxMem=           0 cpu:         2.0
 (Enter /opt/nce/packages/global/g09/l101.exe)
 -----
 Title
 -----
 Symbolic Z-matrix:
 Charge =  1 Multiplicity = 1
 C                    -3.84267  -0.92047   0.05895 
 C                    -2.63141  -1.64154   0.02698 
 C                    -1.44452  -0.9832   -0.16527 
 C                    -1.35747   0.41899  -0.34875 
 C                    -2.58344   1.1259   -0.3025 
 C                    -3.77274   0.49648  -0.10979 
 C                    -0.10154   1.01378  -0.52399 
 C                     1.04141   0.20175  -0.51395 
 C                     0.90082  -1.19349  -0.31441 
 C                     1.9652   -2.0571   -0.27997 
 H                     1.76164  -3.1076   -0.13996 
 C                     3.27758  -1.56937  -0.44416 
 C                     3.43763  -0.16648  -0.65864 
 C                     2.36564   0.66916  -0.69357 
 H                    -2.59956  -2.70986   0.17693 
 H                    -2.56812   2.20095  -0.4264 
 H                    -4.67722   1.08529  -0.09724 
 H                     4.42535   0.24835  -0.78883 
 H                     2.52931   1.72569  -0.86331 
 O                    -0.32599  -1.74921  -0.15542 
 C                     0.00982   2.46809  -0.77545 
 C                    -0.44695   2.94686  -2.00239 
 C                     0.60787   3.37133   0.1185 
 C                    -0.31108   4.28151  -2.34587 
 H                    -0.89892   2.25214  -2.69947 
 C                     0.7524    4.70852  -0.247 
 C                     0.29374   5.16693  -1.46704 
 H                    -0.67428   4.62615  -3.30559 
 H                     1.21788   5.38614   0.4569 
 H                     0.40407   6.21073  -1.72992 
 N                    -5.02463  -1.53894   0.24539 
 C                    -6.27907  -0.8039    0.39622 
 H                    -6.09494   0.11516   0.95088 
 H                    -6.92276  -1.41378   1.03078 
 C                    -6.9569   -0.52106  -0.92532 
 H                    -7.16734  -1.44515  -1.46396 
 H                    -7.90277  -0.00556  -0.76303 
 H                    -6.33611   0.10665  -1.56454 
 C                     1.09696   2.99901   1.46614 
 O                     0.45497   1.95125   1.99407 
 O                     1.97055   3.59993   2.05443 
 C                    -5.13158  -2.9933    0.32505 
 H                    -6.12485  -3.25533  -0.04035 
 H                    -4.42484  -3.44287  -0.37194 
 C                    -4.92918  -3.52147   1.72791 
 H                    -5.04218  -4.60476   1.74437 
 H                    -3.93553  -3.28036   2.10522 
 H                    -5.66161  -3.0979    2.41519 
 C                     4.21334  -3.81278  -0.09371 
 H                     3.42748  -3.94672   0.64905 
 H                     5.14243  -4.1156    0.39029 
 C                     5.70542  -1.922    -0.65616 
 H                     5.6881   -1.16501  -1.43905 
 H                     6.25482  -2.7681   -1.06939 
 C                     6.39023  -1.40747   0.58996 
 H                     7.41129  -1.10327   0.36275 
 H                     5.86659  -0.54659   1.00562 
 H                     6.43396  -2.17805   1.35975 
 C                     3.95722  -4.6597   -1.32036 
 H                     4.76332  -4.55173  -2.04621 
 H                     3.89254  -5.71207  -1.04661 
 H                     3.02433  -4.38116  -1.81026 
 N                     4.3444   -2.39114  -0.40265 
 H                     0.83804   1.77003   2.86803 
 
 NAtoms=     64 NQM=       64 NQMF=       0 NMMI=      0 NMMIF=      0
                NMic=       0 NMicF=      0.
                    Isotopes and Nuclear Properties:
 (Nuclear quadrupole moments (NQMom) in fm**2, nuclear magnetic moments (NMagM)
  in nuclear magnetons)

  Atom         1           2           3           4           5           6           7           8           9          10
 IAtWgt=          12          12          12          12          12          12          12          12          12          12
 AtmWgt=  12.0000000  12.0000000  12.0000000  12.0000000  12.0000000  12.0000000  12.0000000  12.0000000  12.0000000  12.0000000
 NucSpn=           0           0           0           0           0           0           0           0           0           0
 AtZEff=   0.0000000   0.0000000   0.0000000   0.0000000   0.0000000   0.0000000   0.0000000   0.0000000   0.0000000   0.0000000
 NQMom=    0.0000000   0.0000000   0.0000000   0.0000000   0.0000000   0.0000000   0.0000000   0.0000000   0.0000000   0.0000000
 NMagM=    0.0000000   0.0000000   0.0000000   0.0000000   0.0000000   0.0000000   0.0000000   0.0000000   0.0000000   0.0000000
 AtZNuc=   6.0000000   6.0000000   6.0000000   6.0000000   6.0000000   6.0000000   6.0000000   6.0000000   6.0000000   6.0000000

  Atom        11          12          13          14          15          16          17          18          19          20
 IAtWgt=           1          12          12          12           1           1           1           1           1          16
 AtmWgt=   1.0078250  12.0000000  12.0000000  12.0000000   1.0078250   1.0078250   1.0078250   1.0078250   1.0078250  15.9949146
 NucSpn=           1           0           0           0           1           1           1           1           1           0
 AtZEff=   0.0000000   0.0000000   0.0000000   0.0000000   0.0000000   0.0000000   0.0000000   0.0000000   0.0000000   0.0000000
 NQMom=    0.0000000   0.0000000   0.0000000   0.0000000   0.0000000   0.0000000   0.0000000   0.0000000   0.0000000   0.0000000
 NMagM=    2.7928460   0.0000000   0.0000000   0.0000000   2.7928460   2.7928460   2.7928460   2.7928460   2.7928460   0.0000000
 AtZNuc=   1.0000000   6.0000000   6.0000000   6.0000000   1.0000000   1.0000000   1.0000000   1.0000000   1.0000000   8.0000000

  Atom        21          22          23          24          25          26          27          28          29          30
 IAtWgt=          12          12          12          12           1          12          12           1           1           1
 AtmWgt=  12.0000000  12.0000000  12.0000000  12.0000000   1.0078250  12.0000000  12.0000000   1.0078250   1.0078250   1.0078250
 NucSpn=           0           0           0           0           1           0           0           1           1           1
 AtZEff=   0.0000000   0.0000000   0.0000000   0.0000000   0.0000000   0.0000000   0.0000000   0.0000000   0.0000000   0.0000000
 NQMom=    0.0000000   0.0000000   0.0000000   0.0000000   0.0000000   0.0000000   0.0000000   0.0000000   0.0000000   0.0000000
 NMagM=    0.0000000   0.0000000   0.0000000   0.0000000   2.7928460   0.0000000   0.0000000   2.7928460   2.7928460   2.7928460
 AtZNuc=   6.0000000   6.0000000   6.0000000   6.0000000   1.0000000   6.0000000   6.0000000   1.0000000   1.0000000   1.0000000

  Atom        31          32          33          34          35          36          37          38          39          40
 IAtWgt=          14          12           1           1          12           1           1           1          12          16
 AtmWgt=  14.0030740  12.0000000   1.0078250   1.0078250  12.0000000   1.0078250   1.0078250   1.0078250  12.0000000  15.9949146
 NucSpn=           2           0           1           1           0           1           1           1           0           0
 AtZEff=   0.0000000   0.0000000   0.0000000   0.0000000   0.0000000   0.0000000   0.0000000   0.0000000   0.0000000   0.0000000
 NQMom=    2.0440000   0.0000000   0.0000000   0.0000000   0.0000000   0.0000000   0.0000000   0.0000000   0.0000000   0.0000000
 NMagM=    0.4037610   0.0000000   2.7928460   2.7928460   0.0000000   2.7928460   2.7928460   2.7928460   0.0000000   0.0000000
 AtZNuc=   7.0000000   6.0000000   1.0000000   1.0000000   6.0000000   1.0000000   1.0000000   1.0000000   6.0000000   8.0000000

  Atom        41          42          43          44          45          46          47          48          49          50
 IAtWgt=          16          12           1           1          12           1           1           1          12           1
 AtmWgt=  15.9949146  12.0000000   1.0078250   1.0078250  12.0000000   1.0078250   1.0078250   1.0078250  12.0000000   1.0078250
 NucSpn=           0           0           1           1           0           1           1           1           0           1
 AtZEff=   0.0000000   0.0000000   0.0000000   0.0000000   0.0000000   0.0000000   0.0000000   0.0000000   0.0000000   0.0000000
 NQMom=    0.0000000   0.0000000   0.0000000   0.0000000   0.0000000   0.0000000   0.0000000   0.0000000   0.0000000   0.0000000
 NMagM=    0.0000000   0.0000000   2.7928460   2.7928460   0.0000000   2.7928460   2.7928460   2.7928460   0.0000000   2.7928460
 AtZNuc=   8.0000000   6.0000000   1.0000000   1.0000000   6.0000000   1.0000000   1.0000000   1.0000000   6.0000000   1.0000000

  Atom        51          52          53          54          55          56          57          58          59          60
 IAtWgt=           1          12           1           1          12           1           1           1          12           1
 AtmWgt=   1.0078250  12.0000000   1.0078250   1.0078250  12.0000000   1.0078250   1.0078250   1.0078250  12.0000000   1.0078250
 NucSpn=           1           0           1           1           0           1           1           1           0           1
 AtZEff=   0.0000000   0.0000000   0.0000000   0.0000000   0.0000000   0.0000000   0.0000000   0.0000000   0.0000000   0.0000000
 NQMom=    0.0000000   0.0000000   0.0000000   0.0000000   0.0000000   0.0000000   0.0000000   0.0000000   0.0000000   0.0000000
 NMagM=    2.7928460   0.0000000   2.7928460   2.7928460   0.0000000   2.7928460   2.7928460   2.7928460   0.0000000   2.7928460
 AtZNuc=   1.0000000   6.0000000   1.0000000   1.0000000   6.0000000   1.0000000   1.0000000   1.0000000   6.0000000   1.0000000

  Atom        61          62          63          64
 IAtWgt=           1           1          14           1
 AtmWgt=   1.0078250   1.0078250  14.0030740   1.0078250
 NucSpn=           1           1           2           1
 AtZEff=   0.0000000   0.0000000   0.0000000   0.0000000
 NQMom=    0.0000000   0.0000000   2.0440000   0.0000000
 NMagM=    2.7928460   2.7928460   0.4037610   2.7928460
 AtZNuc=   1.0000000   1.0000000   7.0000000   1.0000000
 Leave Link  101 at Sat Apr  2 13:43:16 2022, MaxMem=  5242880000 cpu:         1.3
 (Enter /opt/nce/packages/global/g09/l103.exe)

 GradGradGradGradGradGradGradGradGradGradGradGradGradGradGradGradGradGrad
 Berny optimization.
 Initialization pass.
 Trust Radius=3.00D-01 FncErr=1.00D-07 GrdErr=1.00D-07
 Number of steps in this run=      2 maximum allowed number of steps=      2.
 GradGradGradGradGradGradGradGradGradGradGradGradGradGradGradGradGradGrad

 Leave Link  103 at Sat Apr  2 13:43:16 2022, MaxMem=  5242880000 cpu:         0.3
 (Enter /opt/nce/packages/global/g09/l202.exe)
 Symmetry turned off by external request.
 Stoichiometry    C28H31N2O3
                          Input orientation:                          
 ---------------------------------------------------------------------
 Center     Atomic      Atomic             Coordinates (Angstroms)
 Number     Number       Type             X           Y           Z
 ---------------------------------------------------------------------
      1          6           0       -3.842670   -0.920472    0.058945
      2          6           0       -2.631406   -1.641541    0.026982
      3          6           0       -1.444515   -0.983203   -0.165273
      4          6           0       -1.357470    0.418986   -0.348749
      5          6           0       -2.583440    1.125904   -0.302498
      6          6           0       -3.772742    0.496476   -0.109791
      7          6           0       -0.101538    1.013778   -0.523986
      8          6           0        1.041411    0.201745   -0.513945
      9          6           0        0.900823   -1.193490   -0.314407
     10          6           0        1.965200   -2.057099   -0.279969
     11          1           0        1.761643   -3.107605   -0.139957
     12          6           0        3.277582   -1.569371   -0.444163
     13          6           0        3.437629   -0.166482   -0.658637
     14          6           0        2.365642    0.669157   -0.693565
     15          1           0       -2.599557   -2.709860    0.176927
     16          1           0       -2.568121    2.200950   -0.426399
     17          1           0       -4.677218    1.085291   -0.097238
     18          1           0        4.425352    0.248350   -0.788827
     19          1           0        2.529306    1.725689   -0.863311
     20          8           0       -0.325987   -1.749212   -0.155419
     21          6           0        0.009819    2.468092   -0.775445
     22          6           0       -0.446949    2.946857   -2.002388
     23          6           0        0.607871    3.371333    0.118501
     24          6           0       -0.311077    4.281508   -2.345867
     25          1           0       -0.898919    2.252141   -2.699466
     26          6           0        0.752398    4.708515   -0.246998
     27          6           0        0.293742    5.166931   -1.467041
     28          1           0       -0.674280    4.626148   -3.305585
     29          1           0        1.217884    5.386143    0.456898
     30          1           0        0.404066    6.210731   -1.729916
     31          7           0       -5.024635   -1.538940    0.245392
     32          6           0       -6.279070   -0.803903    0.396216
     33          1           0       -6.094944    0.115156    0.950883
     34          1           0       -6.922762   -1.413776    1.030777
     35          6           0       -6.956901   -0.521064   -0.925320
     36          1           0       -7.167341   -1.445150   -1.463961
     37          1           0       -7.902767   -0.005562   -0.763033
     38          1           0       -6.336109    0.106649   -1.564541
     39          6           0        1.096959    2.999007    1.466141
     40          8           0        0.454969    1.951251    1.994069
     41          8           0        1.970546    3.599926    2.054431
     42          6           0       -5.131581   -2.993299    0.325049
     43          1           0       -6.124850   -3.255334   -0.040345
     44          1           0       -4.424836   -3.442872   -0.371944
     45          6           0       -4.929181   -3.521466    1.727907
     46          1           0       -5.042180   -4.604758    1.744368
     47          1           0       -3.935530   -3.280363    2.105225
     48          1           0       -5.661609   -3.097901    2.415194
     49          6           0        4.213343   -3.812782   -0.093712
     50          1           0        3.427480   -3.946724    0.649045
     51          1           0        5.142435   -4.115596    0.390292
     52          6           0        5.705420   -1.921995   -0.656162
     53          1           0        5.688102   -1.165005   -1.439053
     54          1           0        6.254823   -2.768104   -1.069392
     55          6           0        6.390234   -1.407467    0.589958
     56          1           0        7.411291   -1.103270    0.362748
     57          1           0        5.866592   -0.546585    1.005625
     58          1           0        6.433957   -2.178054    1.359754
     59          6           0        3.957219   -4.659701   -1.320357
     60          1           0        4.763315   -4.551728   -2.046210
     61          1           0        3.892535   -5.712074   -1.046612
     62          1           0        3.024328   -4.381156   -1.810263
     63          7           0        4.344397   -2.391135   -0.402650
     64          1           0        0.838036    1.770028    2.868025
 ---------------------------------------------------------------------
 Rotational constants (GHZ):      0.1486714      0.0868036      0.0609313
 Leave Link  202 at Sat Apr  2 13:43:16 2022, MaxMem=  5242880000 cpu:         0.0
 (Enter /opt/nce/packages/global/g09/l301.exe)
 Standard basis: def2TZVP (5D, 7F)
 Ernie: Thresh=  0.10000D-02 Tol=  0.10000D-05 Strict=F.
  1209 basis functions,  1931 primitive gaussians,  1374 cartesian basis functions
   118 alpha electrons      118 beta electrons
       nuclear repulsion energy      3335.3733687055 Hartrees.
 IExCor= 4134 DFT=T Ex+Corr=M06L ExCW=0 ScaHFX=  0.000000
 ScaDFX=  1.000000  1.000000  1.000000  1.000000 ScalE2=  1.000000  1.000000
 IRadAn=      5 IRanWt=     -1 IRanGd=            0 ICorTp=0 IEmpDi=  4
 NAtoms=   64 NActive=   64 NUniq=   64 SFac= 1.00D+00 NAtFMM=   60 NAOKFM=T Big=T
 Integral buffers will be    131072 words long.
 Raffenetti 2 integral format.
 Two-electron integral symmetry is turned off.
 Force inversion solution in PCM.
 ------------------------------------------------------------------------------
 Polarizable Continuum Model (PCM)
 =================================
 Model                : PCM (using non-symmetric T matrix).
 Atomic radii         : SMD-Coulomb.
 Polarization charges : Total charges.
 Charge compensation  : None.
 Solution method      : Matrix inversion.
 Cavity type          : VdW (van der Waals Surface) (Alpha=1.000).
 Cavity algorithm     : GePol (No added spheres)
                        Default sphere list used, NSphG=   64.
                        Lebedev-Laikov grids with approx.  5.0 points / Ang**2.
                        Smoothing algorithm: York/Karplus (Gamma=1.0000).
                        Polarization charges: spherical gaussians, with
                                              point-specific exponents (IZeta= 3).
                        Self-potential: point-specific (ISelfS= 7).
                        Self-field    : sphere-specific E.n sum rule (ISelfD= 2).
 1st derivatives      : Analytical E(r).r(x)/FMM algorithm (CHGder, D1EAlg=3).
                        Cavity 1st derivative terms included.
 2nd derivatives      : Analytical E(r).r(xy)/FMM algorithm (CHGder, D2EAlg=3).
                        Cavity 2nd derivative terms included.
 Solvent              : Ethanol, Eps=  24.852000 Eps(inf)=   1.852593
 ------------------------------------------------------------------------------
 GePol: Number of generator spheres                  =      64
 GePol: Total number of spheres                      =      64
 GePol: Number of exposed spheres                    =      64 (100.00%)
 GePol: Number of points                             =    4429
 GePol: Average weight of points                     =       0.11
 GePol: Minimum weight of points                     =   0.16D-10
 GePol: Maximum weight of points                     =    0.21261
 GePol: Number of points with low weight             =     286
 GePol: Fraction of low-weight points (<1% of avg)   =       6.46%
 GePol: Cavity surface area                          =    483.279 Ang**2
 GePol: Cavity volume                                =    460.543 Ang**3
 ------------------------------------------------------------------------------
 Atomic radii for non-electrostatic terms: SMD-CDS.
 ------------------------------------------------------------------------------
 PCM non-electrostatic energy =        -0.0018687341 Hartrees.
 Nuclear repulsion after PCM non-electrostatic terms =     3335.3714999714 Hartrees.
 Leave Link  301 at Sat Apr  2 13:43:16 2022, MaxMem=  5242880000 cpu:         2.3
 (Enter /opt/nce/packages/global/g09/l302.exe)
 NPDir=0 NMtPBC=     1 NCelOv=     1 NCel=       1 NClECP=     1 NCelD=      1
         NCelK=      1 NCelE2=     1 NClLst=     1 CellRange=     0.0.
 One-electron integrals computed using PRISM.
   1 Symmetry operations used in ECPInt.
 ECPInt:  NShTT=  118828 NPrTT=  359100 LenC2=   90140 LenP2D=  184785.
 LDataN:  DoStor=T MaxTD1= 6 Len=  172
 NBasis=  1209 RedAO= T EigKep=  4.28D-06  NBF=  1209
 NBsUse=  1209 1.00D-06 EigRej= -1.00D+00 NBFU=  1209
 Precomputing XC quadrature grid using
 IXCGrd= 4 IRadAn=           5 IRanWt=          -1 IRanGd=           0 AccXCQ= 0.00D+00.
 Generated NRdTot=       0 NPtTot=           0 NUsed=           0 NTot=          32
 NSgBfM=  1307  1307  1307  1307  1307 MxSgAt=    64 MxSgA2=    64.
 Leave Link  302 at Sat Apr  2 13:43:19 2022, MaxMem=  5242880000 cpu:        39.3
 (Enter /opt/nce/packages/global/g09/l303.exe)
 DipDrv:  MaxL=1.
 Leave Link  303 at Sat Apr  2 13:43:19 2022, MaxMem=  5242880000 cpu:         3.6
 (Enter /opt/nce/packages/global/g09/l401.exe)
 ExpMin= 9.52D-02 ExpMax= 2.70D+04 ExpMxC= 9.22D+02 IAcc=3 IRadAn=         5 AccDes= 0.00D+00
 Harris functional with IExCor= 1009 and IRadAn=       5 diagonalized for initial guess.
 HarFok:  IExCor= 1009 AccDes= 0.00D+00 IRadAn=         5 IDoV= 1 UseB2=F ITyADJ=14
 ICtDFT=  3500011 ScaDFX=  1.000000  1.000000  1.000000  1.000000
 FoFCou: FMM=F IPFlag=           0 FMFlag=      100000 FMFlg1=        2001
         NFxFlg=           0 DoJE=T BraDBF=F KetDBF=T FulRan=T
         wScrn=  0.000000 ICntrl=     500 IOpCl=  0 I1Cent=   200000004 NGrid=           0
         NMat0=    1 NMatS0=      1 NMatT0=    0 NMatD0=    1 NMtDS0=    0 NMtDT0=    0
 Symmetry not used in FoFCou.
 Harris En= -1419.96816319390    
 JPrj=0 DoOrth=F DoCkMO=F.
 Leave Link  401 at Sat Apr  2 13:43:33 2022, MaxMem=  5242880000 cpu:       157.5
 (Enter /opt/nce/packages/global/g09/l502.exe)
 Closed shell SCF:
 Using DIIS extrapolation, IDIIS=  1040.
 Two-electron integral symmetry not used.
 IVT=     5707038 IEndB=     5707038 NGot=  5242880000 MDV=  5239078853
 LenX=  5239078853 LenY=  5237189603
 Requested convergence on RMS density matrix=1.00D-08 within 128 cycles.
 Requested convergence on MAX density matrix=1.00D-06.
 Requested convergence on             energy=1.00D-06.
 No special actions if energy rises.
 Fock matrices will be formed incrementally for  20 cycles.

 Cycle   1  Pass 1  IDiag  1:
 FoFJK:  IHMeth= 1 ICntrl=     500 DoSepK=F KAlg= 0 I1Cent=   0 FoldK=F
 IRaf= 720000000 NMat=   1 IRICut=       1 DoRegI=T DoRafI=F ISym2E= 0.
 FoFCou: FMM=T IPFlag=           0 FMFlag=      100000 FMFlg1=        2001
         NFxFlg=           0 DoJE=T BraDBF=F KetDBF=F FulRan=T
         wScrn=  0.000000 ICntrl=     500 IOpCl=  0 I1Cent=           0 NGrid=           0
         NMat0=    1 NMatS0=      1 NMatT0=    0 NMatD0=    1 NMtDS0=    0 NMtDT0=    0
 Symmetry not used in FoFCou.
 FMM levels:  10  Number of levels for PrismC:   9
 Inv3:  Mode=1 IEnd=    58848123.
 Iteration    1 A*A^-1 deviation from unit magnitude is 7.88D-15 for   4428.
 Iteration    1 A*A^-1 deviation from orthogonality  is 4.68D-15 for   4414   3968.
 Iteration    1 A^-1*A deviation from unit magnitude is 7.77D-15 for   4428.
 Iteration    1 A^-1*A deviation from orthogonality  is 3.22D-11 for   2493   2442.
 E= -1420.31103443503    
 DIIS: error= 2.08D-02 at cycle   1 NSaved=   1.
 NSaved= 1 IEnMin= 1 EnMin= -1420.31103443503     IErMin= 1 ErrMin= 2.08D-02
 ErrMax= 2.08D-02  0.00D+00 EMaxC= 1.00D-01 BMatC= 9.56D-01 BMatP= 9.56D-01
 IDIUse=3 WtCom= 7.92D-01 WtEn= 2.08D-01
 Coeff-Com:  0.100D+01
 Coeff-En:   0.100D+01
 Coeff:      0.100D+01
 Gap=     0.066 Goal=   None    Shift=    0.000
 GapD=    0.066 DampG=0.500 DampE=0.500 DampFc=0.2500 IDamp=-1.
 Damping current iteration by 2.50D-01
 RMSDP=3.21D-03 MaxDP=6.52D-01              OVMax= 2.23D-01

 Cycle   2  Pass 1  IDiag  1:
 RMSU=  7.99D-04    CP:  1.01D+00
 E= -1420.58443579630     Delta-E=       -0.273401361275 Rises=F Damp=T
 DIIS: error= 9.62D-03 at cycle   2 NSaved=   2.
 NSaved= 2 IEnMin= 2 EnMin= -1420.58443579630     IErMin= 2 ErrMin= 9.62D-03
 ErrMax= 9.62D-03  0.00D+00 EMaxC= 1.00D-01 BMatC= 2.77D-01 BMatP= 9.56D-01
 IDIUse=3 WtCom= 9.04D-01 WtEn= 9.62D-02
 Coeff-Com: -0.802D+00 0.180D+01
 Coeff-En:   0.000D+00 0.100D+01
 Coeff:     -0.725D+00 0.173D+01
 Gap=     0.082 Goal=   None    Shift=    0.000
 RMSDP=2.27D-03 MaxDP=3.67D-01 DE=-2.73D-01 OVMax= 2.47D-01

 Cycle   3  Pass 1  IDiag  1:
 RMSU=  1.70D-03    CP:  1.04D+00  2.87D+00
 E= -1420.99296272568     Delta-E=       -0.408526929376 Rises=F Damp=F
 DIIS: error= 5.62D-03 at cycle   3 NSaved=   3.
 NSaved= 3 IEnMin= 3 EnMin= -1420.99296272568     IErMin= 3 ErrMin= 5.62D-03
 ErrMax= 5.62D-03  0.00D+00 EMaxC= 1.00D-01 BMatC= 9.12D-02 BMatP= 2.77D-01
 IDIUse=3 WtCom= 9.44D-01 WtEn= 5.62D-02
 Coeff-Com: -0.485D+00 0.929D+00 0.556D+00
 Coeff-En:   0.000D+00 0.000D+00 0.100D+01
 Coeff:     -0.458D+00 0.877D+00 0.581D+00
 Gap=     0.065 Goal=   None    Shift=    0.000
 RMSDP=5.87D-04 MaxDP=4.49D-02 DE=-4.09D-01 OVMax= 1.46D-01

 Cycle   4  Pass 1  IDiag  1:
 RMSU=  5.79D-04    CP:  1.04D+00  2.83D+00  9.50D-01
 E= -1421.02751709202     Delta-E=       -0.034554366340 Rises=F Damp=F
 DIIS: error= 4.16D-03 at cycle   4 NSaved=   4.
 NSaved= 4 IEnMin= 4 EnMin= -1421.02751709202     IErMin= 4 ErrMin= 4.16D-03
 ErrMax= 4.16D-03  0.00D+00 EMaxC= 1.00D-01 BMatC= 5.14D-02 BMatP= 9.12D-02
 IDIUse=3 WtCom= 9.58D-01 WtEn= 4.16D-02
 Coeff-Com: -0.176D+00 0.291D+00 0.431D+00 0.453D+00
 Coeff-En:   0.000D+00 0.000D+00 0.394D+00 0.606D+00
 Coeff:     -0.168D+00 0.279D+00 0.430D+00 0.460D+00
 Gap=     0.073 Goal=   None    Shift=    0.000
 RMSDP=3.12D-04 MaxDP=4.40D-02 DE=-3.46D-02 OVMax= 8.17D-02

 Cycle   5  Pass 1  IDiag  1:
 RMSU=  1.88D-04    CP:  1.04D+00  2.74D+00  9.05D-01  6.16D-01
 E= -1421.07020047755     Delta-E=       -0.042683385532 Rises=F Damp=F
 DIIS: error= 1.26D-03 at cycle   5 NSaved=   5.
 NSaved= 5 IEnMin= 5 EnMin= -1421.07020047755     IErMin= 5 ErrMin= 1.26D-03
 ErrMax= 1.26D-03  0.00D+00 EMaxC= 1.00D-01 BMatC= 4.52D-03 BMatP= 5.14D-02
 IDIUse=3 WtCom= 9.87D-01 WtEn= 1.26D-02
 Coeff-Com: -0.738D-01 0.109D+00 0.240D+00 0.308D+00 0.417D+00
 Coeff-En:   0.000D+00 0.000D+00 0.000D+00 0.455D-01 0.955D+00
 Coeff:     -0.729D-01 0.108D+00 0.237D+00 0.304D+00 0.424D+00
 Gap=     0.069 Goal=   None    Shift=    0.000
 RMSDP=8.63D-05 MaxDP=6.74D-03 DE=-4.27D-02 OVMax= 3.08D-02

 Cycle   6  Pass 1  IDiag  1:
 RMSU=  7.51D-05    CP:  1.04D+00  2.73D+00  8.89D-01  6.31D-01  8.43D-01
 E= -1421.07403241081     Delta-E=       -0.003831933263 Rises=F Damp=F
 DIIS: error= 4.84D-04 at cycle   6 NSaved=   6.
 NSaved= 6 IEnMin= 6 EnMin= -1421.07403241081     IErMin= 6 ErrMin= 4.84D-04
 ErrMax= 4.84D-04  0.00D+00 EMaxC= 1.00D-01 BMatC= 5.05D-04 BMatP= 4.52D-03
 IDIUse=3 WtCom= 9.95D-01 WtEn= 4.84D-03
 Coeff-Com: -0.286D-01 0.383D-01 0.960D-01 0.134D+00 0.279D+00 0.481D+00
 Coeff-En:   0.000D+00 0.000D+00 0.000D+00 0.000D+00 0.119D+00 0.881D+00
 Coeff:     -0.284D-01 0.382D-01 0.955D-01 0.134D+00 0.278D+00 0.482D+00
 Gap=     0.071 Goal=   None    Shift=    0.000
 RMSDP=3.85D-05 MaxDP=4.01D-03 DE=-3.83D-03 OVMax= 1.29D-02

 Cycle   7  Pass 1  IDiag  1:
 RMSU=  3.04D-05    CP:  1.04D+00  2.72D+00  8.80D-01  6.07D-01  8.91D-01
                    CP:  9.37D-01
 E= -1421.07448935549     Delta-E=       -0.000456944674 Rises=F Damp=F
 DIIS: error= 1.68D-04 at cycle   7 NSaved=   7.
 NSaved= 7 IEnMin= 7 EnMin= -1421.07448935549     IErMin= 7 ErrMin= 1.68D-04
 ErrMax= 1.68D-04  0.00D+00 EMaxC= 1.00D-01 BMatC= 7.88D-05 BMatP= 5.05D-04
 IDIUse=3 WtCom= 9.98D-01 WtEn= 1.68D-03
 Coeff-Com: -0.102D-01 0.127D-01 0.253D-01 0.376D-01 0.107D+00 0.320D+00
 Coeff-Com:  0.508D+00
 Coeff-En:   0.000D+00 0.000D+00 0.000D+00 0.000D+00 0.000D+00 0.157D+00
 Coeff-En:   0.843D+00
 Coeff:     -0.102D-01 0.127D-01 0.252D-01 0.375D-01 0.107D+00 0.320D+00
 Coeff:      0.508D+00
 Gap=     0.071 Goal=   None    Shift=    0.000
 RMSDP=1.45D-05 MaxDP=8.22D-04 DE=-4.57D-04 OVMax= 5.30D-03

 Cycle   8  Pass 1  IDiag  1:
 RMSU=  1.17D-05    CP:  1.04D+00  2.72D+00  8.77D-01  6.15D-01  9.06D-01
                    CP:  9.77D-01  8.53D-01
 E= -1421.07456520138     Delta-E=       -0.000075845893 Rises=F Damp=F
 DIIS: error= 5.90D-05 at cycle   8 NSaved=   8.
 NSaved= 8 IEnMin= 8 EnMin= -1421.07456520138     IErMin= 8 ErrMin= 5.90D-05
 ErrMax= 5.90D-05  0.00D+00 EMaxC= 1.00D-01 BMatC= 1.04D-05 BMatP= 7.88D-05
 IDIUse=1 WtCom= 1.00D+00 WtEn= 0.00D+00
 Coeff-Com: -0.296D-02 0.352D-02 0.561D-03 0.991D-03 0.192D-01 0.121D+00
 Coeff-Com:  0.310D+00 0.547D+00
 Coeff:     -0.296D-02 0.352D-02 0.561D-03 0.991D-03 0.192D-01 0.121D+00
 Coeff:      0.310D+00 0.547D+00
 Gap=     0.071 Goal=   None    Shift=    0.000
 RMSDP=6.38D-06 MaxDP=7.68D-04 DE=-7.58D-05 OVMax= 1.35D-03

 Cycle   9  Pass 1  IDiag  1:
 RMSU=  4.31D-06    CP:  1.04D+00  2.72D+00  8.76D-01  6.14D-01  9.11D-01
                    CP:  1.02D+00  9.29D-01  9.57D-01
 E= -1421.07457273352     Delta-E=       -0.000007532139 Rises=F Damp=F
 DIIS: error= 3.84D-05 at cycle   9 NSaved=   9.
 NSaved= 9 IEnMin= 9 EnMin= -1421.07457273352     IErMin= 9 ErrMin= 3.84D-05
 ErrMax= 3.84D-05  0.00D+00 EMaxC= 1.00D-01 BMatC= 2.09D-06 BMatP= 1.04D-05
 IDIUse=1 WtCom= 1.00D+00 WtEn= 0.00D+00
 Coeff-Com: -0.484D-03 0.574D-03-0.378D-02-0.615D-02-0.786D-02 0.155D-01
 Coeff-Com:  0.996D-01 0.353D+00 0.549D+00
 Coeff:     -0.484D-03 0.574D-03-0.378D-02-0.615D-02-0.786D-02 0.155D-01
 Coeff:      0.996D-01 0.353D+00 0.549D+00
 Gap=     0.071 Goal=   None    Shift=    0.000
 RMSDP=3.09D-06 MaxDP=4.07D-04 DE=-7.53D-06 OVMax= 4.54D-04

 Cycle  10  Pass 1  IDiag  1:
 RMSU=  1.58D-06    CP:  1.04D+00  2.72D+00  8.75D-01  6.14D-01  9.16D-01
                    CP:  1.02D+00  9.52D-01  1.06D+00  9.27D-01
 E= -1421.07457442683     Delta-E=       -0.000001693312 Rises=F Damp=F
 DIIS: error= 8.43D-06 at cycle  10 NSaved=  10.
 NSaved=10 IEnMin=10 EnMin= -1421.07457442683     IErMin=10 ErrMin= 8.43D-06
 ErrMax= 8.43D-06  0.00D+00 EMaxC= 1.00D-01 BMatC= 2.14D-07 BMatP= 2.09D-06
 IDIUse=1 WtCom= 1.00D+00 WtEn= 0.00D+00
 Coeff-Com: -0.877D-04 0.110D-03-0.210D-02-0.363D-02-0.653D-02-0.399D-02
 Coeff-Com:  0.250D-01 0.146D+00 0.315D+00 0.531D+00
 Coeff:     -0.877D-04 0.110D-03-0.210D-02-0.363D-02-0.653D-02-0.399D-02
 Coeff:      0.250D-01 0.146D+00 0.315D+00 0.531D+00
 Gap=     0.071 Goal=   None    Shift=    0.000
 RMSDP=1.24D-06 MaxDP=1.92D-04 DE=-1.69D-06 OVMax= 1.59D-04

 Cycle  11  Pass 1  IDiag  1:
 RMSU=  6.95D-07    CP:  1.04D+00  2.72D+00  8.75D-01  6.13D-01  9.17D-01
                    CP:  1.03D+00  9.61D-01  1.07D+00  9.66D-01  9.40D-01
 E= -1421.07457458575     Delta-E=       -0.000000158923 Rises=F Damp=F
 DIIS: error= 2.85D-06 at cycle  11 NSaved=  11.
 NSaved=11 IEnMin=11 EnMin= -1421.07457458575     IErMin=11 ErrMin= 2.85D-06
 ErrMax= 2.85D-06  0.00D+00 EMaxC= 1.00D-01 BMatC= 2.71D-08 BMatP= 2.14D-07
 IDIUse=1 WtCom= 1.00D+00 WtEn= 0.00D+00
 Coeff-Com: -0.803D-06 0.200D-04-0.344D-03-0.732D-03-0.206D-02-0.550D-02
 Coeff-Com: -0.664D-02 0.842D-02 0.616D-01 0.293D+00 0.652D+00
 Coeff:     -0.803D-06 0.200D-04-0.344D-03-0.732D-03-0.206D-02-0.550D-02
 Coeff:     -0.664D-02 0.842D-02 0.616D-01 0.293D+00 0.652D+00
 Gap=     0.071 Goal=   None    Shift=    0.000
 RMSDP=5.87D-07 MaxDP=7.10D-05 DE=-1.59D-07 OVMax= 4.30D-05

 Cycle  12  Pass 1  IDiag  1:
 RMSU=  3.15D-07    CP:  1.04D+00  2.72D+00  8.75D-01  6.13D-01  9.18D-01
                    CP:  1.03D+00  9.65D-01  1.08D+00  9.95D-01  1.03D+00
                    CP:  1.10D+00
 E= -1421.07457460608     Delta-E=       -0.000000020326 Rises=F Damp=F
 DIIS: error= 1.23D-06 at cycle  12 NSaved=  12.
 NSaved=12 IEnMin=12 EnMin= -1421.07457460608     IErMin=12 ErrMin= 1.23D-06
 ErrMax= 1.23D-06  0.00D+00 EMaxC= 1.00D-01 BMatC= 4.12D-09 BMatP= 2.71D-08
 IDIUse=1 WtCom= 1.00D+00 WtEn= 0.00D+00
 Coeff-Com: -0.707D-05 0.231D-04-0.425D-04-0.160D-03-0.768D-03-0.306D-02
 Coeff-Com: -0.585D-02-0.545D-02 0.151D-01 0.142D+00 0.396D+00 0.462D+00
 Coeff:     -0.707D-05 0.231D-04-0.425D-04-0.160D-03-0.768D-03-0.306D-02
 Coeff:     -0.585D-02-0.545D-02 0.151D-01 0.142D+00 0.396D+00 0.462D+00
 Gap=     0.071 Goal=   None    Shift=    0.000
 RMSDP=1.23D-07 MaxDP=2.15D-05 DE=-2.03D-08 OVMax= 2.26D-05

 Cycle  13  Pass 1  IDiag  1:
 RMSU=  7.60D-08    CP:  1.04D+00  2.72D+00  8.75D-01  6.13D-01  9.18D-01
                    CP:  1.03D+00  9.66D-01  1.08D+00  1.00D+00  1.05D+00
                    CP:  1.17D+00  1.00D+00
 E= -1421.07457460979     Delta-E=       -0.000000003704 Rises=F Damp=F
 DIIS: error= 3.50D-07 at cycle  13 NSaved=  13.
 NSaved=13 IEnMin=13 EnMin= -1421.07457460979     IErMin=13 ErrMin= 3.50D-07
 ErrMax= 3.50D-07  0.00D+00 EMaxC= 1.00D-01 BMatC= 4.84D-10 BMatP= 4.12D-09
 IDIUse=1 WtCom= 1.00D+00 WtEn= 0.00D+00
 Coeff-Com: -0.241D-05 0.719D-05 0.197D-04 0.145D-04-0.136D-03-0.937D-03
 Coeff-Com: -0.226D-02-0.435D-02-0.109D-02 0.346D-01 0.121D+00 0.279D+00
 Coeff-Com:  0.575D+00
 Coeff:     -0.241D-05 0.719D-05 0.197D-04 0.145D-04-0.136D-03-0.937D-03
 Coeff:     -0.226D-02-0.435D-02-0.109D-02 0.346D-01 0.121D+00 0.279D+00
 Coeff:      0.575D+00
 Gap=     0.071 Goal=   None    Shift=    0.000
 RMSDP=5.86D-08 MaxDP=7.92D-06 DE=-3.70D-09 OVMax= 1.16D-05

 Cycle  14  Pass 1  IDiag  1:
 RMSU=  3.17D-08    CP:  1.04D+00  2.72D+00  8.75D-01  6.13D-01  9.18D-01
                    CP:  1.03D+00  9.66D-01  1.09D+00  1.00D+00  1.06D+00
                    CP:  1.19D+00  1.08D+00  9.36D-01
 E= -1421.07457461022     Delta-E=       -0.000000000432 Rises=F Damp=F
 DIIS: error= 1.29D-07 at cycle  14 NSaved=  14.
 NSaved=14 IEnMin=14 EnMin= -1421.07457461022     IErMin=14 ErrMin= 1.29D-07
 ErrMax= 1.29D-07  0.00D+00 EMaxC= 1.00D-01 BMatC= 9.41D-11 BMatP= 4.84D-10
 IDIUse=1 WtCom= 1.00D+00 WtEn= 0.00D+00
 Coeff-Com: -0.132D-05 0.264D-05 0.185D-04 0.309D-04 0.175D-04-0.187D-03
 Coeff-Com: -0.637D-03-0.202D-02-0.270D-02 0.319D-02 0.240D-01 0.118D+00
 Coeff-Com:  0.371D+00 0.490D+00
 Coeff:     -0.132D-05 0.264D-05 0.185D-04 0.309D-04 0.175D-04-0.187D-03
 Coeff:     -0.637D-03-0.202D-02-0.270D-02 0.319D-02 0.240D-01 0.118D+00
 Coeff:      0.371D+00 0.490D+00
 Gap=     0.071 Goal=   None    Shift=    0.000
 RMSDP=2.14D-08 MaxDP=2.39D-06 DE=-4.32D-10 OVMax= 6.06D-06

 Cycle  15  Pass 1  IDiag  1:
 RMSU=  1.32D-08    CP:  1.04D+00  2.72D+00  8.75D-01  6.13D-01  9.18D-01
                    CP:  1.03D+00  9.67D-01  1.09D+00  1.00D+00  1.06D+00
                    CP:  1.19D+00  1.10D+00  1.02D+00  1.14D+00
 E= -1421.07457461028     Delta-E=       -0.000000000066 Rises=F Damp=F
 DIIS: error= 4.21D-08 at cycle  15 NSaved=  15.
 NSaved=15 IEnMin=15 EnMin= -1421.07457461028     IErMin=15 ErrMin= 4.21D-08
 ErrMax= 4.21D-08  0.00D+00 EMaxC= 1.00D-01 BMatC= 8.57D-12 BMatP= 9.41D-11
 IDIUse=1 WtCom= 1.00D+00 WtEn= 0.00D+00
 Coeff-Com: -0.272D-06 0.326D-06 0.719D-05 0.140D-04 0.265D-04 0.166D-04
 Coeff-Com: -0.471D-04-0.513D-03-0.136D-02-0.296D-02-0.294D-02 0.279D-01
 Coeff-Com:  0.128D+00 0.276D+00 0.576D+00
 Coeff:     -0.272D-06 0.326D-06 0.719D-05 0.140D-04 0.265D-04 0.166D-04
 Coeff:     -0.471D-04-0.513D-03-0.136D-02-0.296D-02-0.294D-02 0.279D-01
 Coeff:      0.128D+00 0.276D+00 0.576D+00
 Gap=     0.071 Goal=   None    Shift=    0.000
 RMSDP=1.03D-08 MaxDP=1.23D-06 DE=-6.64D-11 OVMax= 3.00D-06

 Cycle  16  Pass 1  IDiag  1:
 RMSU=  5.21D-09    CP:  1.04D+00  2.72D+00  8.75D-01  6.13D-01  9.18D-01
                    CP:  1.03D+00  9.67D-01  1.09D+00  1.00D+00  1.06D+00
                    CP:  1.20D+00  1.11D+00  1.04D+00  1.31D+00  1.16D+00
 E= -1421.07457461027     Delta-E=        0.000000000017 Rises=F Damp=F
 DIIS: error= 2.79D-08 at cycle  16 NSaved=  16.
 NSaved=16 IEnMin=15 EnMin= -1421.07457461028     IErMin=16 ErrMin= 2.79D-08
 ErrMax= 2.79D-08  0.00D+00 EMaxC= 1.00D-01 BMatC= 3.58D-12 BMatP= 8.57D-12
 IDIUse=1 WtCom= 1.00D+00 WtEn= 0.00D+00
 Coeff-Com:  0.176D-06-0.436D-06 0.166D-05 0.392D-05 0.151D-04 0.420D-04
 Coeff-Com:  0.780D-04 0.560D-06-0.502D-03-0.268D-02-0.630D-02-0.778D-03
 Coeff-Com:  0.271D-01 0.114D+00 0.425D+00 0.444D+00
 Coeff:      0.176D-06-0.436D-06 0.166D-05 0.392D-05 0.151D-04 0.420D-04
 Coeff:      0.780D-04 0.560D-06-0.502D-03-0.268D-02-0.630D-02-0.778D-03
 Coeff:      0.271D-01 0.114D+00 0.425D+00 0.444D+00
 Gap=     0.071 Goal=   None    Shift=    0.000
 RMSDP=4.64D-09 MaxDP=6.83D-07 DE= 1.73D-11 OVMax= 1.44D-06

 Error on total polarization charges =  0.06490
 SCF Done:  E(RM06L) =  -1421.07457461     A.U. after   16 cycles
            NFock= 16  Conv=0.46D-08     -V/T= 2.0042
 KE= 1.415100564588D+03 PE=-9.951453577828D+03 EE= 3.779906938658D+03
 SMD-CDS (non-electrostatic) energy       (kcal/mol) =      -1.17
 (included in total energy above)
 Leave Link  502 at Sat Apr  2 14:02:51 2022, MaxMem=  5242880000 cpu:     13801.6
 (Enter /opt/nce/packages/global/g09/l801.exe)
 DoSCS=F DFT=T ScalE2(SS,OS)=  1.000000  1.000000
 Range of M.O.s used for correlation:     1  1209
 NBasis=  1209 NAE=   118 NBE=   118 NFC=     0 NFV=     0
 NROrb=   1209 NOA=   118 NOB=   118 NVA=  1091 NVB=  1091

 **** Warning!!: The largest alpha MO coefficient is  0.51933927D+02


 **** Warning!!: The smallest alpha delta epsilon is  0.70637604D-01

 Leave Link  801 at Sat Apr  2 14:02:51 2022, MaxMem=  5242880000 cpu:         0.5
 (Enter /opt/nce/packages/global/g09/l1101.exe)
 Using compressed storage, NAtomX=    64.
 Will process     65 centers per pass.
   1 Symmetry operations used in ECPInt.
 ECPInt:  NShTT=  118828 NPrTT=  359100 LenC2=   90140 LenP2D=  184785.
 LDataN:  DoStor=T MaxTD1= 7 Len=  274
 Number of processors reduced to   5 by ecpmxn.
 Leave Link 1101 at Sat Apr  2 14:03:03 2022, MaxMem=  5242880000 cpu:       128.8
 (Enter /opt/nce/packages/global/g09/l1102.exe)
 Symmetrizing basis deriv contribution to polar:
 IMax=3 JMax=2 DiffMx= 0.00D+00
 Leave Link 1102 at Sat Apr  2 14:03:03 2022, MaxMem=  5242880000 cpu:         3.7
 (Enter /opt/nce/packages/global/g09/l1110.exe)
 Forming Gx(P) for the SCF density, NAtomX=    64.
 Integral derivatives from FoFJK, PRISM(SPDF).
 Do as many integral derivatives as possible in FoFJK.
 G2DrvN: MDV=    5242879384.
 G2DrvN: will do    65 centers at a time, making    1 passes.
 Calling FoFCou, ICntrl=  3507 FMM=T I1Cent=   0 AccDes= 0.00D+00.
 FoFJK:  IHMeth= 1 ICntrl=    3507 DoSepK=F KAlg= 0 I1Cent=   0 FoldK=F
 IRaf=         0 NMat=   1 IRICut=       1 DoRegI=T DoRafI=F ISym2E= 0.
 FoFCou: FMM=T IPFlag=           0 FMFlag=      100000 FMFlg1=        2001
         NFxFlg=           0 DoJE=F BraDBF=F KetDBF=F FulRan=T
         wScrn=  0.000000 ICntrl=    3507 IOpCl=  0 I1Cent=           0 NGrid=           0
         NMat0=    1 NMatS0=      1 NMatT0=    0 NMatD0=    1 NMtDS0=    0 NMtDT0=    0
 Symmetry not used in FoFCou.
 FMM levels:  10  Number of levels for PrismC:   9
 NEqPCM:  Using equilibrium solvation (IEInf=0, Eps=  24.8520, EpsInf=   1.8526)
 G2PCM: DoFxE=T DoFxN=T DoGrad=T DoDP/DQ/DG/TGxP=FFFF NFrqRd=   0 IEInf=0 SqF1=F DoCFld=F IF1Alg=4.
 GePol: Maximum number of non-zero 1st derivatives   =     261
 End of G2Drv F.D. properties file   721 does not exist.
 End of G2Drv F.D. properties file   722 does not exist.
 End of G2Drv F.D. properties file   788 does not exist.
 Leave Link 1110 at Sat Apr  2 15:24:35 2022, MaxMem=  5242880000 cpu:     58229.7
 (Enter /opt/nce/packages/global/g09/l1002.exe)
 Minotr:  Closed shell wavefunction.
          IDoAtm=11111111111111111111111111111111111111111111111111
          IDoAtm=11111111111111
 NEqPCM:  Using equilibrium solvation (IEInf=0, Eps=  24.8520, EpsInf=   1.8526)
          Direct CPHF calculation.
          Differentiating once with respect to electric field.
                with respect to dipole field.
          Differentiating once with respect to nuclear coordinates.
          Requested convergence is 1.0D-08 RMS, and 1.0D-07 maximum.
          Secondary convergence is 1.0D-12 RMS, and 1.0D-12 maximum.
          NewPWx=T KeepS1=F KeepF1=F KeepIn=T MapXYZ=F SortEE=F KeepMc=T.
          MDV=    5242878147 using IRadAn=       1.
 Generate precomputed XC quadrature information.
          Solving linear equations simultaneously, MaxMat=      72.
 FoF2E skips out because all densities are zero.
 CalDSu exits because no D1Ps are significant.
 FoFJK:  IHMeth= 1 ICntrl=     500 DoSepK=F KAlg= 0 I1Cent=   0 FoldK=F
 IRaf= 720000000 NMat=  72 IRICut=       1 DoRegI=T DoRafI=F ISym2E= 0.
          There are   195 degrees of freedom in the 1st order CPHF.  IDoFFX=6 NUNeed=     3.
    195 vectors produced by pass  0 Test12= 1.29D-13 1.00D-09 XBig12= 3.60D+03 5.61D+01.
 AX will form    72 AO Fock derivatives at one time.
    192 vectors produced by pass  1 Test12= 1.29D-13 1.00D-09 XBig12= 5.44D+02 2.00D+00.
    192 vectors produced by pass  2 Test12= 1.29D-13 1.00D-09 XBig12= 4.04D+00 1.26D-01.
    192 vectors produced by pass  3 Test12= 1.29D-13 1.00D-09 XBig12= 5.17D-02 8.62D-03.
    192 vectors produced by pass  4 Test12= 1.29D-13 1.00D-09 XBig12= 2.53D-04 6.46D-04.
    191 vectors produced by pass  5 Test12= 1.29D-13 1.00D-09 XBig12= 7.51D-07 4.40D-05.
     93 vectors produced by pass  6 Test12= 1.29D-13 1.00D-09 XBig12= 1.74D-09 1.55D-06.
     58 vectors produced by pass  7 Test12= 1.29D-13 1.00D-09 XBig12= 4.35D-12 6.33D-08.
     12 vectors produced by pass  8 Test12= 1.29D-13 1.00D-09 XBig12= 2.48D-14 4.72D-09.
     12 vectors produced by pass  9 Test12= 1.29D-13 1.00D-09 XBig12= 2.76D-14 7.02D-09.
     12 vectors produced by pass 10 Test12= 1.29D-13 1.00D-09 XBig12= 1.95D-14 5.79D-09.
      7 vectors produced by pass 11 Test12= 1.29D-13 1.00D-09 XBig12= 6.61D-15 4.43D-09.
      7 vectors produced by pass 12 Test12= 1.29D-13 1.00D-09 XBig12= 2.95D-14 7.47D-09.
      7 vectors produced by pass 13 Test12= 1.29D-13 1.00D-09 XBig12= 1.30D-14 3.98D-09.
      6 vectors produced by pass 14 Test12= 1.29D-13 1.00D-09 XBig12= 9.45D-15 3.97D-09.
      6 vectors produced by pass 15 Test12= 1.29D-13 1.00D-09 XBig12= 1.20D-14 4.96D-09.
      3 vectors produced by pass 16 Test12= 1.29D-13 1.00D-09 XBig12= 4.82D-15 2.50D-09.
 InvSVY:  IOpt=1 It=  1 EMax= 2.84D-14
 Solved reduced A of dimension  1377 with   195 vectors.
 FullF1:  Do perturbations    1 to     3.
 Isotropic polarizability for W=    0.000000      679.94 Bohr**3.
 End of Minotr F.D. properties file   721 does not exist.
 End of Minotr F.D. properties file   722 does not exist.
 End of Minotr F.D. properties file   788 does not exist.
 Leave Link 1002 at Sat Apr  2 19:48:38 2022, MaxMem=  5242880000 cpu:    189638.8
 (Enter /opt/nce/packages/global/g09/l601.exe)
 Copying SCF densities to generalized density rwf, IOpCl= 0 IROHF=0.

 **********************************************************************

            Population analysis using the SCF density.

 **********************************************************************

 Alpha  occ. eigenvalues --  -19.04924 -19.01801 -18.96203 -14.21819 -14.21792
 Alpha  occ. eigenvalues --  -10.18809 -10.13921 -10.13912 -10.11794 -10.11763
 Alpha  occ. eigenvalues --  -10.10565 -10.08676 -10.08522 -10.08509 -10.08503
 Alpha  occ. eigenvalues --  -10.08500 -10.08056 -10.07736 -10.07719 -10.06953
 Alpha  occ. eigenvalues --  -10.06937 -10.06547 -10.06513 -10.06422 -10.06079
 Alpha  occ. eigenvalues --  -10.06035 -10.06027 -10.05538 -10.05533 -10.03960
 Alpha  occ. eigenvalues --  -10.03958 -10.03942 -10.03922  -1.09962  -1.08691
 Alpha  occ. eigenvalues --   -0.99926  -0.94016  -0.93979  -0.86191  -0.84221
 Alpha  occ. eigenvalues --   -0.83463  -0.79024  -0.75927  -0.74755  -0.74412
 Alpha  occ. eigenvalues --   -0.74395  -0.73833  -0.73484  -0.71782  -0.70636
 Alpha  occ. eigenvalues --   -0.68884  -0.65175  -0.63692  -0.63533  -0.61726
 Alpha  occ. eigenvalues --   -0.61176  -0.60588  -0.59298  -0.57899  -0.57019
 Alpha  occ. eigenvalues --   -0.56527  -0.55911  -0.51946  -0.51818  -0.50660
 Alpha  occ. eigenvalues --   -0.49003  -0.48448  -0.47672  -0.47009  -0.46895
 Alpha  occ. eigenvalues --   -0.45987  -0.45228  -0.44844  -0.44228  -0.43871
 Alpha  occ. eigenvalues --   -0.42541  -0.42414  -0.42151  -0.41904  -0.41592
 Alpha  occ. eigenvalues --   -0.41023  -0.40351  -0.40082  -0.39888  -0.39812
 Alpha  occ. eigenvalues --   -0.39466  -0.39078  -0.38916  -0.37579  -0.36837
 Alpha  occ. eigenvalues --   -0.36712  -0.36350  -0.35920  -0.35840  -0.35503
 Alpha  occ. eigenvalues --   -0.34941  -0.34565  -0.34536  -0.34157  -0.33961
 Alpha  occ. eigenvalues --   -0.33311  -0.32979  -0.32494  -0.31894  -0.31820
 Alpha  occ. eigenvalues --   -0.31363  -0.31181  -0.30600  -0.30242  -0.30072
 Alpha  occ. eigenvalues --   -0.28488  -0.26429  -0.26043  -0.25174  -0.24803
 Alpha  occ. eigenvalues --   -0.23393  -0.21179  -0.18706
 Alpha virt. eigenvalues --   -0.11643  -0.08088  -0.05160  -0.04338  -0.03202
 Alpha virt. eigenvalues --   -0.02951   0.01016   0.02170   0.04301   0.04627
 Alpha virt. eigenvalues --    0.05464   0.06172   0.06572   0.06686   0.06857
 Alpha virt. eigenvalues --    0.07337   0.07546   0.08023   0.08476   0.08926
 Alpha virt. eigenvalues --    0.09043   0.09547   0.10287   0.10444   0.10634
 Alpha virt. eigenvalues --    0.10852   0.10862   0.11063   0.11365   0.11554
 Alpha virt. eigenvalues --    0.11611   0.11659   0.11904   0.12342   0.12403
 Alpha virt. eigenvalues --    0.12514   0.12868   0.13126   0.13676   0.13755
 Alpha virt. eigenvalues --    0.14448   0.14517   0.14677   0.15036   0.15464
 Alpha virt. eigenvalues --    0.15848   0.16081   0.16593   0.16885   0.17140
 Alpha virt. eigenvalues --    0.17443   0.18142   0.18294   0.19212   0.19256
 Alpha virt. eigenvalues --    0.19648   0.19791   0.20211   0.20458   0.20835
 Alpha virt. eigenvalues --    0.21048   0.21113   0.21623   0.21958   0.22279
 Alpha virt. eigenvalues --    0.22368   0.22827   0.23158   0.23557   0.24105
 Alpha virt. eigenvalues --    0.24170   0.24723   0.24987   0.25177   0.25462
 Alpha virt. eigenvalues --    0.25661   0.25753   0.25962   0.26245   0.26486
 Alpha virt. eigenvalues --    0.26565   0.26965   0.27504   0.27954   0.28374
 Alpha virt. eigenvalues --    0.28487   0.28953   0.29000   0.29170   0.29319
 Alpha virt. eigenvalues --    0.29428   0.29713   0.30107   0.30250   0.30689
 Alpha virt. eigenvalues --    0.31250   0.31629   0.31934   0.32247   0.32429
 Alpha virt. eigenvalues --    0.32810   0.33054   0.33152   0.33537   0.33934
 Alpha virt. eigenvalues --    0.34626   0.34770   0.34949   0.35308   0.35506
 Alpha virt. eigenvalues --    0.35867   0.36237   0.36587   0.36801   0.37510
 Alpha virt. eigenvalues --    0.37584   0.37919   0.38397   0.38592   0.38621
 Alpha virt. eigenvalues --    0.38957   0.39244   0.39603   0.39889   0.39939
 Alpha virt. eigenvalues --    0.40155   0.40318   0.40582   0.40884   0.41311
 Alpha virt. eigenvalues --    0.41429   0.41467   0.41744   0.41929   0.42052
 Alpha virt. eigenvalues --    0.42175   0.42453   0.42595   0.42889   0.43020
 Alpha virt. eigenvalues --    0.43115   0.43359   0.43551   0.43791   0.44078
 Alpha virt. eigenvalues --    0.44310   0.44457   0.44630   0.45030   0.45116
 Alpha virt. eigenvalues --    0.45340   0.45540   0.45926   0.46037   0.46169
 Alpha virt. eigenvalues --    0.46438   0.46749   0.47249   0.47579   0.47607
 Alpha virt. eigenvalues --    0.48049   0.48473   0.48801   0.49193   0.49351
 Alpha virt. eigenvalues --    0.49713   0.50052   0.50270   0.50649   0.50823
 Alpha virt. eigenvalues --    0.51762   0.52020   0.52319   0.52966   0.53169
 Alpha virt. eigenvalues --    0.54159   0.54661   0.55105   0.55494   0.56195
 Alpha virt. eigenvalues --    0.56597   0.56917   0.57366   0.57655   0.57872
 Alpha virt. eigenvalues --    0.58772   0.59066   0.59114   0.59513   0.60053
 Alpha virt. eigenvalues --    0.60362   0.60412   0.60758   0.61274   0.61609
 Alpha virt. eigenvalues --    0.61917   0.62666   0.63089   0.63517   0.63733
 Alpha virt. eigenvalues --    0.64232   0.64479   0.64936   0.65250   0.65874
 Alpha virt. eigenvalues --    0.65988   0.66667   0.66807   0.66999   0.67547
 Alpha virt. eigenvalues --    0.68018   0.68865   0.69003   0.69383   0.69492
 Alpha virt. eigenvalues --    0.69772   0.70036   0.70367   0.70595   0.70794
 Alpha virt. eigenvalues --    0.71063   0.71815   0.72143   0.72370   0.72603
 Alpha virt. eigenvalues --    0.73397   0.74009   0.74213   0.74288   0.75332
 Alpha virt. eigenvalues --    0.75608   0.76066   0.76839   0.77274   0.77748
 Alpha virt. eigenvalues --    0.77943   0.78436   0.78868   0.79307   0.79866
 Alpha virt. eigenvalues --    0.80151   0.80563   0.81186   0.81267   0.81718
 Alpha virt. eigenvalues --    0.82002   0.82304   0.82650   0.83208   0.83534
 Alpha virt. eigenvalues --    0.83718   0.84004   0.84256   0.84561   0.85134
 Alpha virt. eigenvalues --    0.85721   0.86064   0.86479   0.86890   0.87550
 Alpha virt. eigenvalues --    0.88325   0.88727   0.89056   0.89408   0.90377
 Alpha virt. eigenvalues --    0.90758   0.91679   0.91759   0.92398   0.93653
 Alpha virt. eigenvalues --    0.93962   0.94304   0.94635   0.95093   0.95455
 Alpha virt. eigenvalues --    0.96450   0.96656   0.97430   0.97748   0.98224
 Alpha virt. eigenvalues --    0.98701   0.99484   1.00125   1.00790   1.01837
 Alpha virt. eigenvalues --    1.02393   1.02946   1.03298   1.03985   1.04306
 Alpha virt. eigenvalues --    1.04487   1.05304   1.05623   1.05852   1.06793
 Alpha virt. eigenvalues --    1.07372   1.07543   1.08246   1.08572   1.08877
 Alpha virt. eigenvalues --    1.09082   1.09573   1.10199   1.11193   1.11879
 Alpha virt. eigenvalues --    1.12055   1.12982   1.13326   1.13579   1.14336
 Alpha virt. eigenvalues --    1.14920   1.15442   1.15602   1.15780   1.16421
 Alpha virt. eigenvalues --    1.17156   1.17964   1.18257   1.19371   1.20376
 Alpha virt. eigenvalues --    1.20436   1.20529   1.21041   1.21522   1.21993
 Alpha virt. eigenvalues --    1.22345   1.22822   1.24093   1.24726   1.25101
 Alpha virt. eigenvalues --    1.25697   1.26213   1.26306   1.26680   1.26859
 Alpha virt. eigenvalues --    1.28522   1.28556   1.29434   1.29902   1.30460
 Alpha virt. eigenvalues --    1.30644   1.31006   1.31654   1.32740   1.33077
 Alpha virt. eigenvalues --    1.33605   1.34306   1.35257   1.35811   1.36861
 Alpha virt. eigenvalues --    1.37412   1.38237   1.38496   1.40061   1.40276
 Alpha virt. eigenvalues --    1.41161   1.42567   1.42959   1.43552   1.43908
 Alpha virt. eigenvalues --    1.44508   1.44929   1.45800   1.46103   1.46692
 Alpha virt. eigenvalues --    1.46833   1.48238   1.49073   1.49619   1.49861
 Alpha virt. eigenvalues --    1.50224   1.50857   1.51104   1.51536   1.51831
 Alpha virt. eigenvalues --    1.52290   1.52430   1.52643   1.52840   1.52887
 Alpha virt. eigenvalues --    1.53413   1.53502   1.54375   1.54485   1.54683
 Alpha virt. eigenvalues --    1.55076   1.55270   1.55509   1.55589   1.55991
 Alpha virt. eigenvalues --    1.56528   1.56667   1.56822   1.57520   1.57686
 Alpha virt. eigenvalues --    1.57915   1.58552   1.58668   1.58951   1.58995
 Alpha virt. eigenvalues --    1.59427   1.59650   1.60201   1.60687   1.61496
 Alpha virt. eigenvalues --    1.61693   1.62800   1.62894   1.62982   1.63733
 Alpha virt. eigenvalues --    1.64127   1.65091   1.65211   1.66167   1.66673
 Alpha virt. eigenvalues --    1.67112   1.67513   1.67946   1.68779   1.68910
 Alpha virt. eigenvalues --    1.69504   1.70351   1.71444   1.71695   1.71994
 Alpha virt. eigenvalues --    1.72904   1.73095   1.73626   1.74426   1.74899
 Alpha virt. eigenvalues --    1.75128   1.75233   1.76296   1.76775   1.76964
 Alpha virt. eigenvalues --    1.77616   1.77876   1.78073   1.78824   1.79944
 Alpha virt. eigenvalues --    1.80441   1.80639   1.81422   1.81950   1.82052
 Alpha virt. eigenvalues --    1.82563   1.83258   1.83691   1.84502   1.85375
 Alpha virt. eigenvalues --    1.85795   1.86394   1.86789   1.87719   1.87913
 Alpha virt. eigenvalues --    1.88588   1.88793   1.89012   1.89335   1.89892
 Alpha virt. eigenvalues --    1.90067   1.91625   1.92189   1.92508   1.93116
 Alpha virt. eigenvalues --    1.93434   1.93909   1.94325   1.94731   1.95493
 Alpha virt. eigenvalues --    1.95677   1.96326   1.96723   1.98440   1.98852
 Alpha virt. eigenvalues --    1.99367   2.00172   2.01133   2.01937   2.02220
 Alpha virt. eigenvalues --    2.02767   2.03478   2.03577   2.04074   2.04577
 Alpha virt. eigenvalues --    2.05156   2.05722   2.06069   2.07034   2.07432
 Alpha virt. eigenvalues --    2.08025   2.08678   2.10230   2.10762   2.11011
 Alpha virt. eigenvalues --    2.11233   2.11835   2.11957   2.12450   2.14576
 Alpha virt. eigenvalues --    2.15494   2.17763   2.18440   2.19050   2.19270
 Alpha virt. eigenvalues --    2.19906   2.20235   2.20539   2.20921   2.21017
 Alpha virt. eigenvalues --    2.21505   2.21544   2.21866   2.22509   2.23360
 Alpha virt. eigenvalues --    2.24074   2.24998   2.25359   2.25975   2.26217
 Alpha virt. eigenvalues --    2.26779   2.28476   2.29443   2.30646   2.31189
 Alpha virt. eigenvalues --    2.31459   2.32465   2.32525   2.33630   2.34014
 Alpha virt. eigenvalues --    2.34209   2.34558   2.35172   2.35362   2.35780
 Alpha virt. eigenvalues --    2.36139   2.36550   2.37422   2.37686   2.37865
 Alpha virt. eigenvalues --    2.38458   2.38489   2.39779   2.39903   2.40320
 Alpha virt. eigenvalues --    2.41013   2.41411   2.42156   2.42261   2.42506
 Alpha virt. eigenvalues --    2.43055   2.43421   2.43695   2.45168   2.45243
 Alpha virt. eigenvalues --    2.45807   2.46902   2.47539   2.48529   2.49961
 Alpha virt. eigenvalues --    2.50460   2.50950   2.51214   2.52020   2.52372
 Alpha virt. eigenvalues --    2.53109   2.53836   2.54667   2.54756   2.55202
 Alpha virt. eigenvalues --    2.56833   2.57501   2.57750   2.58531   2.58627
 Alpha virt. eigenvalues --    2.59970   2.60419   2.60915   2.61315   2.62254
 Alpha virt. eigenvalues --    2.62444   2.62825   2.63147   2.63202   2.63507
 Alpha virt. eigenvalues --    2.63726   2.64120   2.64703   2.65232   2.65594
 Alpha virt. eigenvalues --    2.66009   2.66849   2.67188   2.67672   2.68271
 Alpha virt. eigenvalues --    2.68481   2.69091   2.69245   2.69449   2.69513
 Alpha virt. eigenvalues --    2.69924   2.70145   2.70465   2.70654   2.70746
 Alpha virt. eigenvalues --    2.70988   2.71424   2.71920   2.72744   2.72966
 Alpha virt. eigenvalues --    2.74002   2.74082   2.74446   2.75530   2.75975
 Alpha virt. eigenvalues --    2.76063   2.76216   2.76915   2.76920   2.78022
 Alpha virt. eigenvalues --    2.78247   2.78941   2.79516   2.80235   2.80579
 Alpha virt. eigenvalues --    2.80746   2.81869   2.82550   2.82886   2.83106
 Alpha virt. eigenvalues --    2.84215   2.84345   2.85037   2.85137   2.86148
 Alpha virt. eigenvalues --    2.86336   2.86446   2.87361   2.87474   2.88210
 Alpha virt. eigenvalues --    2.88540   2.88988   2.89100   2.89709   2.90385
 Alpha virt. eigenvalues --    2.90511   2.90751   2.91272   2.92124   2.92507
 Alpha virt. eigenvalues --    2.92788   2.93067   2.93559   2.94563   2.94665
 Alpha virt. eigenvalues --    2.94776   2.95756   2.96259   2.96723   2.96899
 Alpha virt. eigenvalues --    2.97604   2.98917   2.99091   2.99400   2.99875
 Alpha virt. eigenvalues --    3.00529   3.00758   3.01359   3.01890   3.02482
 Alpha virt. eigenvalues --    3.02704   3.02990   3.04170   3.04999   3.05705
 Alpha virt. eigenvalues --    3.05922   3.06393   3.06756   3.07785   3.08159
 Alpha virt. eigenvalues --    3.08497   3.09091   3.09578   3.09913   3.10366
 Alpha virt. eigenvalues --    3.10608   3.10864   3.11032   3.11277   3.12117
 Alpha virt. eigenvalues --    3.12360   3.13937   3.14196   3.15012   3.15118
 Alpha virt. eigenvalues --    3.15795   3.15940   3.16755   3.17051   3.17514
 Alpha virt. eigenvalues --    3.18123   3.18708   3.18872   3.19516   3.19710
 Alpha virt. eigenvalues --    3.20198   3.20772   3.20978   3.21649   3.22222
 Alpha virt. eigenvalues --    3.23078   3.23214   3.23445   3.23855   3.24000
 Alpha virt. eigenvalues --    3.24384   3.25030   3.25474   3.25659   3.26232
 Alpha virt. eigenvalues --    3.26374   3.26836   3.27306   3.27576   3.28480
 Alpha virt. eigenvalues --    3.29537   3.29629   3.29911   3.30544   3.31131
 Alpha virt. eigenvalues --    3.31766   3.32214   3.32660   3.32861   3.33375
 Alpha virt. eigenvalues --    3.33648   3.34161   3.34350   3.34814   3.34849
 Alpha virt. eigenvalues --    3.35114   3.35476   3.36018   3.36266   3.37035
 Alpha virt. eigenvalues --    3.37109   3.37258   3.38149   3.38282   3.38676
 Alpha virt. eigenvalues --    3.39473   3.39765   3.40078   3.40310   3.41245
 Alpha virt. eigenvalues --    3.41552   3.41635   3.42316   3.42981   3.43330
 Alpha virt. eigenvalues --    3.43387   3.44217   3.44435   3.45102   3.45307
 Alpha virt. eigenvalues --    3.45477   3.45897   3.46124   3.46874   3.47448
 Alpha virt. eigenvalues --    3.47562   3.47920   3.48174   3.48730   3.49430
 Alpha virt. eigenvalues --    3.49659   3.49710   3.50465   3.50896   3.51165
 Alpha virt. eigenvalues --    3.51629   3.52322   3.52452   3.52593   3.53666
 Alpha virt. eigenvalues --    3.54137   3.54417   3.54609   3.54981   3.55490
 Alpha virt. eigenvalues --    3.55975   3.56673   3.56924   3.57530   3.57594
 Alpha virt. eigenvalues --    3.58570   3.59047   3.59613   3.60419   3.60760
 Alpha virt. eigenvalues --    3.61275   3.61761   3.61792   3.62622   3.63097
 Alpha virt. eigenvalues --    3.63823   3.64237   3.65080   3.65769   3.66857
 Alpha virt. eigenvalues --    3.67308   3.67523   3.68326   3.68593   3.69117
 Alpha virt. eigenvalues --    3.69245   3.70066   3.70450   3.71514   3.72095
 Alpha virt. eigenvalues --    3.72698   3.73630   3.73970   3.75069   3.75756
 Alpha virt. eigenvalues --    3.76772   3.77240   3.77471   3.78216   3.79259
 Alpha virt. eigenvalues --    3.79691   3.81056   3.82257   3.82972   3.83725
 Alpha virt. eigenvalues --    3.84721   3.84932   3.85799   3.85976   3.86401
 Alpha virt. eigenvalues --    3.86757   3.87224   3.88359   3.88763   3.90248
 Alpha virt. eigenvalues --    3.91162   3.91569   3.92517   3.93105   3.94558
 Alpha virt. eigenvalues --    3.94952   3.95699   3.96645   3.97193   3.97587
 Alpha virt. eigenvalues --    3.97979   3.98461   3.99336   3.99480   4.00156
 Alpha virt. eigenvalues --    4.00490   4.01380   4.02466   4.03161   4.03878
 Alpha virt. eigenvalues --    4.04615   4.05152   4.06316   4.06529   4.07032
 Alpha virt. eigenvalues --    4.07193   4.08852   4.09421   4.10291   4.10699
 Alpha virt. eigenvalues --    4.12074   4.12465   4.12872   4.13170   4.14071
 Alpha virt. eigenvalues --    4.15381   4.15604   4.16693   4.17129   4.17931
 Alpha virt. eigenvalues --    4.18933   4.19826   4.21194   4.22069   4.22216
 Alpha virt. eigenvalues --    4.23113   4.23511   4.24224   4.25667   4.26300
 Alpha virt. eigenvalues --    4.27913   4.28317   4.28996   4.29412   4.30400
 Alpha virt. eigenvalues --    4.31335   4.32101   4.32703   4.33347   4.34060
 Alpha virt. eigenvalues --    4.34460   4.34616   4.34798   4.35211   4.35820
 Alpha virt. eigenvalues --    4.36820   4.37166   4.37884   4.38367   4.39483
 Alpha virt. eigenvalues --    4.39973   4.40425   4.40914   4.41682   4.42617
 Alpha virt. eigenvalues --    4.44229   4.44426   4.45283   4.45609   4.45799
 Alpha virt. eigenvalues --    4.46721   4.48545   4.48763   4.49040   4.49849
 Alpha virt. eigenvalues --    4.50520   4.52421   4.53253   4.54115   4.54254
 Alpha virt. eigenvalues --    4.55133   4.56438   4.57619   4.57752   4.60181
 Alpha virt. eigenvalues --    4.60913   4.62672   4.63400   4.66193   4.66408
 Alpha virt. eigenvalues --    4.70185   4.70829   4.72358   4.74199   4.75428
 Alpha virt. eigenvalues --    4.77398   4.77421   4.79855   4.81893   4.83055
 Alpha virt. eigenvalues --    4.83644   4.84474   4.87403   4.89125   4.89798
 Alpha virt. eigenvalues --    4.91023   4.91376   4.91601   4.91993   4.93472
 Alpha virt. eigenvalues --    4.94793   4.95424   4.98077   5.00953   5.02904
 Alpha virt. eigenvalues --    5.03464   5.05563   5.09291   5.12356   5.13213
 Alpha virt. eigenvalues --    5.13642   5.15553   5.16298   5.17491   5.18371
 Alpha virt. eigenvalues --    5.20922   5.21620   5.25122   5.25780   5.26810
 Alpha virt. eigenvalues --    5.26974   5.28438   5.28742   5.30027   5.30724
 Alpha virt. eigenvalues --    5.31564   5.34897   5.36391   5.37580   5.38815
 Alpha virt. eigenvalues --    5.41259   5.41962   5.42292   5.44486   5.45356
 Alpha virt. eigenvalues --    5.46665   5.49768   5.51190   5.51784   5.52074
 Alpha virt. eigenvalues --    5.53006   5.53995   5.56886   5.58421   5.63483
 Alpha virt. eigenvalues --    5.63622   5.64196   5.66523   5.69961   5.73262
 Alpha virt. eigenvalues --    5.73660   5.78283   5.80085   5.83240   5.86893
 Alpha virt. eigenvalues --    5.90781   5.91609   5.92335   5.93875   5.94539
 Alpha virt. eigenvalues --    5.96348   6.05123   6.05696   6.08013   6.09561
 Alpha virt. eigenvalues --    6.10727   6.10819   6.11840   6.13062   6.26028
 Alpha virt. eigenvalues --    6.28812   6.31207   6.41090   6.43061   6.47760
 Alpha virt. eigenvalues --    6.52573   6.65276   6.66768   6.71646   6.75906
 Alpha virt. eigenvalues --    6.87810   6.88189   6.98621   7.00895   7.02384
 Alpha virt. eigenvalues --    7.02564   7.04221   7.10031   7.24216   7.35850
 Alpha virt. eigenvalues --    7.55544   7.62457   7.67685  22.32577  22.43267
 Alpha virt. eigenvalues --   22.45678  22.47122  22.47354  22.54187  22.67633
 Alpha virt. eigenvalues --   22.67741  22.70769  22.71358  22.72391  22.73561
 Alpha virt. eigenvalues --   22.82040  22.87115  22.94143  22.95221  23.01994
 Alpha virt. eigenvalues --   23.04136  23.08301  23.09989  23.19951  23.22093
 Alpha virt. eigenvalues --   23.26109  23.38469  23.48088  23.62130  23.68207
 Alpha virt. eigenvalues --   23.95041  33.15760  33.16450  44.10904  44.13594
 Alpha virt. eigenvalues --   44.76661
          Condensed to atoms (all electrons):
 Mulliken charges:
               1
     1  C    0.593448
     2  C   -0.467075
     3  C    0.424450
     4  C    0.040716
     5  C   -0.114258
     6  C   -0.348746
     7  C    0.407309
     8  C    0.169564
     9  C    0.359360
    10  C   -0.428738
    11  H    0.122235
    12  C    0.552388
    13  C   -0.279876
    14  C   -0.258913
    15  H    0.122925
    16  H    0.155047
    17  H    0.111246
    18  H    0.113246
    19  H    0.164546
    20  O   -0.506326
    21  C   -0.116494
    22  C   -0.365159
    23  C   -0.242173
    24  C    0.005255
    25  H    0.105413
    26  C    0.004832
    27  C   -0.116064
    28  H    0.099789
    29  H    0.097781
    30  H    0.098294
    31  N   -0.162907
    32  C    0.044265
    33  H    0.077519
    34  H    0.081776
    35  C   -0.217640
    36  H    0.070140
    37  H    0.073991
    38  H    0.078695
    39  C    0.755791
    40  O   -0.532842
    41  O   -0.638414
    42  C    0.052548
    43  H    0.081451
    44  H    0.076137
    45  C   -0.222408
    46  H    0.074148
    47  H    0.080345
    48  H    0.070640
    49  C    0.052166
    50  H    0.075515
    51  H    0.081245
    52  C    0.046347
    53  H    0.077652
    54  H    0.080819
    55  C   -0.218924
    56  H    0.073965
    57  H    0.079455
    58  H    0.070058
    59  C   -0.220951
    60  H    0.070453
    61  H    0.074116
    62  H    0.079172
    63  N   -0.164135
    64  H    0.395791
 Sum of Mulliken charges =   1.00000
 Mulliken charges with hydrogens summed into heavy atoms:
               1
     1  C    0.593448
     2  C   -0.344149
     3  C    0.424450
     4  C    0.040716
     5  C    0.040789
     6  C   -0.237500
     7  C    0.407309
     8  C    0.169564
     9  C    0.359360
    10  C   -0.306503
    12  C    0.552388
    13  C   -0.166630
    14  C   -0.094366
    20  O   -0.506326
    21  C   -0.116494
    22  C   -0.259746
    23  C   -0.242173
    24  C    0.105043
    26  C    0.102613
    27  C   -0.017771
    31  N   -0.162907
    32  C    0.203560
    35  C    0.005186
    39  C    0.755791
    40  O   -0.137050
    41  O   -0.638414
    42  C    0.210135
    45  C    0.002725
    49  C    0.208926
    52  C    0.204818
    55  C    0.004554
    59  C    0.002791
    63  N   -0.164135
 APT charges:
               1
     1  C    1.384322
     2  C   -0.949664
     3  C    1.193178
     4  C   -1.315391
     5  C    0.766964
     6  C   -0.591698
     7  C    2.016259
     8  C   -1.336114
     9  C    1.198071
    10  C   -0.943753
    11  H    0.095573
    12  C    1.369661
    13  C   -0.589020
    14  C    0.754948
    15  H    0.091567
    16  H    0.080047
    17  H    0.069562
    18  H    0.065974
    19  H    0.080555
    20  O   -0.945763
    21  C    0.107652
    22  C   -0.187435
    23  C   -0.284854
    24  C    0.048160
    25  H    0.058775
    26  C   -0.039857
    27  C   -0.086864
    28  H    0.045043
    29  H    0.075096
    30  H    0.050804
    31  N   -1.530872
    32  C    0.646970
    33  H   -0.053012
    34  H   -0.065313
    35  C   -0.014392
    36  H   -0.012099
    37  H   -0.038870
    38  H   -0.011437
    39  C    1.892379
    40  O   -0.994904
    41  O   -1.143256
    42  C    0.472761
    43  H   -0.040307
    44  H   -0.029691
    45  C    0.018491
    46  H   -0.017761
    47  H   -0.009519
    48  H   -0.016356
    49  C    0.470769
    50  H   -0.033938
    51  H   -0.036319
    52  C    0.649173
    53  H   -0.050374
    54  H   -0.066770
    55  C   -0.014989
    56  H   -0.037176
    57  H   -0.011188
    58  H   -0.012268
    59  C    0.021460
    60  H   -0.016586
    61  H   -0.018694
    62  H   -0.008846
    63  N   -1.528546
    64  H    0.359684
 Sum of APT charges =   1.00000
 APT charges with hydrogens summed into heavy atoms:
               1
     1  C    1.384322
     2  C   -0.858098
     3  C    1.193178
     4  C   -1.315391
     5  C    0.847012
     6  C   -0.522136
     7  C    2.016259
     8  C   -1.336114
     9  C    1.198071
    10  C   -0.848180
    12  C    1.369661
    13  C   -0.523047
    14  C    0.835502
    20  O   -0.945763
    21  C    0.107652
    22  C   -0.128660
    23  C   -0.284854
    24  C    0.093202
    26  C    0.035238
    27  C   -0.036061
    31  N   -1.530872
    32  C    0.528645
    35  C   -0.076798
    39  C    1.892379
    40  O   -0.635219
    41  O   -1.143256
    42  C    0.402763
    45  C   -0.025146
    49  C    0.400512
    52  C    0.532029
    55  C   -0.075621
    59  C   -0.022665
    63  N   -1.528546
 Electronic spatial extent (au):  <R**2>=          17918.2475
 Charge=              1.0000 electrons
 Dipole moment (field-independent basis, Debye):
    X=             -3.2539    Y=             -6.6289    Z=             -2.3398  Tot=              7.7463
 Quadrupole moment (field-independent basis, Debye-Ang):
   XX=            -81.2247   YY=           -149.6233   ZZ=           -183.8044
   XY=            -14.9510   XZ=             -9.9347   YZ=            -15.1018
 Traceless Quadrupole moment (field-independent basis, Debye-Ang):
   XX=             56.9928   YY=            -11.4059   ZZ=            -45.5870
   XY=            -14.9510   XZ=             -9.9347   YZ=            -15.1018
 Octapole moment (field-independent basis, Debye-Ang**2):
  XXX=            -79.9878  YYY=            -13.1578  ZZZ=            102.1926  XYY=              9.0564
  XXY=           -224.5758  XXZ=             17.9083  XZZ=              5.8845  YZZ=             24.4147
  YYZ=            -35.1747  XYZ=              1.3688
 Hexadecapole moment (field-independent basis, Debye-Ang**3):
 XXXX=         -10657.4741 YYYY=          -6932.1019 ZZZZ=          -1330.2856 XXXY=            -14.8930
 XXXZ=           -105.8454 YYYX=            -98.2559 YYYZ=           -160.6073 ZZZX=            247.5482
 ZZZY=            110.7159 XXYY=          -3166.4526 XXZZ=          -2702.7052 YYZZ=          -1520.9972
 XXYZ=             -2.8227 YYXZ=            -33.0044 ZZXY=            -25.0656
 N-N= 3.335371499971D+03 E-N=-9.951453568866D+03  KE= 1.415100564588D+03
  Exact polarizability:1049.676 -31.597 605.483 -19.367 -39.712 384.662
 Approx polarizability:1449.657 -51.028 737.934 -33.436 -47.778 458.415
 No NMR shielding tensors so no spin-rotation constants.
 Leave Link  601 at Sat Apr  2 19:48:40 2022, MaxMem=  5242880000 cpu:        19.7
 (Enter /opt/nce/packages/global/g09/l701.exe)
 Compute integral second derivatives.
 ... and contract with generalized density number  0.
   1 Symmetry operations used in ECPInt.
 ECPInt:  NShTT=  118828 NPrTT=  359100 LenC2=   90140 LenP2D=  184785.
 LDataN:  DoStor=T MaxTD1= 8 Len=  415
 D2PCM: PCM CHGder 2nd derivatives, FixD1E=F FixD2E=F DoIter=F DoCFld=F I1PDM=0
 GePol: Maximum number of non-zero 2nd derivatives   =     261
 Leave Link  701 at Sat Apr  2 19:51:03 2022, MaxMem=  5242880000 cpu:      1717.5
 (Enter /opt/nce/packages/global/g09/l702.exe)
 L702 exits ... SP integral derivatives will be done elsewhere.
 Leave Link  702 at Sat Apr  2 19:51:03 2022, MaxMem=  5242880000 cpu:         0.2
 (Enter /opt/nce/packages/global/g09/l703.exe)
 Compute integral second derivatives, UseDBF=F ICtDFT=           0.
 Integral derivatives from FoFJK, PRISM(SPDF).
 Calling FoFJK, ICntrl=    100527 FMM=F ISym2X=0 I1Cent= 0 IOpClX= 0 NMat=1 NMatS=1 NMatT=0.
 FoFJK:  IHMeth= 1 ICntrl=  100527 DoSepK=F KAlg= 0 I1Cent=   0 FoldK=F
 IRaf=         0 NMat=   1 IRICut=       1 DoRegI=T DoRafI=F ISym2E= 0.
 FoFCou: FMM=F IPFlag=           0 FMFlag=      100000 FMFlg1=        2800
         NFxFlg=           0 DoJE=F BraDBF=F KetDBF=F FulRan=T
         wScrn=  0.000000 ICntrl=  100527 IOpCl=  0 I1Cent=           0 NGrid=           0
         NMat0=    1 NMatS0=      1 NMatT0=    0 NMatD0=    1 NMtDS0=    0 NMtDT0=    0
 Symmetry not used in FoFCou.
 Leave Link  703 at Sat Apr  2 20:59:47 2022, MaxMem=  5242880000 cpu:     49497.0
 (Enter /opt/nce/packages/global/g09/l716.exe)
 Dipole        =-1.28017488D+00-2.60801605D+00-9.20553100D-01
 Polarizability= 1.04967641D+03-3.15973545D+01 6.05482988D+02
                -1.93666901D+01-3.97123061D+01 3.84662049D+02
 Full mass-weighted force constant matrix:
 Low frequencies ---   -7.8395   -2.8512   -0.0008    0.0003    0.0009    7.3492
 Low frequencies ---   20.1474   27.5065   31.1631
 Diagonal vibrational polarizability:
      290.8481552      87.2852941     123.0488818
 Harmonic frequencies (cm**-1), IR intensities (KM/Mole), Raman scattering
 activities (A**4/AMU), depolarization ratios for plane and unpolarized
 incident light, reduced masses (AMU), force constants (mDyne/A),
 and normal coordinates:
                      1                      2                      3
                      A                      A                      A
 Frequencies --     19.5334                27.3904                30.9452
 Red. masses --      5.2935                 5.1075                 3.8513
 Frc consts  --      0.0012                 0.0023                 0.0022
 IR Inten    --      1.5544                 0.8903                 0.7145
  Atom  AN      X      Y      Z        X      Y      Z        X      Y      Z
     1   6    -0.01  -0.01  -0.01     0.01   0.01  -0.02    -0.00  -0.00   0.00
     2   6    -0.01  -0.00  -0.02    -0.00   0.00  -0.08    -0.01  -0.01  -0.03
     3   6    -0.01   0.00  -0.02    -0.00  -0.00  -0.11    -0.01  -0.01  -0.03
     4   6    -0.02   0.01  -0.01    -0.00  -0.00  -0.11    -0.00  -0.00  -0.00
     5   6    -0.02   0.00   0.02     0.00   0.00  -0.08    -0.00  -0.00   0.02
     6   6    -0.02  -0.00   0.01     0.01   0.01  -0.04    -0.00  -0.00   0.03
     7   6    -0.02   0.01  -0.02    -0.00  -0.00  -0.10    -0.00  -0.00  -0.00
     8   6    -0.02   0.01  -0.05    -0.00  -0.00  -0.10    -0.00  -0.00   0.00
     9   6    -0.01   0.01  -0.03    -0.00  -0.01  -0.12    -0.01  -0.01  -0.03
    10   6    -0.01   0.02  -0.00    -0.00  -0.00  -0.09    -0.01  -0.01  -0.03
    11   1    -0.00   0.02   0.02     0.00  -0.00  -0.10    -0.02  -0.01  -0.06
    12   6    -0.01   0.02  -0.01     0.00   0.01  -0.04    -0.00  -0.01   0.02
    13   6    -0.02   0.01  -0.07     0.00   0.01  -0.04     0.00  -0.00   0.06
    14   6    -0.02   0.01  -0.08     0.00   0.00  -0.07     0.00  -0.00   0.04
    15   1    -0.01  -0.00  -0.04    -0.00   0.00  -0.08    -0.01  -0.01  -0.06
    16   1    -0.02   0.00   0.04     0.01   0.00  -0.08    -0.00   0.00   0.04
    17   1    -0.02  -0.01   0.03     0.01   0.01  -0.01     0.00   0.00   0.05
    18   1    -0.02   0.01  -0.10     0.01   0.01  -0.01     0.00   0.01   0.10
    19   1    -0.03   0.00  -0.12    -0.00   0.00  -0.06     0.01   0.00   0.06
    20   8    -0.01   0.01  -0.02    -0.01  -0.01  -0.14    -0.01  -0.01  -0.06
    21   6    -0.03   0.01   0.01     0.01   0.00  -0.05    -0.01  -0.00  -0.01
    22   6    -0.12   0.06   0.06     0.06   0.05  -0.05    -0.07  -0.01   0.01
    23   6     0.05  -0.02  -0.00    -0.02  -0.03   0.01     0.02   0.01  -0.04
    24   6    -0.13   0.07   0.10     0.08   0.06   0.01    -0.08  -0.01  -0.00
    25   1    -0.17   0.09   0.07     0.09   0.08  -0.09    -0.09  -0.01   0.03
    26   6     0.03  -0.01   0.03    -0.00  -0.02   0.07     0.00   0.00  -0.05
    27   6    -0.06   0.04   0.08     0.05   0.03   0.07    -0.05  -0.00  -0.03
    28   1    -0.20   0.11   0.14     0.12   0.10   0.01    -0.13  -0.02   0.01
    29   1     0.09  -0.04   0.02    -0.03  -0.05   0.11     0.03   0.01  -0.07
    30   1    -0.07   0.05   0.11     0.06   0.04   0.11    -0.07  -0.00  -0.04
    31   7    -0.01  -0.01  -0.03     0.01   0.02   0.05    -0.00  -0.00   0.01
    32   6    -0.01  -0.02  -0.01     0.03   0.03   0.13     0.00  -0.00   0.06
    33   1    -0.02  -0.03   0.01     0.07   0.04   0.10     0.02  -0.02   0.08
    34   1    -0.01  -0.04  -0.03     0.07   0.04   0.19     0.02  -0.01   0.06
    35   6    -0.01   0.01  -0.01    -0.07   0.01   0.18    -0.03   0.03   0.09
    36   1    -0.01   0.02  -0.03    -0.12   0.01   0.21    -0.05   0.04   0.07
    37   1    -0.01   0.00   0.00    -0.06   0.02   0.24    -0.03   0.03   0.13
    38   1    -0.01   0.02   0.01    -0.12   0.00   0.12    -0.05   0.04   0.08
    39   6     0.15  -0.07  -0.05    -0.08  -0.09   0.01     0.08   0.02  -0.05
    40   8     0.12  -0.04  -0.01    -0.10  -0.10  -0.05     0.09   0.03  -0.01
    41   8     0.24  -0.14  -0.13    -0.10  -0.12   0.07     0.11   0.01  -0.10
    42   6    -0.01  -0.02  -0.06     0.01   0.02   0.09    -0.01  -0.00  -0.02
    43   1    -0.01  -0.01  -0.07    -0.02   0.02   0.16    -0.01   0.01  -0.01
    44   1    -0.00   0.00  -0.07    -0.04   0.01   0.05    -0.02   0.01  -0.05
    45   6    -0.01  -0.05  -0.07     0.10   0.06   0.09     0.02  -0.04  -0.04
    46   1    -0.01  -0.05  -0.10     0.10   0.06   0.12     0.02  -0.04  -0.06
    47   1    -0.02  -0.06  -0.06     0.13   0.06   0.02     0.03  -0.05  -0.05
    48   1    -0.02  -0.07  -0.07     0.15   0.08   0.12     0.03  -0.05  -0.01
    49   6    -0.00   0.06   0.16     0.00   0.03   0.07    -0.02  -0.03  -0.09
    50   1    -0.00   0.12   0.18    -0.03   0.05   0.04    -0.06  -0.10  -0.14
    51   1    -0.00   0.10   0.19    -0.02   0.05   0.13    -0.04  -0.07  -0.06
    52   6    -0.01   0.01  -0.00     0.02   0.02   0.09     0.01   0.02   0.17
    53   1    -0.02  -0.03  -0.04     0.05   0.01   0.08     0.07   0.06   0.21
[...]
 Alpha virt. eigenvalues --    0.82001   0.82303   0.82650   0.83206   0.83534
 Alpha virt. eigenvalues --    0.83719   0.84004   0.84256   0.84562   0.85134
 Alpha virt. eigenvalues --    0.85721   0.86065   0.86479   0.86890   0.87550
 Alpha virt. eigenvalues --    0.88326   0.88726   0.89056   0.89408   0.90378
 Alpha virt. eigenvalues --    0.90758   0.91680   0.91761   0.92397   0.93653
 Alpha virt. eigenvalues --    0.93963   0.94304   0.94635   0.95093   0.95456
 Alpha virt. eigenvalues --    0.96452   0.96656   0.97432   0.97748   0.98226
 Alpha virt. eigenvalues --    0.98703   0.99485   1.00124   1.00790   1.01838
 Alpha virt. eigenvalues --    1.02393   1.02946   1.03300   1.03985   1.04310
 Alpha virt. eigenvalues --    1.04486   1.05305   1.05624   1.05852   1.06794
 Alpha virt. eigenvalues --    1.07371   1.07544   1.08248   1.08573   1.08876
 Alpha virt. eigenvalues --    1.09084   1.09574   1.10199   1.11193   1.11877
 Alpha virt. eigenvalues --    1.12055   1.12982   1.13327   1.13579   1.14335
 Alpha virt. eigenvalues --    1.14920   1.15444   1.15604   1.15779   1.16421
 Alpha virt. eigenvalues --    1.17156   1.17965   1.18257   1.19372   1.20378
 Alpha virt. eigenvalues --    1.20437   1.20529   1.21041   1.21523   1.21995
 Alpha virt. eigenvalues --    1.22347   1.22823   1.24093   1.24727   1.25102
 Alpha virt. eigenvalues --    1.25697   1.26213   1.26307   1.26680   1.26860
 Alpha virt. eigenvalues --    1.28522   1.28558   1.29434   1.29902   1.30461
 Alpha virt. eigenvalues --    1.30645   1.31006   1.31654   1.32741   1.33078
 Alpha virt. eigenvalues --    1.33604   1.34305   1.35258   1.35811   1.36861
 Alpha virt. eigenvalues --    1.37413   1.38236   1.38497   1.40061   1.40277
 Alpha virt. eigenvalues --    1.41162   1.42568   1.42960   1.43552   1.43909
 Alpha virt. eigenvalues --    1.44509   1.44929   1.45801   1.46103   1.46692
 Alpha virt. eigenvalues --    1.46833   1.48238   1.49072   1.49619   1.49861
 Alpha virt. eigenvalues --    1.50224   1.50858   1.51104   1.51537   1.51832
 Alpha virt. eigenvalues --    1.52290   1.52432   1.52643   1.52838   1.52888
 Alpha virt. eigenvalues --    1.53415   1.53500   1.54376   1.54487   1.54682
 Alpha virt. eigenvalues --    1.55076   1.55272   1.55509   1.55590   1.55990
 Alpha virt. eigenvalues --    1.56530   1.56670   1.56822   1.57521   1.57685
 Alpha virt. eigenvalues --    1.57917   1.58552   1.58669   1.58950   1.58995
 Alpha virt. eigenvalues --    1.59428   1.59651   1.60201   1.60687   1.61496
 Alpha virt. eigenvalues --    1.61693   1.62802   1.62895   1.62982   1.63734
 Alpha virt. eigenvalues --    1.64129   1.65092   1.65212   1.66167   1.66673
 Alpha virt. eigenvalues --    1.67112   1.67514   1.67947   1.68780   1.68910
 Alpha virt. eigenvalues --    1.69504   1.70351   1.71445   1.71695   1.71995
 Alpha virt. eigenvalues --    1.72905   1.73096   1.73625   1.74427   1.74900
 Alpha virt. eigenvalues --    1.75129   1.75234   1.76297   1.76775   1.76968
 Alpha virt. eigenvalues --    1.77617   1.77878   1.78072   1.78825   1.79943
 Alpha virt. eigenvalues --    1.80442   1.80639   1.81423   1.81951   1.82052
 Alpha virt. eigenvalues --    1.82565   1.83259   1.83692   1.84505   1.85375
 Alpha virt. eigenvalues --    1.85796   1.86396   1.86790   1.87719   1.87914
 Alpha virt. eigenvalues --    1.88590   1.88794   1.89012   1.89335   1.89891
 Alpha virt. eigenvalues --    1.90069   1.91626   1.92189   1.92509   1.93118
 Alpha virt. eigenvalues --    1.93434   1.93909   1.94326   1.94731   1.95492
 Alpha virt. eigenvalues --    1.95677   1.96326   1.96723   1.98440   1.98853
 Alpha virt. eigenvalues --    1.99366   2.00173   2.01133   2.01935   2.02223
 Alpha virt. eigenvalues --    2.02766   2.03477   2.03580   2.04075   2.04576
 Alpha virt. eigenvalues --    2.05155   2.05722   2.06070   2.07034   2.07433
 Alpha virt. eigenvalues --    2.08025   2.08678   2.10230   2.10763   2.11012
 Alpha virt. eigenvalues --    2.11233   2.11835   2.11956   2.12450   2.14577
 Alpha virt. eigenvalues --    2.15494   2.17763   2.18441   2.19050   2.19270
 Alpha virt. eigenvalues --    2.19906   2.20234   2.20540   2.20921   2.21018
 Alpha virt. eigenvalues --    2.21505   2.21545   2.21866   2.22509   2.23360
 Alpha virt. eigenvalues --    2.24073   2.24997   2.25360   2.25975   2.26217
 Alpha virt. eigenvalues --    2.26779   2.28478   2.29443   2.30648   2.31190
 Alpha virt. eigenvalues --    2.31458   2.32466   2.32525   2.33632   2.34015
 Alpha virt. eigenvalues --    2.34207   2.34562   2.35173   2.35361   2.35781
 Alpha virt. eigenvalues --    2.36139   2.36550   2.37424   2.37683   2.37866
 Alpha virt. eigenvalues --    2.38459   2.38490   2.39778   2.39905   2.40320
 Alpha virt. eigenvalues --    2.41013   2.41412   2.42157   2.42262   2.42505
 Alpha virt. eigenvalues --    2.43056   2.43421   2.43698   2.45166   2.45246
 Alpha virt. eigenvalues --    2.45807   2.46903   2.47540   2.48528   2.49962
 Alpha virt. eigenvalues --    2.50461   2.50949   2.51217   2.52022   2.52373
 Alpha virt. eigenvalues --    2.53110   2.53835   2.54669   2.54755   2.55203
 Alpha virt. eigenvalues --    2.56834   2.57502   2.57750   2.58531   2.58627
 Alpha virt. eigenvalues --    2.59970   2.60418   2.60915   2.61317   2.62250
 Alpha virt. eigenvalues --    2.62446   2.62826   2.63152   2.63200   2.63508
 Alpha virt. eigenvalues --    2.63726   2.64122   2.64704   2.65235   2.65594
 Alpha virt. eigenvalues --    2.66012   2.66849   2.67189   2.67673   2.68272
 Alpha virt. eigenvalues --    2.68482   2.69091   2.69243   2.69450   2.69517
 Alpha virt. eigenvalues --    2.69927   2.70145   2.70466   2.70655   2.70745
 Alpha virt. eigenvalues --    2.70989   2.71424   2.71922   2.72744   2.72966
 Alpha virt. eigenvalues --    2.74002   2.74082   2.74446   2.75529   2.75975
 Alpha virt. eigenvalues --    2.76063   2.76217   2.76916   2.76921   2.78024
 Alpha virt. eigenvalues --    2.78248   2.78941   2.79516   2.80235   2.80579
 Alpha virt. eigenvalues --    2.80747   2.81869   2.82552   2.82885   2.83105
 Alpha virt. eigenvalues --    2.84215   2.84344   2.85037   2.85137   2.86147
 Alpha virt. eigenvalues --    2.86337   2.86446   2.87360   2.87475   2.88212
 Alpha virt. eigenvalues --    2.88540   2.88990   2.89100   2.89708   2.90384
 Alpha virt. eigenvalues --    2.90511   2.90752   2.91272   2.92123   2.92506
 Alpha virt. eigenvalues --    2.92787   2.93067   2.93559   2.94563   2.94665
 Alpha virt. eigenvalues --    2.94776   2.95757   2.96260   2.96723   2.96899
 Alpha virt. eigenvalues --    2.97604   2.98916   2.99092   2.99401   2.99873
 Alpha virt. eigenvalues --    3.00529   3.00760   3.01358   3.01891   3.02482
 Alpha virt. eigenvalues --    3.02706   3.02991   3.04170   3.05000   3.05703
 Alpha virt. eigenvalues --    3.05923   3.06394   3.06756   3.07785   3.08159
 Alpha virt. eigenvalues --    3.08497   3.09092   3.09578   3.09912   3.10365
 Alpha virt. eigenvalues --    3.10609   3.10864   3.11033   3.11277   3.12117
 Alpha virt. eigenvalues --    3.12360   3.13936   3.14196   3.15013   3.15118
 Alpha virt. eigenvalues --    3.15795   3.15940   3.16755   3.17051   3.17514
 Alpha virt. eigenvalues --    3.18124   3.18708   3.18873   3.19518   3.19708
 Alpha virt. eigenvalues --    3.20197   3.20771   3.20978   3.21650   3.22223
 Alpha virt. eigenvalues --    3.23078   3.23213   3.23444   3.23854   3.24000
 Alpha virt. eigenvalues --    3.24383   3.25030   3.25474   3.25660   3.26233
 Alpha virt. eigenvalues --    3.26374   3.26838   3.27306   3.27577   3.28480
 Alpha virt. eigenvalues --    3.29536   3.29629   3.29911   3.30545   3.31131
 Alpha virt. eigenvalues --    3.31767   3.32215   3.32662   3.32860   3.33377
 Alpha virt. eigenvalues --    3.33648   3.34162   3.34351   3.34814   3.34850
 Alpha virt. eigenvalues --    3.35114   3.35478   3.36019   3.36268   3.37036
 Alpha virt. eigenvalues --    3.37109   3.37258   3.38150   3.38282   3.38678
 Alpha virt. eigenvalues --    3.39473   3.39765   3.40077   3.40310   3.41244
 Alpha virt. eigenvalues --    3.41553   3.41635   3.42315   3.42982   3.43330
 Alpha virt. eigenvalues --    3.43386   3.44217   3.44435   3.45102   3.45308
 Alpha virt. eigenvalues --    3.45477   3.45896   3.46124   3.46875   3.47449
 Alpha virt. eigenvalues --    3.47561   3.47919   3.48174   3.48730   3.49430
 Alpha virt. eigenvalues --    3.49661   3.49710   3.50464   3.50896   3.51165
 Alpha virt. eigenvalues --    3.51630   3.52321   3.52452   3.52594   3.53666
 Alpha virt. eigenvalues --    3.54138   3.54418   3.54610   3.54982   3.55490
 Alpha virt. eigenvalues --    3.55976   3.56674   3.56925   3.57528   3.57594
 Alpha virt. eigenvalues --    3.58571   3.59048   3.59614   3.60419   3.60762
 Alpha virt. eigenvalues --    3.61275   3.61760   3.61792   3.62624   3.63095
 Alpha virt. eigenvalues --    3.63825   3.64238   3.65080   3.65769   3.66857
 Alpha virt. eigenvalues --    3.67310   3.67524   3.68327   3.68593   3.69117
 Alpha virt. eigenvalues --    3.69245   3.70066   3.70450   3.71514   3.72096
 Alpha virt. eigenvalues --    3.72697   3.73631   3.73970   3.75069   3.75756
 Alpha virt. eigenvalues --    3.76773   3.77240   3.77471   3.78216   3.79259
 Alpha virt. eigenvalues --    3.79692   3.81055   3.82259   3.82971   3.83728
 Alpha virt. eigenvalues --    3.84722   3.84933   3.85799   3.85979   3.86402
 Alpha virt. eigenvalues --    3.86757   3.87224   3.88358   3.88763   3.90249
 Alpha virt. eigenvalues --    3.91162   3.91570   3.92517   3.93104   3.94559
 Alpha virt. eigenvalues --    3.94954   3.95698   3.96645   3.97195   3.97586
 Alpha virt. eigenvalues --    3.97980   3.98461   3.99336   3.99479   4.00159
 Alpha virt. eigenvalues --    4.00489   4.01382   4.02468   4.03161   4.03878
 Alpha virt. eigenvalues --    4.04616   4.05153   4.06316   4.06531   4.07033
 Alpha virt. eigenvalues --    4.07194   4.08853   4.09422   4.10290   4.10701
 Alpha virt. eigenvalues --    4.12075   4.12466   4.12876   4.13170   4.14071
 Alpha virt. eigenvalues --    4.15383   4.15604   4.16693   4.17131   4.17932
 Alpha virt. eigenvalues --    4.18933   4.19827   4.21194   4.22069   4.22215
 Alpha virt. eigenvalues --    4.23114   4.23511   4.24225   4.25666   4.26300
 Alpha virt. eigenvalues --    4.27914   4.28317   4.28996   4.29412   4.30401
 Alpha virt. eigenvalues --    4.31334   4.32102   4.32703   4.33347   4.34061
 Alpha virt. eigenvalues --    4.34459   4.34616   4.34800   4.35211   4.35820
 Alpha virt. eigenvalues --    4.36822   4.37164   4.37885   4.38367   4.39484
 Alpha virt. eigenvalues --    4.39973   4.40426   4.40915   4.41681   4.42617
 Alpha virt. eigenvalues --    4.44230   4.44426   4.45286   4.45611   4.45800
 Alpha virt. eigenvalues --    4.46720   4.48546   4.48764   4.49042   4.49849
 Alpha virt. eigenvalues --    4.50520   4.52419   4.53254   4.54114   4.54256
 Alpha virt. eigenvalues --    4.55133   4.56438   4.57619   4.57752   4.60181
 Alpha virt. eigenvalues --    4.60914   4.62673   4.63399   4.66194   4.66407
 Alpha virt. eigenvalues --    4.70184   4.70829   4.72358   4.74199   4.75427
 Alpha virt. eigenvalues --    4.77399   4.77421   4.79855   4.81893   4.83055
 Alpha virt. eigenvalues --    4.83645   4.84474   4.87402   4.89126   4.89799
 Alpha virt. eigenvalues --    4.91026   4.91373   4.91605   4.91993   4.93472
 Alpha virt. eigenvalues --    4.94793   4.95424   4.98077   5.00952   5.02904
 Alpha virt. eigenvalues --    5.03464   5.05562   5.09292   5.12355   5.13217
 Alpha virt. eigenvalues --    5.13641   5.15552   5.16301   5.17490   5.18371
 Alpha virt. eigenvalues --    5.20921   5.21619   5.25122   5.25781   5.26812
 Alpha virt. eigenvalues --    5.26976   5.28436   5.28740   5.30027   5.30723
 Alpha virt. eigenvalues --    5.31562   5.34895   5.36388   5.37581   5.38814
 Alpha virt. eigenvalues --    5.41261   5.41962   5.42292   5.44486   5.45356
 Alpha virt. eigenvalues --    5.46664   5.49768   5.51191   5.51785   5.52074
 Alpha virt. eigenvalues --    5.53003   5.53995   5.56888   5.58420   5.63482
 Alpha virt. eigenvalues --    5.63620   5.64199   5.66522   5.69960   5.73261
 Alpha virt. eigenvalues --    5.73661   5.78284   5.80083   5.83239   5.86893
 Alpha virt. eigenvalues --    5.90783   5.91609   5.92334   5.93877   5.94538
 Alpha virt. eigenvalues --    5.96346   6.05123   6.05695   6.08014   6.09558
 Alpha virt. eigenvalues --    6.10728   6.10817   6.11840   6.13063   6.26029
 Alpha virt. eigenvalues --    6.28813   6.31205   6.41090   6.43059   6.47757
 Alpha virt. eigenvalues --    6.52571   6.65273   6.66764   6.71646   6.75905
 Alpha virt. eigenvalues --    6.87807   6.88186   6.98618   7.00892   7.02383
 Alpha virt. eigenvalues --    7.02563   7.04217   7.10026   7.24213   7.35849
 Alpha virt. eigenvalues --    7.55538   7.62457   7.67684  22.32577  22.43268
 Alpha virt. eigenvalues --   22.45678  22.47122  22.47354  22.54187  22.67639
 Alpha virt. eigenvalues --   22.67741  22.70770  22.71361  22.72392  22.73562
 Alpha virt. eigenvalues --   22.82041  22.87115  22.94143  22.95221  23.01995
 Alpha virt. eigenvalues --   23.04136  23.08302  23.09989  23.19952  23.22093
 Alpha virt. eigenvalues --   23.26108  23.38469  23.48087  23.62129  23.68207
 Alpha virt. eigenvalues --   23.95042  33.15761  33.16451  44.10901  44.13591
 Alpha virt. eigenvalues --   44.76660
          Condensed to atoms (all electrons):
 Mulliken charges:
               1
     1  C    0.594286
     2  C   -0.467196
     3  C    0.423845
     4  C    0.041593
     5  C   -0.114757
     6  C   -0.348784
     7  C    0.406686
     8  C    0.170013
     9  C    0.360248
    10  C   -0.428772
    11  H    0.122232
    12  C    0.552414
    13  C   -0.279919
    14  C   -0.259191
    15  H    0.122835
    16  H    0.155247
    17  H    0.111286
    18  H    0.113027
    19  H    0.164367
    20  O   -0.506381
    21  C   -0.116331
    22  C   -0.365755
    23  C   -0.242930
    24  C    0.005426
    25  H    0.105376
    26  C    0.005138
    27  C   -0.116144
    28  H    0.099777
    29  H    0.097796
    30  H    0.098272
    31  N   -0.163335
    32  C    0.044277
    33  H    0.077977
    34  H    0.081654
    35  C   -0.217764
    36  H    0.070128
    37  H    0.074011
    38  H    0.078644
    39  C    0.756311
    40  O   -0.533044
    41  O   -0.638375
    42  C    0.051944
    43  H    0.081616
    44  H    0.076341
    45  C   -0.222224
    46  H    0.074184
    47  H    0.080226
    48  H    0.070653
    49  C    0.052705
    50  H    0.075579
    51  H    0.081064
    52  C    0.046148
    53  H    0.077678
    54  H    0.080991
    55  C   -0.219100
    56  H    0.073932
    57  H    0.079386
    58  H    0.070065
    59  C   -0.221336
    60  H    0.070522
    61  H    0.074088
    62  H    0.079105
    63  N   -0.163549
    64  H    0.395794
 Sum of Mulliken charges =   1.00000
 Mulliken charges with hydrogens summed into heavy atoms:
               1
     1  C    0.594286
     2  C   -0.344361
     3  C    0.423845
     4  C    0.041593
     5  C    0.040490
     6  C   -0.237498
     7  C    0.406686
     8  C    0.170013
     9  C    0.360248
    10  C   -0.306540
    12  C    0.552414
    13  C   -0.166892
    14  C   -0.094824
    20  O   -0.506381
    21  C   -0.116331
    22  C   -0.260380
    23  C   -0.242930
    24  C    0.105203
    26  C    0.102934
    27  C   -0.017872
    31  N   -0.163335
    32  C    0.203908
    35  C    0.005019
    39  C    0.756311
    40  O   -0.137250
    41  O   -0.638375
    42  C    0.209901
    45  C    0.002839
    49  C    0.209348
    52  C    0.204817
    55  C    0.004283
    59  C    0.002380
    63  N   -0.163549
 Electronic spatial extent (au):  <R**2>=          17893.2486
 Charge=              1.0000 electrons
 Dipole moment (field-independent basis, Debye):
    X=             -2.6149    Y=             -6.2584    Z=             -2.0728  Tot=              7.0924
 Quadrupole moment (field-independent basis, Debye-Ang):
   XX=            -80.1996   YY=           -149.9490   ZZ=           -186.4856
   XY=            -12.6496   XZ=             -7.1557   YZ=            -15.2023
 Traceless Quadrupole moment (field-independent basis, Debye-Ang):
   XX=             58.6785   YY=            -11.0709   ZZ=            -47.6076
   XY=            -12.6496   XZ=             -7.1557   YZ=            -15.2023
 Octapole moment (field-independent basis, Debye-Ang**2):
  XXX=            -77.4671  YYY=            -39.6592  ZZZ=             24.4254  XYY=            -15.3485
  XXY=           -235.0103  XXZ=             -8.2431  XZZ=            -12.9978  YZZ=             -1.7084
  YYZ=            -61.4705  XYZ=             -8.9616
 Hexadecapole moment (field-independent basis, Debye-Ang**3):
 XXXX=         -10651.5131 YYYY=          -6912.3222 ZZZZ=          -1268.9698 XXXY=            -96.6794
 XXXZ=           -202.6149 YYYX=           -163.7518 YYYZ=           -296.2893 ZZZX=              8.4925
 ZZZY=            -42.3771 XXYY=          -3188.5717 XXZZ=          -2721.0491 YYZZ=          -1565.9915
 XXYZ=            -57.5730 YYXZ=            -89.8243 ZZXY=            -76.6599
 N-N= 3.335371500352D+03 E-N=-9.951453948165D+03  KE= 1.415100676016D+03
 Leave Link  601 at Sun Apr  3 01:54:14 2022, MaxMem=  5242880000 cpu:         7.9
 (Enter /opt/nce/packages/global/g09/l9999.exe)
 1\1\GINC-CN016\SP\RM06L TD-FC\Gen\C28H31N2O3(1+)\PNG4RJV\03-Apr-2022\0
 \\#p m06l chkbasis geom=allcheck Guess=Read int=ultrafine scrf=(SMD,so
 lvent=Ethanol) td=(NStates=30)\\Title\\1,1\C,-3.84267,-0.920472,0.0589
 45\C,-2.631406,-1.641541,0.026982\C,-1.444515,-0.983203,-0.165273\C,-1
 .35747,0.418986,-0.348749\C,-2.58344,1.125904,-0.302498\C,-3.772742,0.
 496476,-0.109791\C,-0.101538,1.013778,-0.523986\C,1.041411,0.201745,-0
 .513945\C,0.900823,-1.19349,-0.314407\C,1.9652,-2.057099,-0.279969\H,1
 .761643,-3.107605,-0.139957\C,3.277582,-1.569371,-0.444163\C,3.437629,
 -0.166482,-0.658637\C,2.365642,0.669157,-0.693565\H,-2.599557,-2.70986
 ,0.176927\H,-2.568121,2.20095,-0.426399\H,-4.677218,1.085291,-0.097238
 \H,4.425352,0.24835,-0.788827\H,2.529306,1.725689,-0.863311\O,-0.32598
 7,-1.749212,-0.155419\C,0.009819,2.468092,-0.775445\C,-0.446949,2.9468
 57,-2.002388\C,0.607871,3.371333,0.118501\C,-0.311077,4.281508,-2.3458
 67\H,-0.898919,2.252141,-2.699466\C,0.752398,4.708515,-0.246998\C,0.29
 3742,5.166931,-1.467041\H,-0.67428,4.626148,-3.305585\H,1.217884,5.386
 143,0.456898\H,0.404066,6.210731,-1.729916\N,-5.024635,-1.53894,0.2453
 92\C,-6.27907,-0.803903,0.396216\H,-6.094944,0.115156,0.950883\H,-6.92
 2762,-1.413776,1.030777\C,-6.956901,-0.521064,-0.92532\H,-7.167341,-1.
 44515,-1.463961\H,-7.902767,-0.005562,-0.763033\H,-6.336109,0.106649,-
 1.564541\C,1.096959,2.999007,1.466141\O,0.454969,1.951251,1.994069\O,1
 .970546,3.599926,2.054431\C,-5.131581,-2.993299,0.325049\H,-6.12485,-3
 .255334,-0.040345\H,-4.424836,-3.442872,-0.371944\C,-4.929181,-3.52146
 6,1.727907\H,-5.04218,-4.604758,1.744368\H,-3.93553,-3.280363,2.105225
 \H,-5.661609,-3.097901,2.415194\C,4.213343,-3.812782,-0.093712\H,3.427
 48,-3.946724,0.649045\H,5.142435,-4.115596,0.390292\C,5.70542,-1.92199
 5,-0.656162\H,5.688102,-1.165005,-1.439053\H,6.254823,-2.768104,-1.069
 392\C,6.390234,-1.407467,0.589958\H,7.411291,-1.10327,0.362748\H,5.866
 592,-0.546585,1.005625\H,6.433957,-2.178054,1.359754\C,3.957219,-4.659
 701,-1.320357\H,4.763315,-4.551728,-2.04621\H,3.892535,-5.712074,-1.04
 6612\H,3.024328,-4.381156,-1.810263\N,4.344397,-2.391135,-0.40265\H,0.
 838036,1.770028,2.868025\\Version=ES64L-G09RevE.01\State=1-A\HF=-1421.
 0745539\RMSD=5.134e-09\PG=C01 [X(C28H31N2O3)]\\@


 PERICLES, SOPHOCLES,
 PELOPONESIAN WAR,
 FRENCH VERBS, LATIN VERBS
 H2SO4.
 Job cpu time:       2 days 10 hours 39 minutes 13.9 seconds.
 File lengths (MBytes):  RWF=   6035 Int=      0 D2E=      0 Chk=   1287 Scr=      1
 Normal termination of Gaussian 09 at Sun Apr  3 01:54:15 2022.
