 Entering Gaussian System, Link 0=g09
 Input=/Lustre01/home/png4rjv/fotokatalizis/benchmark/OPCs/RESTART_Rh_Eos_counterion/Rh_B_M062X_def2TZVP.gjf
 Output=/Lustre01/home/png4rjv/fotokatalizis/benchmark/OPCs/RESTART_Rh_Eos_counterion/Rh_B_M062X_def2TZVP.log
 Initial command:
 /opt/nce/packages/global/g09/l1.exe "/Lustre01/home/png4rjv/fotokatalizis/benchmark/OPCs/RESTART_Rh_Eos_counterion/Rh_B_M062X_def2TZVP/Gau-23082.inp" -scrdir="/Lustre01/home/png4rjv/fotokatalizis/benchmark/OPCs/RESTART_Rh_Eos_counterion/Rh_B_M062X_def2TZVP/"
 Default is to use a total of  12 processors:
                               12 via shared-memory
                                1 via Linda
 Entering Link 1 = /opt/nce/packages/global/g09/l1.exe PID=     23083.
  
 Copyright (c) 1988,1990,1992,1993,1995,1998,2003,2009,2015,
            Gaussian, Inc.  All Rights Reserved.
  
 This is part of the Gaussian(R) 09 program.  It is based on
 the Gaussian(R) 03 system (copyright 2003, Gaussian, Inc.),
 the Gaussian(R) 98 system (copyright 1998, Gaussian, Inc.),
 the Gaussian(R) 94 system (copyright 1995, Gaussian, Inc.),
 the Gaussian 92(TM) system (copyright 1992, Gaussian, Inc.),
 the Gaussian 90(TM) system (copyright 1990, Gaussian, Inc.),
 the Gaussian 88(TM) system (copyright 1988, Gaussian, Inc.),
 the Gaussian 86(TM) system (copyright 1986, Carnegie Mellon
 University), and the Gaussian 82(TM) system (copyright 1983,
 Carnegie Mellon University). Gaussian is a federally registered
 trademark of Gaussian, Inc.
  
 This software contains proprietary and confidential information,
 including trade secrets, belonging to Gaussian, Inc.
  
 This software is provided under written license and may be
 used, copied, transmitted, or stored only in accord with that
 written license.
  
 The following legend is applicable only to US Government
 contracts under FAR:
  
                    RESTRICTED RIGHTS LEGEND
  
 Use, reproduction and disclosure by the US Government is
 subject to restrictions as set forth in subparagraphs (a)
 and (c) of the Commercial Computer Software - Restricted
 Rights clause in FAR 52.227-19.
  
 Gaussian, Inc.
 340 Quinnipiac St., Bldg. 40, Wallingford CT 06492
  
  
 ---------------------------------------------------------------
 Warning -- This program may not be used in any manner that
 competes with the business of Gaussian, Inc. or will provide
 assistance to any competitor of Gaussian, Inc.  The licensee
 of this program is prohibited from giving any competitor of
 Gaussian, Inc. access to this program.  By using this program,
 the user acknowledges that Gaussian, Inc. is engaged in the
 business of creating and licensing software in the field of
 computational chemistry and represents and warrants to the
 licensee that it is not a competitor of Gaussian, Inc. and that
 it will not use this program in any manner prohibited above.
 ---------------------------------------------------------------
  

 Cite this work as:
 Gaussian 09, Revision E.01,
 M. J. Frisch, G. W. Trucks, H. B. Schlegel, G. E. Scuseria, 
 M. A. Robb, J. R. Cheeseman, G. Scalmani, V. Barone, B. Mennucci, 
 G. A. Petersson, H. Nakatsuji, M. Caricato, X. Li, H. P. Hratchian, 
 A. F. Izmaylov, J. Bloino, G. Zheng, J. L. Sonnenberg, M. Hada, 
 M. Ehara, K. Toyota, R. Fukuda, J. Hasegawa, M. Ishida, T. Nakajima, 
 Y. Honda, O. Kitao, H. Nakai, T. Vreven, J. A. Montgomery, Jr., 
 J. E. Peralta, F. Ogliaro, M. Bearpark, J. J. Heyd, E. Brothers, 
 K. N. Kudin, V. N. Staroverov, T. Keith, R. Kobayashi, J. Normand, 
 K. Raghavachari, A. Rendell, J. C. Burant, S. S. Iyengar, J. Tomasi, 
 M. Cossi, N. Rega, J. M. Millam, M. Klene, J. E. Knox, J. B. Cross, 
 V. Bakken, C. Adamo, J. Jaramillo, R. Gomperts, R. E. Stratmann, 
 O. Yazyev, A. J. Austin, R. Cammi, C. Pomelli, J. W. Ochterski, 
 R. L. Martin, K. Morokuma, V. G. Zakrzewski, G. A. Voth, 
 P. Salvador, J. J. Dannenberg, S. Dapprich, A. D. Daniels, 
 O. Farkas, J. B. Foresman, J. V. Ortiz, J. Cioslowski, 
 and D. J. Fox, Gaussian, Inc., Wallingford CT, 2013.
 
 ******************************************
 Gaussian 09:  ES64L-G09RevE.01 30-Nov-2015
                31-Mar-2022 
 ******************************************
 %chk=cp.chk
 Default route:  MaxDisk=500GB
 ----------------------------------------------------------------------
 #p m062x/def2TZVP opt=tight freq=noraman Symmetry=None int=ultrafine s
 crf=(SMD,solvent=Ethanol)
 ----------------------------------------------------------------------
 1/7=10,14=-1,18=20,19=15,26=4,38=1/1,3;
 2/9=110,12=2,15=3,17=6,18=5,40=1/2;
 3/5=44,7=101,11=2,16=1,25=1,30=1,70=32201,71=1,72=4,74=-55,75=-5/1,2,3;
 4//1;
 5/5=2,38=5,53=4/2;
 6/7=2,8=2,9=2,10=2,28=1/1;
 7/30=1/1,2,3,16;
 1/7=10,14=-1,18=20,19=15,26=4/3(2);
 2/9=110,15=3/2;
 99//99;
 2/9=110,15=3/2;
 3/5=44,7=101,11=2,16=1,25=1,30=1,70=32205,71=1,72=4,74=-55,75=-5/1,2,3;
 4/5=5,16=3,69=1/1;
 5/5=2,38=5,53=4/2;
 7/30=1/1,2,3,16;
 1/7=10,14=-1,18=20,19=15,26=4/3(-5);
 2/9=110,15=3/2;
 6/7=2,8=2,9=2,10=2,19=2,28=1/1;
 99/9=1/99;
 Leave Link    1 at Thu Mar 31 16:30:32 2022, MaxMem=           0 cpu:         2.0
 (Enter /opt/nce/packages/global/g09/l101.exe)
 -----
 Title
 -----
 Symbolic Z-matrix:
 Charge =  1 Multiplicity = 1
 C                    -3.8648   -0.92202   0.03588 
 C                    -2.65289  -1.64801   0.00783 
 C                    -1.46586  -0.98918  -0.18908 
 C                    -1.37776   0.41098  -0.38489 
 C                    -2.60471   1.12654  -0.34144 
 C                    -3.79291   0.50222  -0.14248 
 C                    -0.12095   0.99927  -0.56654 
 C                     1.02161   0.18657  -0.55405 
 C                     0.87866  -1.20395  -0.33251 
 C                     1.94138  -2.07085  -0.27742 
 H                     1.73122  -3.11832  -0.12462 
 C                     3.2564   -1.58432  -0.4463 
 C                     3.41931  -0.17843  -0.68969 
 C                     2.34917   0.6556   -0.7408 
 H                    -2.61629  -2.71431   0.17053 
 H                    -2.58693   2.20075  -0.47081 
 H                    -4.69557   1.0936   -0.13544 
 H                     4.40691   0.23542  -0.82189 
 H                     2.51328   1.70927  -0.92754 
 O                    -0.34816  -1.74913  -0.17042 
 C                    -0.00358   2.45628  -0.82888 
 C                    -0.48435   2.94341  -2.04282 
 C                     0.61948   3.3322    0.066 
 C                    -0.35507   4.28645  -2.36501 
 H                    -0.95251   2.2592   -2.74037 
 C                     0.75552   4.67423  -0.27319 
 C                     0.26411   5.1554   -1.47731 
 H                    -0.73524   4.64999  -3.31122 
 H                     1.24283   5.34191   0.42579 
 H                     0.36551   6.20493  -1.72264 
 N                    -5.04252  -1.53182   0.22575 
 C                    -6.29522  -0.79262   0.3817 
 H                    -6.11159   0.1241    0.93958 
 H                    -6.94519  -1.40857   1.00382 
 C                    -6.96603  -0.50385  -0.9512 
 H                    -7.17282  -1.43353  -1.4843 
 H                    -7.91126   0.01605  -0.78891 
 H                    -6.33223   0.12076  -1.58266 
 C                     1.12993   2.86526   1.40733 
 O                     0.48671   1.96912   2.0099 
 O                     2.16649   3.41048   1.86257 
 C                    -5.15509  -2.98635   0.30955 
 H                    -6.15593  -3.24545  -0.03664 
 H                    -4.45568  -3.44411  -0.38896 
 C                    -4.93976  -3.50223   1.72382 
 H                    -5.05446  -4.58678   1.74697 
 H                    -3.94133  -3.25249   2.08571 
 H                    -5.67178  -3.06512   2.40514 
 C                     4.18723  -3.81071  -0.026 
 H                     3.40941  -3.92062   0.729 
 H                     5.12539  -4.10511   0.44559 
 C                     5.68012  -1.9404   -0.65621 
 H                     5.66517  -1.20973  -1.46337 
 H                     6.2322   -2.8029   -1.03033 
 C                     6.36117  -1.38068   0.58232 
 H                     7.38354  -1.08343   0.34465 
 H                     5.8276   -0.50833   0.96306 
 H                     6.39737  -2.13351   1.37175 
 C                     3.90934  -4.69072  -1.23442 
 H                     4.71487  -4.60132  -1.96536 
 H                     3.83938  -5.73515  -0.92734 
 H                     2.9729   -4.40998  -1.71875 
 N                     4.31873  -2.39969  -0.3828 
 H                     1.99734   2.08718   3.68428 
 
 Add virtual bond connecting atoms H64        and O40        Dist= 4.27D+00.
 Add virtual bond connecting atoms H64        and O41        Dist= 4.27D+00.
 NAtoms=     64 NQM=       64 NQMF=       0 NMMI=      0 NMMIF=      0
                NMic=       0 NMicF=      0.
                    Isotopes and Nuclear Properties:
 (Nuclear quadrupole moments (NQMom) in fm**2, nuclear magnetic moments (NMagM)
  in nuclear magnetons)

  Atom         1           2           3           4           5           6           7           8           9          10
 IAtWgt=          12          12          12          12          12          12          12          12          12          12
 AtmWgt=  12.0000000  12.0000000  12.0000000  12.0000000  12.0000000  12.0000000  12.0000000  12.0000000  12.0000000  12.0000000
 NucSpn=           0           0           0           0           0           0           0           0           0           0
 AtZEff=   0.0000000   0.0000000   0.0000000   0.0000000   0.0000000   0.0000000   0.0000000   0.0000000   0.0000000   0.0000000
 NQMom=    0.0000000   0.0000000   0.0000000   0.0000000   0.0000000   0.0000000   0.0000000   0.0000000   0.0000000   0.0000000
 NMagM=    0.0000000   0.0000000   0.0000000   0.0000000   0.0000000   0.0000000   0.0000000   0.0000000   0.0000000   0.0000000
 AtZNuc=   6.0000000   6.0000000   6.0000000   6.0000000   6.0000000   6.0000000   6.0000000   6.0000000   6.0000000   6.0000000

  Atom        11          12          13          14          15          16          17          18          19          20
 IAtWgt=           1          12          12          12           1           1           1           1           1          16
 AtmWgt=   1.0078250  12.0000000  12.0000000  12.0000000   1.0078250   1.0078250   1.0078250   1.0078250   1.0078250  15.9949146
 NucSpn=           1           0           0           0           1           1           1           1           1           0
 AtZEff=   0.0000000   0.0000000   0.0000000   0.0000000   0.0000000   0.0000000   0.0000000   0.0000000   0.0000000   0.0000000
 NQMom=    0.0000000   0.0000000   0.0000000   0.0000000   0.0000000   0.0000000   0.0000000   0.0000000   0.0000000   0.0000000
 NMagM=    2.7928460   0.0000000   0.0000000   0.0000000   2.7928460   2.7928460   2.7928460   2.7928460   2.7928460   0.0000000
 AtZNuc=   1.0000000   6.0000000   6.0000000   6.0000000   1.0000000   1.0000000   1.0000000   1.0000000   1.0000000   8.0000000

  Atom        21          22          23          24          25          26          27          28          29          30
 IAtWgt=          12          12          12          12           1          12          12           1           1           1
 AtmWgt=  12.0000000  12.0000000  12.0000000  12.0000000   1.0078250  12.0000000  12.0000000   1.0078250   1.0078250   1.0078250
 NucSpn=           0           0           0           0           1           0           0           1           1           1
 AtZEff=   0.0000000   0.0000000   0.0000000   0.0000000   0.0000000   0.0000000   0.0000000   0.0000000   0.0000000   0.0000000
 NQMom=    0.0000000   0.0000000   0.0000000   0.0000000   0.0000000   0.0000000   0.0000000   0.0000000   0.0000000   0.0000000
 NMagM=    0.0000000   0.0000000   0.0000000   0.0000000   2.7928460   0.0000000   0.0000000   2.7928460   2.7928460   2.7928460
 AtZNuc=   6.0000000   6.0000000   6.0000000   6.0000000   1.0000000   6.0000000   6.0000000   1.0000000   1.0000000   1.0000000

  Atom        31          32          33          34          35          36          37          38          39          40
 IAtWgt=          14          12           1           1          12           1           1           1          12          16
 AtmWgt=  14.0030740  12.0000000   1.0078250   1.0078250  12.0000000   1.0078250   1.0078250   1.0078250  12.0000000  15.9949146
 NucSpn=           2           0           1           1           0           1           1           1           0           0
 AtZEff=   0.0000000   0.0000000   0.0000000   0.0000000   0.0000000   0.0000000   0.0000000   0.0000000   0.0000000   0.0000000
 NQMom=    2.0440000   0.0000000   0.0000000   0.0000000   0.0000000   0.0000000   0.0000000   0.0000000   0.0000000   0.0000000
 NMagM=    0.4037610   0.0000000   2.7928460   2.7928460   0.0000000   2.7928460   2.7928460   2.7928460   0.0000000   0.0000000
 AtZNuc=   7.0000000   6.0000000   1.0000000   1.0000000   6.0000000   1.0000000   1.0000000   1.0000000   6.0000000   8.0000000

  Atom        41          42          43          44          45          46          47          48          49          50
 IAtWgt=          16          12           1           1          12           1           1           1          12           1
 AtmWgt=  15.9949146  12.0000000   1.0078250   1.0078250  12.0000000   1.0078250   1.0078250   1.0078250  12.0000000   1.0078250
 NucSpn=           0           0           1           1           0           1           1           1           0           1
 AtZEff=   0.0000000   0.0000000   0.0000000   0.0000000   0.0000000   0.0000000   0.0000000   0.0000000   0.0000000   0.0000000
 NQMom=    0.0000000   0.0000000   0.0000000   0.0000000   0.0000000   0.0000000   0.0000000   0.0000000   0.0000000   0.0000000
 NMagM=    0.0000000   0.0000000   2.7928460   2.7928460   0.0000000   2.7928460   2.7928460   2.7928460   0.0000000   2.7928460
 AtZNuc=   8.0000000   6.0000000   1.0000000   1.0000000   6.0000000   1.0000000   1.0000000   1.0000000   6.0000000   1.0000000

  Atom        51          52          53          54          55          56          57          58          59          60
 IAtWgt=           1          12           1           1          12           1           1           1          12           1
 AtmWgt=   1.0078250  12.0000000   1.0078250   1.0078250  12.0000000   1.0078250   1.0078250   1.0078250  12.0000000   1.0078250
 NucSpn=           1           0           1           1           0           1           1           1           0           1
 AtZEff=   0.0000000   0.0000000   0.0000000   0.0000000   0.0000000   0.0000000   0.0000000   0.0000000   0.0000000   0.0000000
 NQMom=    0.0000000   0.0000000   0.0000000   0.0000000   0.0000000   0.0000000   0.0000000   0.0000000   0.0000000   0.0000000
 NMagM=    2.7928460   0.0000000   2.7928460   2.7928460   0.0000000   2.7928460   2.7928460   2.7928460   0.0000000   2.7928460
 AtZNuc=   1.0000000   6.0000000   1.0000000   1.0000000   6.0000000   1.0000000   1.0000000   1.0000000   6.0000000   1.0000000

  Atom        61          62          63          64
 IAtWgt=           1           1          14           1
 AtmWgt=   1.0078250   1.0078250  14.0030740   1.0078250
 NucSpn=           1           1           2           1
 AtZEff=   0.0000000   0.0000000   0.0000000   0.0000000
 NQMom=    0.0000000   0.0000000   2.0440000   0.0000000
 NMagM=    2.7928460   2.7928460   0.4037610   2.7928460
 AtZNuc=   1.0000000   1.0000000   7.0000000   1.0000000
 Leave Link  101 at Thu Mar 31 16:30:33 2022, MaxMem=  5242880000 cpu:         4.9
 (Enter /opt/nce/packages/global/g09/l103.exe)

 GradGradGradGradGradGradGradGradGradGradGradGradGradGradGradGradGradGrad
 Berny optimization.
 Initialization pass.
                           ----------------------------
                           !    Initial Parameters    !
                           ! (Angstroms and Degrees)  !
 --------------------------                            --------------------------
 ! Name  Definition              Value          Derivative Info.                !
 --------------------------------------------------------------------------------
 ! R1    R(1,2)                  1.413          estimate D2E/DX2                !
 ! R2    R(1,6)                  1.4372         estimate D2E/DX2                !
 ! R3    R(1,31)                 1.3398         estimate D2E/DX2                !
 ! R4    R(2,3)                  1.3718         estimate D2E/DX2                !
 ! R5    R(2,15)                 1.0793         estimate D2E/DX2                !
 ! R6    R(3,4)                  1.4165         estimate D2E/DX2                !
 ! R7    R(3,20)                 1.3517         estimate D2E/DX2                !
 ! R8    R(4,5)                  1.421          estimate D2E/DX2                !
 ! R9    R(4,7)                  1.3995         estimate D2E/DX2                !
 ! R10   R(5,6)                  1.3569         estimate D2E/DX2                !
 ! R11   R(5,16)                 1.0821         estimate D2E/DX2                !
 ! R12   R(6,17)                 1.0791         estimate D2E/DX2                !
 ! R13   R(7,8)                  1.4022         estimate D2E/DX2                !
 ! R14   R(7,21)                 1.4851         estimate D2E/DX2                !
 ! R15   R(8,9)                  1.4153         estimate D2E/DX2                !
 ! R16   R(8,14)                 1.4203         estimate D2E/DX2                !
 ! R17   R(9,10)                 1.3726         estimate D2E/DX2                !
 ! R18   R(9,20)                 1.3523         estimate D2E/DX2                !
 ! R19   R(10,11)                1.0792         estimate D2E/DX2                !
 ! R20   R(10,12)                1.4123         estimate D2E/DX2                !
 ! R21   R(12,13)                1.4361         estimate D2E/DX2                !
 ! R22   R(12,63)                1.3407         estimate D2E/DX2                !
 ! R23   R(13,14)                1.3577         estimate D2E/DX2                !
 ! R24   R(13,18)                1.0789         estimate D2E/DX2                !
 ! R25   R(14,19)                1.0826         estimate D2E/DX2                !
 ! R26   R(21,22)                1.3936         estimate D2E/DX2                !
 ! R27   R(21,23)                1.3987         estimate D2E/DX2                !
 ! R28   R(22,24)                1.3872         estimate D2E/DX2                !
 ! R29   R(22,25)                1.0835         estimate D2E/DX2                !
 ! R30   R(23,26)                1.3909         estimate D2E/DX2                !
 ! R31   R(23,39)                1.5092         estimate D2E/DX2                !
 ! R32   R(24,27)                1.388          estimate D2E/DX2                !
 ! R33   R(24,28)                1.0826         estimate D2E/DX2                !
 ! R34   R(26,27)                1.3867         estimate D2E/DX2                !
 ! R35   R(26,29)                1.0825         estimate D2E/DX2                !
 ! R36   R(27,30)                1.0826         estimate D2E/DX2                !
 ! R37   R(31,32)                1.4629         estimate D2E/DX2                !
 ! R38   R(31,42)                1.4613         estimate D2E/DX2                !
 ! R39   R(32,33)                1.0887         estimate D2E/DX2                !
 ! R40   R(32,34)                1.0904         estimate D2E/DX2                !
 ! R41   R(32,35)                1.5199         estimate D2E/DX2                !
 ! R42   R(35,36)                1.0915         estimate D2E/DX2                !
 ! R43   R(35,37)                1.0909         estimate D2E/DX2                !
 ! R44   R(35,38)                1.0911         estimate D2E/DX2                !
 ! R45   R(39,40)                1.2569         estimate D2E/DX2                !
 ! R46   R(39,41)                1.2566         estimate D2E/DX2                !
 ! R47   R(40,64)                2.2582         estimate D2E/DX2                !
 ! R48   R(41,64)                2.258          estimate D2E/DX2                !
 ! R49   R(42,43)                1.0903         estimate D2E/DX2                !
 ! R50   R(42,44)                1.0893         estimate D2E/DX2                !
 ! R51   R(42,45)                1.5208         estimate D2E/DX2                !
 ! R52   R(45,46)                1.0908         estimate D2E/DX2                !
 ! R53   R(45,47)                1.091          estimate D2E/DX2                !
 ! R54   R(45,48)                1.0914         estimate D2E/DX2                !
 ! R55   R(49,50)                1.0895         estimate D2E/DX2                !
 ! R56   R(49,51)                1.0905         estimate D2E/DX2                !
 ! R57   R(49,59)                1.5205         estimate D2E/DX2                !
 ! R58   R(49,63)                1.4614         estimate D2E/DX2                !
 ! R59   R(52,53)                1.0889         estimate D2E/DX2                !
 ! R60   R(52,54)                1.0903         estimate D2E/DX2                !
 ! R61   R(52,55)                1.5202         estimate D2E/DX2                !
 ! R62   R(52,63)                1.4626         estimate D2E/DX2                !
 ! R63   R(55,56)                1.0909         estimate D2E/DX2                !
 ! R64   R(55,57)                1.0912         estimate D2E/DX2                !
 ! R65   R(55,58)                1.0915         estimate D2E/DX2                !
 ! R66   R(59,60)                1.0914         estimate D2E/DX2                !
 ! R67   R(59,61)                1.0909         estimate D2E/DX2                !
 ! R68   R(59,62)                1.091          estimate D2E/DX2                !
 ! A1    A(2,1,6)              117.6329         estimate D2E/DX2                !
 ! A2    A(2,1,31)             121.5278         estimate D2E/DX2                !
 ! A3    A(6,1,31)             120.8389         estimate D2E/DX2                !
 ! A4    A(1,2,3)              119.8841         estimate D2E/DX2                !
 ! A5    A(1,2,15)             122.2569         estimate D2E/DX2                !
 ! A6    A(3,2,15)             117.8261         estimate D2E/DX2                !
 ! A7    A(2,3,4)              123.2552         estimate D2E/DX2                !
 ! A8    A(2,3,20)             116.3277         estimate D2E/DX2                !
 ! A9    A(4,3,20)             120.4111         estimate D2E/DX2                !
 ! A10   A(3,4,5)              116.0916         estimate D2E/DX2                !
 ! A11   A(3,4,7)              119.2934         estimate D2E/DX2                !
 ! A12   A(5,4,7)              124.589          estimate D2E/DX2                !
 ! A13   A(4,5,6)              121.9294         estimate D2E/DX2                !
 ! A14   A(4,5,16)             118.8178         estimate D2E/DX2                !
 ! A15   A(6,5,16)             119.2529         estimate D2E/DX2                !
 ! A16   A(1,6,5)              121.1963         estimate D2E/DX2                !
 ! A17   A(1,6,17)             120.0278         estimate D2E/DX2                !
 ! A18   A(5,6,17)             118.7688         estimate D2E/DX2                !
 ! A19   A(4,7,8)              119.1421         estimate D2E/DX2                !
 ! A20   A(4,7,21)             120.4181         estimate D2E/DX2                !
 ! A21   A(8,7,21)             120.3852         estimate D2E/DX2                !
 ! A22   A(7,8,9)              119.2446         estimate D2E/DX2                !
 ! A23   A(7,8,14)             124.6854         estimate D2E/DX2                !
 ! A24   A(9,8,14)             116.0684         estimate D2E/DX2                !
 ! A25   A(8,9,10)             123.272          estimate D2E/DX2                !
 ! A26   A(8,9,20)             120.4316         estimate D2E/DX2                !
 ! A27   A(10,9,20)            116.2951         estimate D2E/DX2                !
 ! A28   A(9,10,11)            117.8997         estimate D2E/DX2                !
 ! A29   A(9,10,12)            119.9048         estimate D2E/DX2                !
 ! A30   A(11,10,12)           122.1825         estimate D2E/DX2                !
 ! A31   A(10,12,13)           117.5908         estimate D2E/DX2                !
 ! A32   A(10,12,63)           121.5095         estimate D2E/DX2                !
 ! A33   A(13,12,63)           120.8997         estimate D2E/DX2                !
 ! A34   A(12,13,14)           121.2207         estimate D2E/DX2                !
 ! A35   A(12,13,18)           120.0073         estimate D2E/DX2                !
 ! A36   A(14,13,18)           118.7662         estimate D2E/DX2                !
 ! A37   A(8,14,13)            121.9322         estimate D2E/DX2                !
 ! A38   A(8,14,19)            119.0632         estimate D2E/DX2                !
 ! A39   A(13,14,19)           119.0045         estimate D2E/DX2                !
 ! A40   A(3,20,9)             121.457          estimate D2E/DX2                !
 ! A41   A(7,21,22)            118.0052         estimate D2E/DX2                !
 ! A42   A(7,21,23)            122.4526         estimate D2E/DX2                !
 ! A43   A(22,21,23)           119.4793         estimate D2E/DX2                !
 ! A44   A(21,22,24)           120.5705         estimate D2E/DX2                !
 ! A45   A(21,22,25)           119.2843         estimate D2E/DX2                !
 ! A46   A(24,22,25)           120.1419         estimate D2E/DX2                !
 ! A47   A(21,23,26)           119.4583         estimate D2E/DX2                !
 ! A48   A(21,23,39)           121.7052         estimate D2E/DX2                !
 ! A49   A(26,23,39)           118.8277         estimate D2E/DX2                !
 ! A50   A(22,24,27)           119.9446         estimate D2E/DX2                !
 ! A51   A(22,24,28)           119.696          estimate D2E/DX2                !
 ! A52   A(27,24,28)           120.3589         estimate D2E/DX2                !
 ! A53   A(23,26,27)           120.7906         estimate D2E/DX2                !
 ! A54   A(23,26,29)           118.7945         estimate D2E/DX2                !
 ! A55   A(27,26,29)           120.411          estimate D2E/DX2                !
 ! A56   A(24,27,26)           119.7494         estimate D2E/DX2                !
 ! A57   A(24,27,30)           120.2516         estimate D2E/DX2                !
 ! A58   A(26,27,30)           119.9989         estimate D2E/DX2                !
 ! A59   A(1,31,32)            122.5394         estimate D2E/DX2                !
 ! A60   A(1,31,42)            121.9311         estimate D2E/DX2                !
 ! A61   A(32,31,42)           115.5241         estimate D2E/DX2                !
 ! A62   A(31,32,33)           109.6129         estimate D2E/DX2                !
 ! A63   A(31,32,34)           106.6092         estimate D2E/DX2                !
 ! A64   A(31,32,35)           112.3622         estimate D2E/DX2                !
 ! A65   A(33,32,34)           106.4893         estimate D2E/DX2                !
 ! A66   A(33,32,35)           111.3366         estimate D2E/DX2                !
 ! A67   A(34,32,35)           110.1577         estimate D2E/DX2                !
 ! A68   A(32,35,36)           110.4952         estimate D2E/DX2                !
 ! A69   A(32,35,37)           110.0289         estimate D2E/DX2                !
 ! A70   A(32,35,38)           111.0953         estimate D2E/DX2                !
 ! A71   A(36,35,37)           108.3264         estimate D2E/DX2                !
 ! A72   A(36,35,38)           108.3605         estimate D2E/DX2                !
 ! A73   A(37,35,38)           108.4563         estimate D2E/DX2                !
 ! A74   A(23,39,40)           118.2665         estimate D2E/DX2                !
 ! A75   A(23,39,41)           117.8235         estimate D2E/DX2                !
 ! A76   A(40,39,41)           123.9036         estimate D2E/DX2                !
 ! A77   A(39,40,64)            88.6169         estimate D2E/DX2                !
 ! A78   A(39,41,64)            88.6371         estimate D2E/DX2                !
 ! A79   A(31,42,43)           106.8018         estimate D2E/DX2                !
 ! A80   A(31,42,44)           109.3933         estimate D2E/DX2                !
 ! A81   A(31,42,45)           112.339          estimate D2E/DX2                !
 ! A82   A(43,42,44)           106.6142         estimate D2E/DX2                !
 ! A83   A(43,42,45)           110.1609         estimate D2E/DX2                !
 ! A84   A(44,42,45)           111.2763         estimate D2E/DX2                !
 ! A85   A(42,45,46)           110.0061         estimate D2E/DX2                !
 ! A86   A(42,45,47)           111.1259         estimate D2E/DX2                !
 ! A87   A(42,45,48)           110.47           estimate D2E/DX2                !
 ! A88   A(46,45,47)           108.469          estimate D2E/DX2                !
 ! A89   A(46,45,48)           108.3266         estimate D2E/DX2                !
 ! A90   A(47,45,48)           108.3654         estimate D2E/DX2                !
 ! A91   A(50,49,51)           106.6941         estimate D2E/DX2                !
 ! A92   A(50,49,59)           111.2148         estimate D2E/DX2                !
 ! A93   A(50,49,63)           109.3194         estimate D2E/DX2                !
 ! A94   A(51,49,59)           110.1611         estimate D2E/DX2                !
 ! A95   A(51,49,63)           106.7888         estimate D2E/DX2                !
 ! A96   A(59,49,63)           112.4097         estimate D2E/DX2                !
 ! A97   A(53,52,54)           106.4655         estimate D2E/DX2                !
 ! A98   A(53,52,55)           111.2856         estimate D2E/DX2                !
 ! A99   A(53,52,63)           109.6654         estimate D2E/DX2                !
 ! A100  A(54,52,55)           110.1198         estimate D2E/DX2                !
 ! A101  A(54,52,63)           106.6816         estimate D2E/DX2                !
 ! A102  A(55,52,63)           112.3543         estimate D2E/DX2                !
 ! A103  A(52,55,56)           110.0403         estimate D2E/DX2                !
 ! A104  A(52,55,57)           111.0731         estimate D2E/DX2                !
 ! A105  A(52,55,58)           110.4974         estimate D2E/DX2                !
 ! A106  A(56,55,57)           108.4483         estimate D2E/DX2                !
 ! A107  A(56,55,58)           108.3263         estimate D2E/DX2                !
 ! A108  A(57,55,58)           108.3776         estimate D2E/DX2                !
 ! A109  A(49,59,60)           110.4856         estimate D2E/DX2                !
 ! A110  A(49,59,61)           110.0059         estimate D2E/DX2                !
 ! A111  A(49,59,62)           111.1458         estimate D2E/DX2                !
 ! A112  A(60,59,61)           108.3183         estimate D2E/DX2                !
 ! A113  A(60,59,62)           108.3678         estimate D2E/DX2                !
 ! A114  A(61,59,62)           108.4381         estimate D2E/DX2                !
 ! A115  A(12,63,49)           121.8362         estimate D2E/DX2                !
 ! A116  A(12,63,52)           122.5291         estimate D2E/DX2                !
 ! A117  A(49,63,52)           115.6338         estimate D2E/DX2                !
 ! A118  A(40,64,41)            58.8378         estimate D2E/DX2                !
 ! D1    D(6,1,2,3)             -0.2125         estimate D2E/DX2                !
 ! D2    D(6,1,2,15)           177.655          estimate D2E/DX2                !
 ! D3    D(31,1,2,3)           179.9966         estimate D2E/DX2                !
 ! D4    D(31,1,2,15)           -2.1359         estimate D2E/DX2                !
 ! D5    D(2,1,6,5)              0.5151         estimate D2E/DX2                !
 ! D6    D(2,1,6,17)           179.5298         estimate D2E/DX2                !
 ! D7    D(31,1,6,5)          -179.6925         estimate D2E/DX2                !
 ! D8    D(31,1,6,17)           -0.6778         estimate D2E/DX2                !
 ! D9    D(2,1,31,32)          174.2271         estimate D2E/DX2                !
 ! D10   D(2,1,31,42)           -4.8877         estimate D2E/DX2                !
 ! D11   D(6,1,31,32)           -5.5572         estimate D2E/DX2                !
 ! D12   D(6,1,31,42)          175.3281         estimate D2E/DX2                !
 ! D13   D(1,2,3,4)             -0.6723         estimate D2E/DX2                !
 ! D14   D(1,2,3,20)           178.4417         estimate D2E/DX2                !
 ! D15   D(15,2,3,4)          -178.6332         estimate D2E/DX2                !
 ! D16   D(15,2,3,20)            0.4808         estimate D2E/DX2                !
 ! D17   D(2,3,4,5)              1.2049         estimate D2E/DX2                !
 ! D18   D(2,3,4,7)            179.4358         estimate D2E/DX2                !
 ! D19   D(20,3,4,5)          -177.8743         estimate D2E/DX2                !
 ! D20   D(20,3,4,7)             0.3566         estimate D2E/DX2                !
 ! D21   D(2,3,20,9)          -178.9548         estimate D2E/DX2                !
 ! D22   D(4,3,20,9)             0.1861         estimate D2E/DX2                !
 ! D23   D(3,4,5,6)             -0.8817         estimate D2E/DX2                !
 ! D24   D(3,4,5,16)           179.093          estimate D2E/DX2                !
 ! D25   D(7,4,5,6)           -179.0075         estimate D2E/DX2                !
 ! D26   D(7,4,5,16)             0.9672         estimate D2E/DX2                !
 ! D27   D(3,4,7,8)              0.1809         estimate D2E/DX2                !
 ! D28   D(3,4,7,21)           177.5028         estimate D2E/DX2                !
 ! D29   D(5,4,7,8)            178.2508         estimate D2E/DX2                !
 ! D30   D(5,4,7,21)            -4.4272         estimate D2E/DX2                !
 ! D31   D(4,5,6,1)              0.0555         estimate D2E/DX2                !
 ! D32   D(4,5,6,17)          -178.9713         estimate D2E/DX2                !
 ! D33   D(16,5,6,1)          -179.9191         estimate D2E/DX2                !
 ! D34   D(16,5,6,17)            1.0541         estimate D2E/DX2                !
 ! D35   D(4,7,8,9)             -1.2107         estimate D2E/DX2                !
 ! D36   D(4,7,8,14)           179.275          estimate D2E/DX2                !
 ! D37   D(21,7,8,9)          -178.5336         estimate D2E/DX2                !
 ! D38   D(21,7,8,14)            1.9521         estimate D2E/DX2                !
 ! D39   D(4,7,21,22)          -67.8103         estimate D2E/DX2                !
 ! D40   D(4,7,21,23)          115.0893         estimate D2E/DX2                !
 ! D41   D(8,7,21,22)          109.4783         estimate D2E/DX2                !
 ! D42   D(8,7,21,23)          -67.6221         estimate D2E/DX2                !
 ! D43   D(7,8,9,10)          -178.6781         estimate D2E/DX2                !
 ! D44   D(7,8,9,20)             1.7653         estimate D2E/DX2                !
 ! D45   D(14,8,9,10)            0.8773         estimate D2E/DX2                !
 ! D46   D(14,8,9,20)         -178.6793         estimate D2E/DX2                !
 ! D47   D(7,8,14,13)          178.5758         estimate D2E/DX2                !
 ! D48   D(7,8,14,19)           -1.3061         estimate D2E/DX2                !
 ! D49   D(9,8,14,13)           -0.9524         estimate D2E/DX2                !
 ! D50   D(9,8,14,19)          179.1657         estimate D2E/DX2                !
 ! D51   D(8,9,10,11)         -178.7277         estimate D2E/DX2                !
 ! D52   D(8,9,10,12)           -0.0086         estimate D2E/DX2                !
 ! D53   D(20,9,10,11)           0.8458         estimate D2E/DX2                !
 ! D54   D(20,9,10,12)         179.565          estimate D2E/DX2                !
 ! D55   D(8,9,20,3)            -1.2536         estimate D2E/DX2                !
 ! D56   D(10,9,20,3)          179.16           estimate D2E/DX2                !
 ! D57   D(9,10,12,13)          -0.7945         estimate D2E/DX2                !
 ! D58   D(9,10,12,63)         179.1988         estimate D2E/DX2                !
 ! D59   D(11,10,12,13)        177.868          estimate D2E/DX2                !
 ! D60   D(11,10,12,63)         -2.1387         estimate D2E/DX2                !
 ! D61   D(10,12,13,14)          0.7194         estimate D2E/DX2                !
 ! D62   D(10,12,13,18)        179.8406         estimate D2E/DX2                !
 ! D63   D(63,12,13,14)       -179.2738         estimate D2E/DX2                !
 ! D64   D(63,12,13,18)         -0.1527         estimate D2E/DX2                !
 ! D65   D(10,12,63,49)         -5.21           estimate D2E/DX2                !
 ! D66   D(10,12,63,52)        175.1497         estimate D2E/DX2                !
 ! D67   D(13,12,63,49)        174.783          estimate D2E/DX2                !
 ! D68   D(13,12,63,52)         -4.8573         estimate D2E/DX2                !
 ! D69   D(12,13,14,8)           0.1758         estimate D2E/DX2                !
 ! D70   D(12,13,14,19)       -179.9423         estimate D2E/DX2                !
 ! D71   D(18,13,14,8)        -178.956          estimate D2E/DX2                !
 ! D72   D(18,13,14,19)          0.9259         estimate D2E/DX2                !
 ! D73   D(7,21,22,24)        -177.4919         estimate D2E/DX2                !
 ! D74   D(7,21,22,25)           1.8558         estimate D2E/DX2                !
 ! D75   D(23,21,22,24)         -0.3025         estimate D2E/DX2                !
 ! D76   D(23,21,22,25)        179.0452         estimate D2E/DX2                !
 ! D77   D(7,21,23,26)         176.7227         estimate D2E/DX2                !
 ! D78   D(7,21,23,39)          -4.3718         estimate D2E/DX2                !
 ! D79   D(22,21,23,26)         -0.3365         estimate D2E/DX2                !
 ! D80   D(22,21,23,39)        178.569          estimate D2E/DX2                !
 ! D81   D(21,22,24,27)          0.3502         estimate D2E/DX2                !
 ! D82   D(21,22,24,28)       -179.891          estimate D2E/DX2                !
 ! D83   D(25,22,24,27)       -178.9919         estimate D2E/DX2                !
 ! D84   D(25,22,24,28)          0.7669         estimate D2E/DX2                !
 ! D85   D(21,23,26,27)          0.9387         estimate D2E/DX2                !
 ! D86   D(21,23,26,29)       -179.7695         estimate D2E/DX2                !
 ! D87   D(39,23,26,27)       -177.9985         estimate D2E/DX2                !
 ! D88   D(39,23,26,29)          1.2934         estimate D2E/DX2                !
 ! D89   D(21,23,39,40)        -34.6238         estimate D2E/DX2                !
 ! D90   D(21,23,39,41)        146.2634         estimate D2E/DX2                !
 ! D91   D(26,23,39,40)        144.2884         estimate D2E/DX2                !
 ! D92   D(26,23,39,41)        -34.8243         estimate D2E/DX2                !
 ! D93   D(22,24,27,26)          0.2456         estimate D2E/DX2                !
 ! D94   D(22,24,27,30)       -179.8496         estimate D2E/DX2                !
 ! D95   D(28,24,27,26)       -179.5115         estimate D2E/DX2                !
 ! D96   D(28,24,27,30)          0.3933         estimate D2E/DX2                !
 ! D97   D(23,26,27,24)         -0.8951         estimate D2E/DX2                !
 ! D98   D(23,26,27,30)        179.1998         estimate D2E/DX2                !
 ! D99   D(29,26,27,24)        179.8245         estimate D2E/DX2                !
 ! D100  D(29,26,27,30)         -0.0806         estimate D2E/DX2                !
 ! D101  D(1,31,32,33)         -36.3671         estimate D2E/DX2                !
 ! D102  D(1,31,32,34)        -151.2477         estimate D2E/DX2                !
 ! D103  D(1,31,32,35)          87.984          estimate D2E/DX2                !
 ! D104  D(42,31,32,33)        142.8004         estimate D2E/DX2                !
 ! D105  D(42,31,32,34)         27.9198         estimate D2E/DX2                !
 ! D106  D(42,31,32,35)        -92.8485         estimate D2E/DX2                !
 ! D107  D(1,31,42,43)        -151.9843         estimate D2E/DX2                !
 ! D108  D(1,31,42,44)         -36.9642         estimate D2E/DX2                !
 ! D109  D(1,31,42,45)          87.1304         estimate D2E/DX2                !
 ! D110  D(32,31,42,43)         28.8426         estimate D2E/DX2                !
 ! D111  D(32,31,42,44)        143.8628         estimate D2E/DX2                !
 ! D112  D(32,31,42,45)        -92.0426         estimate D2E/DX2                !
 ! D113  D(31,32,35,36)         58.4358         estimate D2E/DX2                !
 ! D114  D(31,32,35,37)        178.0099         estimate D2E/DX2                !
 ! D115  D(31,32,35,38)        -61.8712         estimate D2E/DX2                !
 ! D116  D(33,32,35,36)       -178.1719         estimate D2E/DX2                !
 ! D117  D(33,32,35,37)        -58.5979         estimate D2E/DX2                !
 ! D118  D(33,32,35,38)         61.521          estimate D2E/DX2                !
 ! D119  D(34,32,35,36)        -60.2675         estimate D2E/DX2                !
 ! D120  D(34,32,35,37)         59.3065         estimate D2E/DX2                !
 ! D121  D(34,32,35,38)        179.4254         estimate D2E/DX2                !
 ! D122  D(23,39,40,64)       -179.754          estimate D2E/DX2                !
 ! D123  D(41,39,40,64)         -0.6994         estimate D2E/DX2                !
 ! D124  D(23,39,41,64)        179.7579         estimate D2E/DX2                !
 ! D125  D(40,39,41,64)          0.6995         estimate D2E/DX2                !
 ! D126  D(39,40,64,41)          0.3775         estimate D2E/DX2                !
 ! D127  D(39,41,64,40)         -0.3776         estimate D2E/DX2                !
 ! D128  D(31,42,45,46)        178.7124         estimate D2E/DX2                !
 ! D129  D(31,42,45,47)        -61.1481         estimate D2E/DX2                !
 ! D130  D(31,42,45,48)         59.1685         estimate D2E/DX2                !
 ! D131  D(43,42,45,46)         59.7793         estimate D2E/DX2                !
 ! D132  D(43,42,45,47)        179.9188         estimate D2E/DX2                !
 ! D133  D(43,42,45,48)        -59.7646         estimate D2E/DX2                !
 ! D134  D(44,42,45,46)        -58.2446         estimate D2E/DX2                !
 ! D135  D(44,42,45,47)         61.8948         estimate D2E/DX2                !
 ! D136  D(44,42,45,48)       -177.7885         estimate D2E/DX2                !
 ! D137  D(50,49,59,60)       -177.771          estimate D2E/DX2                !
 ! D138  D(50,49,59,61)        -58.2277         estimate D2E/DX2                !
 ! D139  D(50,49,59,62)         61.8859         estimate D2E/DX2                !
 ! D140  D(51,49,59,60)        -59.6861         estimate D2E/DX2                !
 ! D141  D(51,49,59,61)         59.8572         estimate D2E/DX2                !
 ! D142  D(51,49,59,62)        179.9707         estimate D2E/DX2                !
 ! D143  D(63,49,59,60)         59.2765         estimate D2E/DX2                !
 ! D144  D(63,49,59,61)        178.8198         estimate D2E/DX2                !
 ! D145  D(63,49,59,62)        -61.0667         estimate D2E/DX2                !
 ! D146  D(50,49,63,12)        -36.3135         estimate D2E/DX2                !
 ! D147  D(50,49,63,52)        143.3501         estimate D2E/DX2                !
 ! D148  D(51,49,63,12)       -151.3836         estimate D2E/DX2                !
 ! D149  D(51,49,63,52)         28.2801         estimate D2E/DX2                !
 ! D150  D(59,49,63,12)         87.6973         estimate D2E/DX2                !
 ! D151  D(59,49,63,52)        -92.6391         estimate D2E/DX2                !
 ! D152  D(53,52,55,56)        -58.6153         estimate D2E/DX2                !
 ! D153  D(53,52,55,57)         61.4867         estimate D2E/DX2                !
 ! D154  D(53,52,55,58)       -178.1979         estimate D2E/DX2                !
 ! D155  D(54,52,55,56)         59.2038         estimate D2E/DX2                !
 ! D156  D(54,52,55,57)        179.3058         estimate D2E/DX2                !
 ! D157  D(54,52,55,58)        -60.3788         estimate D2E/DX2                !
 ! D158  D(63,52,55,56)        177.9677         estimate D2E/DX2                !
 ! D159  D(63,52,55,57)        -61.9303         estimate D2E/DX2                !
 ! D160  D(63,52,55,58)         58.3852         estimate D2E/DX2                !
 ! D161  D(53,52,63,12)        -36.8812         estimate D2E/DX2                !
 ! D162  D(53,52,63,49)        143.4577         estimate D2E/DX2                !
 ! D163  D(54,52,63,12)       -151.7985         estimate D2E/DX2                !
 ! D164  D(54,52,63,49)         28.5404         estimate D2E/DX2                !
 ! D165  D(55,52,63,12)         87.4371         estimate D2E/DX2                !
 ! D166  D(55,52,63,49)        -92.2239         estimate D2E/DX2                !
 --------------------------------------------------------------------------------
 Trust Radius=3.00D-01 FncErr=1.00D-07 GrdErr=1.00D-06
 Number of steps in this run=    362 maximum allowed number of steps=    384.
 GradGradGradGradGradGradGradGradGradGradGradGradGradGradGradGradGradGrad

 Leave Link  103 at Thu Mar 31 16:30:33 2022, MaxMem=  5242880000 cpu:         0.2
 (Enter /opt/nce/packages/global/g09/l202.exe)
 Symmetry turned off by external request.
 Stoichiometry    C28H31N2O3
                          Input orientation:                          
 ---------------------------------------------------------------------
 Center     Atomic      Atomic             Coordinates (Angstroms)
 Number     Number       Type             X           Y           Z
 ---------------------------------------------------------------------
      1          6           0       -3.864801   -0.922017    0.035880
      2          6           0       -2.652890   -1.648010    0.007829
      3          6           0       -1.465859   -0.989179   -0.189077
      4          6           0       -1.377763    0.410984   -0.384885
      5          6           0       -2.604711    1.126541   -0.341435
      6          6           0       -3.792909    0.502222   -0.142480
      7          6           0       -0.120953    0.999266   -0.566536
      8          6           0        1.021614    0.186568   -0.554052
      9          6           0        0.878658   -1.203948   -0.332512
     10          6           0        1.941378   -2.070850   -0.277418
     11          1           0        1.731220   -3.118321   -0.124622
     12          6           0        3.256401   -1.584324   -0.446297
     13          6           0        3.419311   -0.178426   -0.689691
     14          6           0        2.349169    0.655596   -0.740799
     15          1           0       -2.616290   -2.714312    0.170530
     16          1           0       -2.586928    2.200748   -0.470805
     17          1           0       -4.695566    1.093595   -0.135443
     18          1           0        4.406913    0.235419   -0.821892
     19          1           0        2.513279    1.709273   -0.927543
     20          8           0       -0.348163   -1.749128   -0.170416
     21          6           0       -0.003576    2.456283   -0.828875
     22          6           0       -0.484349    2.943412   -2.042815
     23          6           0        0.619482    3.332196    0.066002
     24          6           0       -0.355066    4.286446   -2.365010
     25          1           0       -0.952511    2.259196   -2.740365
     26          6           0        0.755517    4.674232   -0.273193
     27          6           0        0.264112    5.155403   -1.477308
     28          1           0       -0.735243    4.649989   -3.311215
     29          1           0        1.242834    5.341907    0.425794
     30          1           0        0.365514    6.204934   -1.722635
     31          7           0       -5.042523   -1.531815    0.225748
     32          6           0       -6.295221   -0.792618    0.381701
     33          1           0       -6.111586    0.124102    0.939582
     34          1           0       -6.945194   -1.408565    1.003816
     35          6           0       -6.966025   -0.503849   -0.951203
     36          1           0       -7.172821   -1.433534   -1.484295
     37          1           0       -7.911259    0.016045   -0.788908
     38          1           0       -6.332231    0.120758   -1.582656
     39          6           0        1.129928    2.865261    1.407329
     40          8           0        0.486713    1.969124    2.009905
     41          8           0        2.166486    3.410475    1.862573
     42          6           0       -5.155093   -2.986347    0.309546
     43          1           0       -6.155932   -3.245449   -0.036638
     44          1           0       -4.455684   -3.444108   -0.388959
     45          6           0       -4.939760   -3.502234    1.723823
     46          1           0       -5.054456   -4.586782    1.746971
     47          1           0       -3.941326   -3.252485    2.085713
     48          1           0       -5.671785   -3.065120    2.405135
     49          6           0        4.187230   -3.810708   -0.025998
     50          1           0        3.409414   -3.920623    0.728999
     51          1           0        5.125388   -4.105115    0.445585
     52          6           0        5.680120   -1.940395   -0.656205
     53          1           0        5.665173   -1.209726   -1.463369
     54          1           0        6.232196   -2.802904   -1.030328
     55          6           0        6.361168   -1.380678    0.582316
     56          1           0        7.383536   -1.083433    0.344654
     57          1           0        5.827600   -0.508328    0.963057
     58          1           0        6.397372   -2.133513    1.371746
     59          6           0        3.909344   -4.690723   -1.234423
     60          1           0        4.714870   -4.601323   -1.965361
     61          1           0        3.839375   -5.735147   -0.927339
     62          1           0        2.972904   -4.409976   -1.718749
     63          7           0        4.318727   -2.399693   -0.382801
     64          1           0        1.997343    2.087178    3.684284
 ---------------------------------------------------------------------
 Rotational constants (GHZ):      0.1503969      0.0867739      0.0610992
 Leave Link  202 at Thu Mar 31 16:30:33 2022, MaxMem=  5242880000 cpu:         0.1
 (Enter /opt/nce/packages/global/g09/l301.exe)
 Standard basis: def2TZVP (5D, 7F)
 Ernie: Thresh=  0.10000D-02 Tol=  0.10000D-05 Strict=F.
  1209 basis functions,  1931 primitive gaussians,  1374 cartesian basis functions
   118 alpha electrons      118 beta electrons
       nuclear repulsion energy      3333.6607807875 Hartrees.
 IExCor= 4336 DFT=T Ex+Corr=M062X ExCW=0 ScaHFX=  0.540000
 ScaDFX=  1.000000  1.000000  1.000000  1.000000 ScalE2=  1.000000  1.000000
 IRadAn=      5 IRanWt=     -1 IRanGd=            0 ICorTp=0 IEmpDi=  4
 NAtoms=   64 NActive=   64 NUniq=   64 SFac= 1.00D+00 NAtFMM=   60 NAOKFM=T Big=T
 Integral buffers will be    131072 words long.
 Raffenetti 2 integral format.
 Two-electron integral symmetry is turned off.
 ------------------------------------------------------------------------------
 Polarizable Continuum Model (PCM)
 =================================
 Model                : PCM (using non-symmetric T matrix).
 Atomic radii         : SMD-Coulomb.
 Polarization charges : Total charges.
 Charge compensation  : None.
 Solution method      : On-the-fly selection.
 Cavity type          : VdW (van der Waals Surface) (Alpha=1.000).
 Cavity algorithm     : GePol (No added spheres)
                        Default sphere list used, NSphG=   64.
                        Lebedev-Laikov grids with approx.  5.0 points / Ang**2.
                        Smoothing algorithm: York/Karplus (Gamma=1.0000).
                        Polarization charges: spherical gaussians, with
                                              point-specific exponents (IZeta= 3).
                        Self-potential: point-specific (ISelfS= 7).
                        Self-field    : sphere-specific E.n sum rule (ISelfD= 2).
 1st derivatives      : Analytical E(r).r(x)/FMM algorithm (CHGder, D1EAlg=3).
                        Cavity 1st derivative terms included.
 Solvent              : Ethanol, Eps=  24.852000 Eps(inf)=   1.852593
 ------------------------------------------------------------------------------
 GePol: Number of generator spheres                  =      64
 GePol: Total number of spheres                      =      64
 GePol: Number of exposed spheres                    =      64 (100.00%)
 GePol: Number of points                             =    4452
 GePol: Average weight of points                     =       0.11
 GePol: Minimum weight of points                     =   0.74D-11
 GePol: Maximum weight of points                     =    0.21261
 GePol: Number of points with low weight             =     263
 GePol: Fraction of low-weight points (<1% of avg)   =       5.91%
 GePol: Cavity surface area                          =    490.240 Ang**2
 GePol: Cavity volume                                =    464.832 Ang**3
 ------------------------------------------------------------------------------
 Atomic radii for non-electrostatic terms: SMD-CDS.
 ------------------------------------------------------------------------------
 PCM non-electrostatic energy =        -0.0011589462 Hartrees.
 Nuclear repulsion after PCM non-electrostatic terms =     3333.6596218413 Hartrees.
 Leave Link  301 at Thu Mar 31 16:30:33 2022, MaxMem=  5242880000 cpu:         2.5
 (Enter /opt/nce/packages/global/g09/l302.exe)
 NPDir=0 NMtPBC=     1 NCelOv=     1 NCel=       1 NClECP=     1 NCelD=      1
         NCelK=      1 NCelE2=     1 NClLst=     1 CellRange=     0.0.
 One-electron integrals computed using PRISM.
   1 Symmetry operations used in ECPInt.
 ECPInt:  NShTT=  118828 NPrTT=  359100 LenC2=   90126 LenP2D=  184748.
 LDataN:  DoStor=T MaxTD1= 6 Len=  172
 NBasis=  1209 RedAO= T EigKep=  4.37D-06  NBF=  1209
 NBsUse=  1209 1.00D-06 EigRej= -1.00D+00 NBFU=  1209
 Precomputing XC quadrature grid using
 IXCGrd= 4 IRadAn=           5 IRanWt=          -1 IRanGd=           0 AccXCQ= 0.00D+00.
 Generated NRdTot=       0 NPtTot=           0 NUsed=           0 NTot=          32
 NSgBfM=  1313  1313  1313  1313  1313 MxSgAt=    64 MxSgA2=    64.
 Leave Link  302 at Thu Mar 31 16:30:36 2022, MaxMem=  5242880000 cpu:        39.4
 (Enter /opt/nce/packages/global/g09/l303.exe)
 DipDrv:  MaxL=1.
 Leave Link  303 at Thu Mar 31 16:30:37 2022, MaxMem=  5242880000 cpu:         3.6
 (Enter /opt/nce/packages/global/g09/l401.exe)
 ExpMin= 9.52D-02 ExpMax= 2.70D+04 ExpMxC= 9.22D+02 IAcc=3 IRadAn=         5 AccDes= 0.00D+00
 Harris functional with IExCor= 1009 and IRadAn=       5 diagonalized for initial guess.
 HarFok:  IExCor= 1009 AccDes= 0.00D+00 IRadAn=         5 IDoV= 1 UseB2=F ITyADJ=14
 ICtDFT=  3500011 ScaDFX=  1.000000  1.000000  1.000000  1.000000
 FoFCou: FMM=F IPFlag=           0 FMFlag=      100000 FMFlg1=        2001
         NFxFlg=           0 DoJE=T BraDBF=F KetDBF=T FulRan=T
         wScrn=  0.000000 ICntrl=     500 IOpCl=  0 I1Cent=   200000004 NGrid=           0
         NMat0=    1 NMatS0=      1 NMatT0=    0 NMatD0=    1 NMtDS0=    0 NMtDT0=    0
 Symmetry not used in FoFCou.
 Harris En= -1419.83825142224    
 JPrj=0 DoOrth=F DoCkMO=F.
 Leave Link  401 at Thu Mar 31 16:30:50 2022, MaxMem=  5242880000 cpu:       157.6
 (Enter /opt/nce/packages/global/g09/l502.exe)
 Closed shell SCF:
 Using DIIS extrapolation, IDIIS=  1040.
 Two-electron integral symmetry not used.
 IVT=     5707038 IEndB=     5707038 NGot=  5242880000 MDV=  5239078853
 LenX=  5239078853 LenY=  5237189603
 Requested convergence on RMS density matrix=1.00D-08 within 128 cycles.
 Requested convergence on MAX density matrix=1.00D-06.
 Requested convergence on             energy=1.00D-06.
 No special actions if energy rises.
 Fock matrices will be formed incrementally for  20 cycles.

 Cycle   1  Pass 1  IDiag  1:
 FoFJK:  IHMeth= 1 ICntrl=       0 DoSepK=F KAlg= 0 I1Cent=   0 FoldK=F
 IRaf= 720000000 NMat=   1 IRICut=       1 DoRegI=T DoRafI=F ISym2E= 0.
 FoFCou: FMM=T IPFlag=           0 FMFlag=      100000 FMFlg1=        2001
         NFxFlg=           0 DoJE=F BraDBF=F KetDBF=F FulRan=T
         wScrn=  0.000000 ICntrl=       0 IOpCl=  0 I1Cent=           0 NGrid=           0
         NMat0=    1 NMatS0=      1 NMatT0=    0 NMatD0=    1 NMtDS0=    0 NMtDT0=    0
 Symmetry not used in FoFCou.
 FMM levels:  10  Number of levels for PrismC:   9
 Inv3:  Mode=1 IEnd=    59460912.
 Iteration    1 A*A^-1 deviation from unit magnitude is 5.77D-15 for   4452.
 Iteration    1 A*A^-1 deviation from orthogonality  is 3.33D-15 for   2989    478.
 Iteration    1 A^-1*A deviation from unit magnitude is 5.77D-15 for   4452.
 Iteration    1 A^-1*A deviation from orthogonality  is 8.44D-12 for   4242   3806.
 E= -1419.62572198075    
 DIIS: error= 1.91D-02 at cycle   1 NSaved=   1.
 NSaved= 1 IEnMin= 1 EnMin= -1419.62572198075     IErMin= 1 ErrMin= 1.91D-02
 ErrMax= 1.91D-02  0.00D+00 EMaxC= 1.00D-01 BMatC= 1.07D+00 BMatP= 1.07D+00
 IDIUse=3 WtCom= 8.09D-01 WtEn= 1.91D-01
 Coeff-Com:  0.100D+01
 Coeff-En:   0.100D+01
 Coeff:      0.100D+01
 Gap=     0.160 Goal=   None    Shift=    0.000
 GapD=    0.160 DampG=1.000 DampE=0.500 DampFc=0.5000 IDamp=-1.
 Damping current iteration by 5.00D-01
 RMSDP=3.50D-03 MaxDP=6.99D-01              OVMax= 3.86D-01

 Cycle   2  Pass 1  IDiag  1:
 RMSU=  1.75D-03    CP:  1.02D+00
 E= -1420.05807765332     Delta-E=       -0.432355672567 Rises=F Damp=T
 DIIS: error= 4.56D-03 at cycle   2 NSaved=   2.
 NSaved= 2 IEnMin= 2 EnMin= -1420.05807765332     IErMin= 2 ErrMin= 4.56D-03
 ErrMax= 4.56D-03  0.00D+00 EMaxC= 1.00D-01 BMatC= 9.47D-02 BMatP= 1.07D+00
 IDIUse=3 WtCom= 9.54D-01 WtEn= 4.56D-02
 Coeff-Com: -0.102D+00 0.110D+01
 Coeff-En:   0.000D+00 0.100D+01
 Coeff:     -0.973D-01 0.110D+01
 Gap=     0.066 Goal=   None    Shift=    0.000
 RMSDP=1.46D-03 MaxDP=3.00D-01 DE=-4.32D-01 OVMax= 1.33D-01

 Cycle   3  Pass 1  IDiag  1:
 RMSU=  1.27D-03    CP:  9.61D-01  6.23D-01
 E= -1420.45558474684     Delta-E=       -0.397507093518 Rises=F Damp=F
 DIIS: error= 4.68D-03 at cycle   3 NSaved=   3.
 NSaved= 3 IEnMin= 3 EnMin= -1420.45558474684     IErMin= 2 ErrMin= 4.56D-03
 ErrMax= 4.68D-03  0.00D+00 EMaxC= 1.00D-01 BMatC= 4.34D-02 BMatP= 9.47D-02
 IDIUse=3 WtCom= 9.53D-01 WtEn= 4.68D-02
 Coeff-Com: -0.113D+00 0.468D+00 0.645D+00
 Coeff-En:   0.000D+00 0.000D+00 0.100D+01
 Coeff:     -0.108D+00 0.446D+00 0.662D+00
 Gap=     0.104 Goal=   None    Shift=    0.000
 RMSDP=4.79D-04 MaxDP=9.40D-02 DE=-3.98D-01 OVMax= 6.19D-02

 Cycle   4  Pass 1  IDiag  1:
 RMSU=  2.78D-04    CP:  9.75D-01  8.22D-01  8.74D-01
 E= -1420.48208868151     Delta-E=       -0.026503934678 Rises=F Damp=F
 DIIS: error= 1.57D-03 at cycle   4 NSaved=   4.
 NSaved= 4 IEnMin= 4 EnMin= -1420.48208868151     IErMin= 4 ErrMin= 1.57D-03
 ErrMax= 1.57D-03  0.00D+00 EMaxC= 1.00D-01 BMatC= 5.72D-03 BMatP= 4.34D-02
 IDIUse=3 WtCom= 9.84D-01 WtEn= 1.57D-02
 Coeff-Com: -0.376D-01 0.961D-01 0.312D+00 0.629D+00
 Coeff-En:   0.000D+00 0.000D+00 0.458D-01 0.954D+00
 Coeff:     -0.370D-01 0.946D-01 0.308D+00 0.635D+00
 Gap=     0.099 Goal=   None    Shift=    0.000
 RMSDP=1.51D-04 MaxDP=3.12D-02 DE=-2.65D-02 OVMax= 1.07D-02

 Cycle   5  Pass 1  IDiag  1:
 RMSU=  1.01D-04    CP:  9.71D-01  7.79D-01  9.33D-01  9.06D-01
 E= -1420.48619571798     Delta-E=       -0.004107036470 Rises=F Damp=F
 DIIS: error= 1.79D-04 at cycle   5 NSaved=   5.
 NSaved= 5 IEnMin= 5 EnMin= -1420.48619571798     IErMin= 5 ErrMin= 1.79D-04
 ErrMax= 1.79D-04  0.00D+00 EMaxC= 1.00D-01 BMatC= 1.37D-04 BMatP= 5.72D-03
 IDIUse=3 WtCom= 9.98D-01 WtEn= 1.79D-03
 Coeff-Com: -0.813D-02 0.143D-01 0.814D-01 0.225D+00 0.687D+00
 Coeff-En:   0.000D+00 0.000D+00 0.000D+00 0.000D+00 0.100D+01
 Coeff:     -0.811D-02 0.142D-01 0.813D-01 0.225D+00 0.688D+00
 Gap=     0.099 Goal=   None    Shift=    0.000
 RMSDP=3.68D-05 MaxDP=6.71D-03 DE=-4.11D-03 OVMax= 2.51D-03

 Cycle   6  Pass 1  IDiag  1:
 RMSU=  2.62D-05    CP:  9.72D-01  7.87D-01  9.37D-01  9.30D-01  1.20D+00
 E= -1420.48632055317     Delta-E=       -0.000124835189 Rises=F Damp=F
 DIIS: error= 7.08D-05 at cycle   6 NSaved=   6.
 NSaved= 6 IEnMin= 6 EnMin= -1420.48632055317     IErMin= 6 ErrMin= 7.08D-05
 ErrMax= 7.08D-05  0.00D+00 EMaxC= 1.00D-01 BMatC= 1.21D-05 BMatP= 1.37D-04
 IDIUse=1 WtCom= 1.00D+00 WtEn= 0.00D+00
 Coeff-Com:  0.497D-03-0.273D-02 0.303D-02 0.213D-01 0.235D+00 0.743D+00
 Coeff:      0.497D-03-0.273D-02 0.303D-02 0.213D-01 0.235D+00 0.743D+00
 Gap=     0.099 Goal=   None    Shift=    0.000
 RMSDP=1.65D-05 MaxDP=2.73D-03 DE=-1.25D-04 OVMax= 1.03D-03

 Cycle   7  Pass 1  IDiag  1:
 RMSU=  7.71D-06    CP:  9.72D-01  7.86D-01  9.41D-01  9.58D-01  1.30D+00
                    CP:  1.15D+00
 E= -1420.48633273675     Delta-E=       -0.000012183580 Rises=F Damp=F
 DIIS: error= 2.86D-05 at cycle   7 NSaved=   7.
 NSaved= 7 IEnMin= 7 EnMin= -1420.48633273675     IErMin= 7 ErrMin= 2.86D-05
 ErrMax= 2.86D-05  0.00D+00 EMaxC= 1.00D-01 BMatC= 2.20D-06 BMatP= 1.21D-05
 IDIUse=1 WtCom= 1.00D+00 WtEn= 0.00D+00
 Coeff-Com:  0.133D-02-0.318D-02-0.866D-02-0.207D-01 0.162D-01 0.313D+00
 Coeff-Com:  0.702D+00
 Coeff:      0.133D-02-0.318D-02-0.866D-02-0.207D-01 0.162D-01 0.313D+00
 Coeff:      0.702D+00
 Gap=     0.100 Goal=   None    Shift=    0.000
 RMSDP=5.79D-06 MaxDP=9.38D-04 DE=-1.22D-05 OVMax= 5.21D-04

 Cycle   8  Pass 1  IDiag  1:
 RMSU=  2.60D-06    CP:  9.72D-01  7.86D-01  9.42D-01  9.66D-01  1.34D+00
                    CP:  1.24D+00  1.09D+00
 E= -1420.48633469277     Delta-E=       -0.000001956012 Rises=F Damp=F
 DIIS: error= 1.66D-05 at cycle   8 NSaved=   8.
 NSaved= 8 IEnMin= 8 EnMin= -1420.48633469277     IErMin= 8 ErrMin= 1.66D-05
 ErrMax= 1.66D-05  0.00D+00 EMaxC= 1.00D-01 BMatC= 6.05D-07 BMatP= 2.20D-06
 IDIUse=1 WtCom= 1.00D+00 WtEn= 0.00D+00
 Coeff-Com:  0.689D-03-0.144D-02-0.511D-02-0.148D-01-0.244D-01 0.616D-01
 Coeff-Com:  0.394D+00 0.590D+00
 Coeff:      0.689D-03-0.144D-02-0.511D-02-0.148D-01-0.244D-01 0.616D-01
 Coeff:      0.394D+00 0.590D+00
 Gap=     0.100 Goal=   None    Shift=    0.000
 RMSDP=2.24D-06 MaxDP=2.72D-04 DE=-1.96D-06 OVMax= 2.32D-04

 Cycle   9  Pass 1  IDiag  1:
 RMSU=  1.04D-06    CP:  9.72D-01  7.86D-01  9.43D-01  9.67D-01  1.35D+00
                    CP:  1.27D+00  1.15D+00  8.69D-01
 E= -1420.48633519795     Delta-E=       -0.000000505183 Rises=F Damp=F
 DIIS: error= 5.78D-06 at cycle   9 NSaved=   9.
 NSaved= 9 IEnMin= 9 EnMin= -1420.48633519795     IErMin= 9 ErrMin= 5.78D-06
 ErrMax= 5.78D-06  0.00D+00 EMaxC= 1.00D-01 BMatC= 8.07D-08 BMatP= 6.05D-07
 IDIUse=1 WtCom= 1.00D+00 WtEn= 0.00D+00
 Coeff-Com:  0.183D-03-0.341D-03-0.140D-02-0.482D-02-0.132D-01-0.808D-02
 Coeff-Com:  0.106D+00 0.312D+00 0.610D+00
 Coeff:      0.183D-03-0.341D-03-0.140D-02-0.482D-02-0.132D-01-0.808D-02
 Coeff:      0.106D+00 0.312D+00 0.610D+00
 Gap=     0.100 Goal=   None    Shift=    0.000
 RMSDP=5.43D-07 MaxDP=5.37D-05 DE=-5.05D-07 OVMax= 8.37D-05

 Cycle  10  Pass 1  IDiag  1:
 RMSU=  4.05D-07    CP:  9.72D-01  7.86D-01  9.43D-01  9.67D-01  1.35D+00
                    CP:  1.27D+00  1.16D+00  9.65D-01  1.07D+00
 E= -1420.48633527040     Delta-E=       -0.000000072447 Rises=F Damp=F
 DIIS: error= 2.17D-06 at cycle  10 NSaved=  10.
 NSaved=10 IEnMin=10 EnMin= -1420.48633527040     IErMin=10 ErrMin= 2.17D-06
 ErrMax= 2.17D-06  0.00D+00 EMaxC= 1.00D-01 BMatC= 9.50D-09 BMatP= 8.07D-08
 IDIUse=1 WtCom= 1.00D+00 WtEn= 0.00D+00
 Coeff-Com: -0.619D-04 0.148D-03 0.468D-03 0.905D-03-0.582D-03-0.170D-01
 Coeff-Com: -0.395D-01 0.143D-01 0.264D+00 0.777D+00
 Coeff:     -0.619D-04 0.148D-03 0.468D-03 0.905D-03-0.582D-03-0.170D-01
 Coeff:     -0.395D-01 0.143D-01 0.264D+00 0.777D+00
 Gap=     0.100 Goal=   None    Shift=    0.000
 RMSDP=4.00D-07 MaxDP=3.93D-05 DE=-7.24D-08 OVMax= 5.20D-05

 Cycle  11  Pass 1  IDiag  1:
 RMSU=  1.94D-07    CP:  9.72D-01  7.86D-01  9.43D-01  9.67D-01  1.35D+00
                    CP:  1.27D+00  1.17D+00  1.01D+00  1.26D+00  1.15D+00
 E= -1420.48633528296     Delta-E=       -0.000000012566 Rises=F Damp=F
 DIIS: error= 5.70D-07 at cycle  11 NSaved=  11.
 NSaved=11 IEnMin=11 EnMin= -1420.48633528296     IErMin=11 ErrMin= 5.70D-07
 ErrMax= 5.70D-07  0.00D+00 EMaxC= 1.00D-01 BMatC= 1.49D-09 BMatP= 9.50D-09
 IDIUse=1 WtCom= 1.00D+00 WtEn= 0.00D+00
 Coeff-Com: -0.482D-04 0.105D-03 0.402D-03 0.103D-02 0.151D-02-0.720D-02
 Coeff-Com: -0.312D-01-0.262D-01 0.588D-01 0.368D+00 0.635D+00
 Coeff:     -0.482D-04 0.105D-03 0.402D-03 0.103D-02 0.151D-02-0.720D-02
 Coeff:     -0.312D-01-0.262D-01 0.588D-01 0.368D+00 0.635D+00
 Gap=     0.100 Goal=   None    Shift=    0.000
 RMSDP=1.04D-07 MaxDP=1.31D-05 DE=-1.26D-08 OVMax= 1.95D-05

 Cycle  12  Pass 1  IDiag  1:
 RMSU=  5.12D-08    CP:  9.72D-01  7.86D-01  9.43D-01  9.67D-01  1.35D+00
                    CP:  1.27D+00  1.17D+00  1.02D+00  1.29D+00  1.27D+00
                    CP:  1.10D+00
 E= -1420.48633528493     Delta-E=       -0.000000001965 Rises=F Damp=F
 DIIS: error= 2.47D-07 at cycle  12 NSaved=  12.
 NSaved=12 IEnMin=12 EnMin= -1420.48633528493     IErMin=12 ErrMin= 2.47D-07
 ErrMax= 2.47D-07  0.00D+00 EMaxC= 1.00D-01 BMatC= 1.74D-10 BMatP= 1.49D-09
 IDIUse=1 WtCom= 1.00D+00 WtEn= 0.00D+00
 Coeff-Com: -0.367D-05 0.671D-05 0.597D-04 0.187D-03 0.599D-03 0.281D-03
 Coeff-Com: -0.420D-02-0.116D-01-0.305D-01-0.192D-01 0.224D+00 0.840D+00
 Coeff:     -0.367D-05 0.671D-05 0.597D-04 0.187D-03 0.599D-03 0.281D-03
 Coeff:     -0.420D-02-0.116D-01-0.305D-01-0.192D-01 0.224D+00 0.840D+00
 Gap=     0.100 Goal=   None    Shift=    0.000
 RMSDP=7.47D-08 MaxDP=8.71D-06 DE=-1.96D-09 OVMax= 1.05D-05

 Cycle  13  Pass 1  IDiag  1:
 RMSU=  2.81D-08    CP:  9.72D-01  7.86D-01  9.43D-01  9.67D-01  1.35D+00
                    CP:  1.27D+00  1.17D+00  1.03D+00  1.32D+00  1.33D+00
                    CP:  1.26D+00  1.21D+00
 E= -1420.48633528525     Delta-E=       -0.000000000329 Rises=F Damp=F
 DIIS: error= 9.97D-08 at cycle  13 NSaved=  13.
 NSaved=13 IEnMin=13 EnMin= -1420.48633528525     IErMin=13 ErrMin= 9.97D-08
 ErrMax= 9.97D-08  0.00D+00 EMaxC= 1.00D-01 BMatC= 2.74D-11 BMatP= 1.74D-10
 IDIUse=1 WtCom= 1.00D+00 WtEn= 0.00D+00
 Coeff-Com:  0.392D-05-0.873D-05-0.131D-04-0.267D-04 0.108D-03 0.846D-03
 Coeff-Com:  0.141D-02-0.192D-02-0.196D-01-0.452D-01 0.277D-01 0.344D+00
 Coeff-Com:  0.693D+00
 Coeff:      0.392D-05-0.873D-05-0.131D-04-0.267D-04 0.108D-03 0.846D-03
 Coeff:      0.141D-02-0.192D-02-0.196D-01-0.452D-01 0.277D-01 0.344D+00
 Coeff:      0.693D+00
 Gap=     0.100 Goal=   None    Shift=    0.000
 RMSDP=2.28D-08 MaxDP=3.07D-06 DE=-3.29D-10 OVMax= 4.02D-06

 Cycle  14  Pass 1  IDiag  1:
 RMSU=  9.99D-09    CP:  9.72D-01  7.86D-01  9.43D-01  9.67D-01  1.35D+00
                    CP:  1.27D+00  1.17D+00  1.03D+00  1.32D+00  1.34D+00
                    CP:  1.30D+00  1.37D+00  1.22D+00
 E= -1420.48633528529     Delta-E=       -0.000000000032 Rises=F Damp=F
 DIIS: error= 5.37D-08 at cycle  14 NSaved=  14.
 NSaved=14 IEnMin=14 EnMin= -1420.48633528529     IErMin=14 ErrMin= 5.37D-08
 ErrMax= 5.37D-08  0.00D+00 EMaxC= 1.00D-01 BMatC= 5.56D-12 BMatP= 2.74D-11
 IDIUse=1 WtCom= 1.00D+00 WtEn= 0.00D+00
 Coeff-Com:  0.234D-05-0.498D-05-0.151D-04-0.451D-04-0.700D-04 0.299D-03
 Coeff-Com:  0.134D-02 0.145D-02-0.303D-02-0.147D-01-0.367D-01-0.362D-01
 Coeff-Com:  0.283D+00 0.805D+00
 Coeff:      0.234D-05-0.498D-05-0.151D-04-0.451D-04-0.700D-04 0.299D-03
 Coeff:      0.134D-02 0.145D-02-0.303D-02-0.147D-01-0.367D-01-0.362D-01
 Coeff:      0.283D+00 0.805D+00
 Gap=     0.100 Goal=   None    Shift=    0.000
 RMSDP=1.65D-08 MaxDP=2.23D-06 DE=-3.18D-11 OVMax= 3.34D-06

 Cycle  15  Pass 1  IDiag  1:
 RMSU=  7.10D-09    CP:  9.72D-01  7.86D-01  9.43D-01  9.67D-01  1.35D+00
                    CP:  1.27D+00  1.17D+00  1.03D+00  1.32D+00  1.35D+00
                    CP:  1.32D+00  1.46D+00  1.48D+00  1.59D+00
 E= -1420.48633528530     Delta-E=       -0.000000000015 Rises=F Damp=F
 DIIS: error= 2.80D-08 at cycle  15 NSaved=  15.
 NSaved=15 IEnMin=15 EnMin= -1420.48633528530     IErMin=15 ErrMin= 2.80D-08
 ErrMax= 2.80D-08  0.00D+00 EMaxC= 1.00D-01 BMatC= 9.85D-13 BMatP= 5.56D-12
 IDIUse=1 WtCom= 1.00D+00 WtEn= 0.00D+00
 Coeff-Com: -0.169D-06 0.350D-06-0.111D-05-0.511D-05-0.325D-04-0.634D-04
 Coeff-Com:  0.556D-04 0.746D-03 0.246D-02 0.594D-02-0.141D-01-0.665D-01
 Coeff-Com: -0.616D-01 0.220D+00 0.913D+00
 Coeff:     -0.169D-06 0.350D-06-0.111D-05-0.511D-05-0.325D-04-0.634D-04
 Coeff:      0.556D-04 0.746D-03 0.246D-02 0.594D-02-0.141D-01-0.665D-01
 Coeff:     -0.616D-01 0.220D+00 0.913D+00
 Gap=     0.100 Goal=   None    Shift=    0.000
 RMSDP=1.28D-08 MaxDP=1.06D-06 DE=-1.55D-11 OVMax= 2.16D-06

 Cycle  16  Pass 1  IDiag  1:
 RMSU=  6.59D-09    CP:  9.72D-01  7.86D-01  9.43D-01  9.67D-01  1.35D+00
                    CP:  1.27D+00  1.17D+00  1.03D+00  1.32D+00  1.36D+00
                    CP:  1.32D+00  1.50D+00  1.61D+00  2.19D+00  1.97D+00
 E= -1420.48633528524     Delta-E=        0.000000000065 Rises=F Damp=F
 DIIS: error= 1.47D-08 at cycle  16 NSaved=  16.
 NSaved=16 IEnMin=15 EnMin= -1420.48633528530     IErMin=16 ErrMin= 1.47D-08
 ErrMax= 1.47D-08  0.00D+00 EMaxC= 1.00D-01 BMatC= 3.20D-13 BMatP= 9.85D-13
 IDIUse=1 WtCom= 1.00D+00 WtEn= 0.00D+00
 Coeff-Com: -0.682D-06 0.145D-05 0.283D-05 0.848D-05-0.258D-06-0.101D-03
 Coeff-Com: -0.302D-03 0.349D-04 0.177D-02 0.657D-02 0.218D-02-0.206D-01
 Coeff-Com: -0.108D+00-0.116D+00 0.388D+00 0.846D+00
 Coeff:     -0.682D-06 0.145D-05 0.283D-05 0.848D-05-0.258D-06-0.101D-03
 Coeff:     -0.302D-03 0.349D-04 0.177D-02 0.657D-02 0.218D-02-0.206D-01
 Coeff:     -0.108D+00-0.116D+00 0.388D+00 0.846D+00
 Gap=     0.100 Goal=   None    Shift=    0.000
 RMSDP=1.41D-08 MaxDP=9.36D-07 DE= 6.46D-11 OVMax= 1.42D-06

 Cycle  17  Pass 1  IDiag  1:
 RMSU=  5.85D-09    CP:  9.72D-01  7.86D-01  9.43D-01  9.67D-01  1.35D+00
                    CP:  1.27D+00  1.17D+00  1.03D+00  1.32D+00  1.36D+00
                    CP:  1.32D+00  1.53D+00  1.71D+00  2.65D+00  3.00D+00
                    CP:  2.26D+00
 E= -1420.48633528523     Delta-E=        0.000000000012 Rises=F Damp=F
 DIIS: error= 1.16D-08 at cycle  17 NSaved=  17.
 NSaved=17 IEnMin=15 EnMin= -1420.48633528530     IErMin=17 ErrMin= 1.16D-08
 ErrMax= 1.16D-08  0.00D+00 EMaxC= 1.00D-01 BMatC= 8.78D-14 BMatP= 3.20D-13
 IDIUse=1 WtCom= 1.00D+00 WtEn= 0.00D+00
 Coeff-Com: -0.170D-06 0.371D-06 0.668D-06 0.264D-05 0.243D-05-0.209D-04
 Coeff-Com: -0.957D-04-0.640D-04 0.994D-04 0.103D-02 0.235D-02 0.395D-02
 Coeff-Com: -0.218D-01-0.643D-01-0.307D-01 0.267D+00 0.842D+00
 Coeff:     -0.170D-06 0.371D-06 0.668D-06 0.264D-05 0.243D-05-0.209D-04
 Coeff:     -0.957D-04-0.640D-04 0.994D-04 0.103D-02 0.235D-02 0.395D-02
 Coeff:     -0.218D-01-0.643D-01-0.307D-01 0.267D+00 0.842D+00
 Gap=     0.100 Goal=   None    Shift=    0.000
 RMSDP=1.60D-08 MaxDP=7.76D-07 DE= 1.18D-11 OVMax= 5.45D-07

 Cycle  18  Pass 1  IDiag  1:
 RMSU=  9.18D-09    CP:  9.72D-01  7.86D-01  9.43D-01  9.67D-01  1.35D+00
                    CP:  1.27D+00  1.17D+00  1.03D+00  1.32D+00  1.36D+00
                    CP:  1.33D+00  1.53D+00  1.75D+00  2.94D+00  3.00D+00
                    CP:  3.00D+00  2.64D+00
 E= -1420.48633528516     Delta-E=        0.000000000068 Rises=F Damp=F
 DIIS: error= 9.07D-09 at cycle  18 NSaved=  18.
 NSaved=18 IEnMin=15 EnMin= -1420.48633528530     IErMin=18 ErrMin= 9.07D-09
 ErrMax= 9.07D-09  0.00D+00 EMaxC= 1.00D-01 BMatC= 6.04D-14 BMatP= 8.78D-14
 IDIUse=1 WtCom= 1.00D+00 WtEn= 0.00D+00
 Coeff-Com: -0.749D-07 0.165D-06 0.257D-06 0.107D-05 0.766D-06-0.886D-05
 Coeff-Com: -0.416D-04-0.956D-05 0.582D-04 0.502D-03 0.955D-03 0.154D-02
 Coeff-Com: -0.922D-02-0.281D-01-0.152D-01 0.114D+00 0.318D+00 0.617D+00
 Coeff:     -0.749D-07 0.165D-06 0.257D-06 0.107D-05 0.766D-06-0.886D-05
 Coeff:     -0.416D-04-0.956D-05 0.582D-04 0.502D-03 0.955D-03 0.154D-02
 Coeff:     -0.922D-02-0.281D-01-0.152D-01 0.114D+00 0.318D+00 0.617D+00
 Gap=     0.100 Goal=   None    Shift=    0.000
 RMSDP=1.13D-08 MaxDP=6.02D-07 DE= 6.82D-11 OVMax= 1.28D-07

 Cycle  19  Pass 1  IDiag  1:
 RMSU=  6.56D-09    CP:  9.72D-01  7.86D-01  9.43D-01  9.67D-01  1.35D+00
                    CP:  1.27D+00  1.17D+00  1.03D+00  1.32D+00  1.36D+00
                    CP:  1.33D+00  1.54D+00  1.77D+00  3.00D+00  3.00D+00
                    CP:  3.00D+00  3.00D+00  1.84D+00
 E= -1420.48633528512     Delta-E=        0.000000000033 Rises=F Damp=F
 DIIS: error= 8.79D-09 at cycle  19 NSaved=  19.
 NSaved=19 IEnMin=15 EnMin= -1420.48633528530     IErMin=19 ErrMin= 8.79D-09
 ErrMax= 8.79D-09  0.00D+00 EMaxC= 1.00D-01 BMatC= 5.34D-14 BMatP= 6.04D-14
 IDIUse=1 WtCom= 1.00D+00 WtEn= 0.00D+00
 Coeff-Com: -0.104D-06 0.223D-06 0.385D-06 0.131D-05 0.206D-06-0.141D-04
 Coeff-Com: -0.499D-04 0.390D-05 0.207D-03 0.899D-03 0.555D-03-0.179D-02
 Coeff-Com: -0.151D-01-0.242D-01 0.356D-01 0.133D+00 0.607D-01 0.848D-01
 Coeff-Com:  0.725D+00
 Coeff:     -0.104D-06 0.223D-06 0.385D-06 0.131D-05 0.206D-06-0.141D-04
 Coeff:     -0.499D-04 0.390D-05 0.207D-03 0.899D-03 0.555D-03-0.179D-02
 Coeff:     -0.151D-01-0.242D-01 0.356D-01 0.133D+00 0.607D-01 0.848D-01
 Coeff:      0.725D+00
 Gap=     0.100 Goal=   None    Shift=    0.000
 RMSDP=9.94D-09 MaxDP=4.93D-07 DE= 3.27D-11 OVMax= 4.57D-08

 Error on total polarization charges =  0.07724
 SCF Done:  E(RM062X) =  -1420.48633529     A.U. after   19 cycles
            NFock= 19  Conv=0.99D-08     -V/T= 2.0052
 KE= 1.413152424868D+03 PE=-9.947289046926D+03 EE= 3.779990664932D+03
 SMD-CDS (non-electrostatic) energy       (kcal/mol) =      -0.73
 (included in total energy above)
 Leave Link  502 at Thu Mar 31 17:16:27 2022, MaxMem=  5242880000 cpu:     32726.6
 (Enter /opt/nce/packages/global/g09/l601.exe)
 Copying SCF densities to generalized density rwf, IOpCl= 0 IROHF=0.

 **********************************************************************

            Population analysis using the SCF density.

 **********************************************************************

 Alpha  occ. eigenvalues --  -19.71526 -19.63853 -19.63777 -14.79187 -14.79088
 Alpha  occ. eigenvalues --  -10.67642 -10.63953 -10.63915 -10.61742 -10.61668
 Alpha  occ. eigenvalues --  -10.60914 -10.57908 -10.57825 -10.57152 -10.57134
 Alpha  occ. eigenvalues --  -10.57133 -10.57114 -10.56938 -10.56911 -10.56550
 Alpha  occ. eigenvalues --  -10.56528 -10.55829 -10.55777 -10.55499 -10.55297
 Alpha  occ. eigenvalues --  -10.55286 -10.55283 -10.54753 -10.54747 -10.52401
 Alpha  occ. eigenvalues --  -10.52398 -10.52395 -10.52383  -1.26164  -1.20990
 Alpha  occ. eigenvalues --   -1.11049  -1.08899  -1.08820  -1.00651  -0.98678
 Alpha  occ. eigenvalues --   -0.97605  -0.92849  -0.89839  -0.87911  -0.87771
 Alpha  occ. eigenvalues --   -0.87362  -0.87065  -0.86671  -0.84963  -0.83556
 Alpha  occ. eigenvalues --   -0.81456  -0.77198  -0.76211  -0.74808  -0.73497
 Alpha  occ. eigenvalues --   -0.73184  -0.72405  -0.71541  -0.69856  -0.68713
 Alpha  occ. eigenvalues --   -0.68379  -0.64516  -0.63087  -0.63020  -0.61659
 Alpha  occ. eigenvalues --   -0.59692  -0.59462  -0.58707  -0.58093  -0.57595
 Alpha  occ. eigenvalues --   -0.56850  -0.56125  -0.55689  -0.55256  -0.54145
 Alpha  occ. eigenvalues --   -0.53228  -0.53071  -0.52627  -0.52556  -0.51724
 Alpha  occ. eigenvalues --   -0.51540  -0.50753  -0.50392  -0.50285  -0.49955
 Alpha  occ. eigenvalues --   -0.49759  -0.49224  -0.49020  -0.46970  -0.46637
 Alpha  occ. eigenvalues --   -0.45806  -0.45677  -0.45530  -0.45086  -0.44924
 Alpha  occ. eigenvalues --   -0.44344  -0.44069  -0.43853  -0.43608  -0.43196
 Alpha  occ. eigenvalues --   -0.42361  -0.41964  -0.41318  -0.41221  -0.40840
 Alpha  occ. eigenvalues --   -0.40572  -0.39925  -0.39588  -0.37869  -0.37736
 Alpha  occ. eigenvalues --   -0.37014  -0.36694  -0.34281  -0.32770  -0.32388
 Alpha  occ. eigenvalues --   -0.30979  -0.28610  -0.24652
 Alpha virt. eigenvalues --   -0.14695  -0.07916  -0.01935  -0.00191   0.00821
 Alpha virt. eigenvalues --    0.02074   0.02567   0.06703   0.07011   0.07385
 Alpha virt. eigenvalues --    0.08210   0.08330   0.08644   0.09322   0.09526
 Alpha virt. eigenvalues --    0.09797   0.10382   0.10512   0.10806   0.11346
 Alpha virt. eigenvalues --    0.11424   0.11627   0.12603   0.13041   0.13240
 Alpha virt. eigenvalues --    0.13356   0.13701   0.13769   0.14286   0.14602
 Alpha virt. eigenvalues --    0.14988   0.15159   0.15697   0.16176   0.16519
 Alpha virt. eigenvalues --    0.16758   0.16836   0.17133   0.17387   0.17509
 Alpha virt. eigenvalues --    0.17666   0.17764   0.18095   0.18426   0.18664
 Alpha virt. eigenvalues --    0.18904   0.19579   0.19722   0.20145   0.20389
 Alpha virt. eigenvalues --    0.20494   0.21327   0.21465   0.21871   0.22617
 Alpha virt. eigenvalues --    0.22926   0.23011   0.23250   0.23430   0.23492
 Alpha virt. eigenvalues --    0.24057   0.24139   0.24546   0.24940   0.25530
 Alpha virt. eigenvalues --    0.25620   0.26174   0.26303   0.26811   0.27155
 Alpha virt. eigenvalues --    0.27435   0.27765   0.27961   0.28116   0.28383
 Alpha virt. eigenvalues --    0.28473   0.28818   0.29114   0.29314   0.29349
 Alpha virt. eigenvalues --    0.29599   0.30185   0.30462   0.31379   0.31668
 Alpha virt. eigenvalues --    0.31982   0.32234   0.32311   0.32542   0.32761
 Alpha virt. eigenvalues --    0.32939   0.33275   0.33584   0.34249   0.34537
 Alpha virt. eigenvalues --    0.34975   0.35219   0.35760   0.36079   0.36227
 Alpha virt. eigenvalues --    0.36607   0.36713   0.37422   0.37843   0.38100
 Alpha virt. eigenvalues --    0.38391   0.38829   0.39147   0.39420   0.39660
 Alpha virt. eigenvalues --    0.40322   0.40511   0.40679   0.40994   0.41343
 Alpha virt. eigenvalues --    0.41592   0.41832   0.42105   0.42264   0.42697
 Alpha virt. eigenvalues --    0.42856   0.43264   0.43802   0.43922   0.44261
 Alpha virt. eigenvalues --    0.44529   0.45042   0.45192   0.45405   0.45548
 Alpha virt. eigenvalues --    0.45913   0.46001   0.46088   0.46304   0.46757
 Alpha virt. eigenvalues --    0.46861   0.46994   0.47358   0.47579   0.47759
 Alpha virt. eigenvalues --    0.48049   0.48291   0.48451   0.48623   0.48872
 Alpha virt. eigenvalues --    0.49024   0.49361   0.49622   0.49773   0.49937
 Alpha virt. eigenvalues --    0.49978   0.50399   0.50479   0.50659   0.51091
 Alpha virt. eigenvalues --    0.51532   0.51578   0.51934   0.52238   0.52513
 Alpha virt. eigenvalues --    0.52894   0.53456   0.53840   0.54000   0.54241
 Alpha virt. eigenvalues --    0.54378   0.54770   0.55310   0.55411   0.55598
 Alpha virt. eigenvalues --    0.56456   0.56763   0.57247   0.57699   0.58181
 Alpha virt. eigenvalues --    0.58510   0.58796   0.59707   0.59754   0.60916
 Alpha virt. eigenvalues --    0.61192   0.61846   0.62021   0.62115   0.62522
 Alpha virt. eigenvalues --    0.63046   0.63116   0.63303   0.63714   0.64186
 Alpha virt. eigenvalues --    0.64484   0.64792   0.64865   0.64958   0.65539
 Alpha virt. eigenvalues --    0.65865   0.66395   0.67006   0.67644   0.68011
 Alpha virt. eigenvalues --    0.68221   0.68724   0.68943   0.69335   0.69606
 Alpha virt. eigenvalues --    0.70191   0.70523   0.70790   0.71511   0.71850
 Alpha virt. eigenvalues --    0.72253   0.72426   0.72987   0.73448   0.73723
 Alpha virt. eigenvalues --    0.73907   0.74193   0.74667   0.74982   0.75245
 Alpha virt. eigenvalues --    0.75414   0.75893   0.76158   0.76691   0.76939
 Alpha virt. eigenvalues --    0.77723   0.77841   0.78360   0.79201   0.79475
[...]
 Alpha virt. eigenvalues --    1.18616   1.18767   1.19302   1.19752   1.20057
 Alpha virt. eigenvalues --    1.20872   1.21287   1.21872   1.22812   1.23599
 Alpha virt. eigenvalues --    1.23711   1.24278   1.24541   1.24866   1.25260
 Alpha virt. eigenvalues --    1.25646   1.26183   1.26884   1.27482   1.28456
 Alpha virt. eigenvalues --    1.28677   1.29082   1.29242   1.29523   1.30026
 Alpha virt. eigenvalues --    1.31129   1.31633   1.32109   1.32662   1.33170
 Alpha virt. eigenvalues --    1.33750   1.34022   1.34377   1.35740   1.35883
 Alpha virt. eigenvalues --    1.36276   1.36977   1.38013   1.38388   1.39636
 Alpha virt. eigenvalues --    1.39931   1.41082   1.41441   1.42252   1.42833
 Alpha virt. eigenvalues --    1.43665   1.45025   1.45806   1.46236   1.46419
 Alpha virt. eigenvalues --    1.46996   1.47569   1.48708   1.48999   1.49480
 Alpha virt. eigenvalues --    1.49842   1.51314   1.51771   1.52680   1.53457
 Alpha virt. eigenvalues --    1.53661   1.54294   1.54678   1.54830   1.55110
 Alpha virt. eigenvalues --    1.55554   1.55910   1.56302   1.56994   1.57228
 Alpha virt. eigenvalues --    1.57310   1.57469   1.57830   1.58262   1.58342
 Alpha virt. eigenvalues --    1.58754   1.59049   1.59171   1.59294   1.59542
 Alpha virt. eigenvalues --    1.59797   1.60125   1.60722   1.60895   1.61679
 Alpha virt. eigenvalues --    1.61767   1.62008   1.62162   1.62221   1.62690
 Alpha virt. eigenvalues --    1.63132   1.63601   1.63966   1.64410   1.65505
 Alpha virt. eigenvalues --    1.65707   1.65834   1.65949   1.66348   1.66605
 Alpha virt. eigenvalues --    1.66982   1.67346   1.67366   1.68799   1.69051
 Alpha virt. eigenvalues --    1.70212   1.70497   1.70802   1.70897   1.71329
 Alpha virt. eigenvalues --    1.72557   1.73294   1.73950   1.74220   1.74250
 Alpha virt. eigenvalues --    1.74590   1.74852   1.75468   1.75963   1.76413
 Alpha virt. eigenvalues --    1.77450   1.77879   1.78595   1.79331   1.79543
 Alpha virt. eigenvalues --    1.80218   1.80323   1.80875   1.81427   1.81586
 Alpha virt. eigenvalues --    1.81891   1.82738   1.82891   1.83232   1.84271
 Alpha virt. eigenvalues --    1.84794   1.85012   1.85757   1.86046   1.86544
 Alpha virt. eigenvalues --    1.86998   1.87675   1.88289   1.89104   1.89886
 Alpha virt. eigenvalues --    1.89946   1.90452   1.90672   1.91194   1.91514
 Alpha virt. eigenvalues --    1.91965   1.92953   1.93272   1.93898   1.94362
 Alpha virt. eigenvalues --    1.94537   1.95809   1.95997   1.96547   1.96929
 Alpha virt. eigenvalues --    1.97105   1.97660   1.98100   1.99852   2.00100
 Alpha virt. eigenvalues --    2.01069   2.01197   2.02117   2.03097   2.03872
 Alpha virt. eigenvalues --    2.04426   2.04929   2.05089   2.05541   2.06158
 Alpha virt. eigenvalues --    2.06320   2.06936   2.07009   2.07382   2.08261
 Alpha virt. eigenvalues --    2.08884   2.09168   2.10457   2.10841   2.11158
 Alpha virt. eigenvalues --    2.11430   2.11950   2.12346   2.12872   2.14874
 Alpha virt. eigenvalues --    2.16292   2.18190   2.18355   2.19364   2.19566
 Alpha virt. eigenvalues --    2.20155   2.20671   2.20814   2.21161   2.21258
 Alpha virt. eigenvalues --    2.21470   2.22051   2.22250   2.22888   2.23548
 Alpha virt. eigenvalues --    2.24305   2.24977   2.25491   2.26531   2.26821
 Alpha virt. eigenvalues --    2.27733   2.28192   2.29570   2.30771   2.31312
 Alpha virt. eigenvalues --    2.31756   2.31849   2.32858   2.33350   2.34247
 Alpha virt. eigenvalues --    2.34351   2.35039   2.35209   2.35448   2.35793
 Alpha virt. eigenvalues --    2.36328   2.36709   2.36964   2.37359   2.37547
 Alpha virt. eigenvalues --    2.38052   2.38725   2.39246   2.39552   2.39707
 Alpha virt. eigenvalues --    2.40168   2.40550   2.41265   2.41587   2.41799
 Alpha virt. eigenvalues --    2.42340   2.42851   2.43334   2.44115   2.44180
 Alpha virt. eigenvalues --    2.45070   2.45255   2.46266   2.46927   2.47664
 Alpha virt. eigenvalues --    2.48858   2.49535   2.49823   2.50053   2.50905
 Alpha virt. eigenvalues --    2.51773   2.51925   2.52630   2.53031   2.53717
 Alpha virt. eigenvalues --    2.54954   2.55368   2.55532   2.56232   2.57299
 Alpha virt. eigenvalues --    2.57499   2.57590   2.58416   2.58846   2.59417
 Alpha virt. eigenvalues --    2.59877   2.60050   2.60170   2.60536   2.61098
 Alpha virt. eigenvalues --    2.61171   2.61274   2.61689   2.61940   2.62126
 Alpha virt. eigenvalues --    2.62466   2.63312   2.64167   2.64945   2.65363
 Alpha virt. eigenvalues --    2.65837   2.65955   2.66057   2.66247   2.66574
 Alpha virt. eigenvalues --    2.66748   2.67512   2.67682   2.67875   2.68119
 Alpha virt. eigenvalues --    2.68635   2.68869   2.68997   2.69225   2.69810
 Alpha virt. eigenvalues --    2.70640   2.70916   2.71717   2.72001   2.72457
 Alpha virt. eigenvalues --    2.72819   2.73059   2.73425   2.73710   2.73976
 Alpha virt. eigenvalues --    2.74513   2.75192   2.75565   2.76434   2.76642
 Alpha virt. eigenvalues --    2.77070   2.78150   2.79035   2.79468   2.79571
 Alpha virt. eigenvalues --    2.80347   2.80584   2.80933   2.80963   2.81616
 Alpha virt. eigenvalues --    2.81965   2.82155   2.83338   2.83586   2.83798
 Alpha virt. eigenvalues --    2.83969   2.84625   2.84904   2.85889   2.86201
 Alpha virt. eigenvalues --    2.86320   2.86770   2.87467   2.88049   2.88451
 Alpha virt. eigenvalues --    2.88826   2.89433   2.89509   2.90116   2.90252
 Alpha virt. eigenvalues --    2.90781   2.91423   2.92257   2.92910   2.93364
 Alpha virt. eigenvalues --    2.94045   2.94703   2.95277   2.95632   2.95778
 Alpha virt. eigenvalues --    2.96389   2.96937   2.97563   2.97940   2.98410
 Alpha virt. eigenvalues --    2.98541   2.99336   2.99954   3.01089   3.01539
 Alpha virt. eigenvalues --    3.01896   3.02267   3.03042   3.03742   3.04483
 Alpha virt. eigenvalues --    3.04763   3.04923   3.05398   3.06068   3.06234
 Alpha virt. eigenvalues --    3.07809   3.08097   3.08532   3.08896   3.08999
 Alpha virt. eigenvalues --    3.09345   3.10140   3.10534   3.11120   3.11328
 Alpha virt. eigenvalues --    3.11446   3.11927   3.12601   3.12877   3.13942
 Alpha virt. eigenvalues --    3.14668   3.14903   3.15082   3.15818   3.16162
 Alpha virt. eigenvalues --    3.16182   3.16687   3.17172   3.17766   3.18151
 Alpha virt. eigenvalues --    3.18560   3.19076   3.19312   3.19699   3.20079
 Alpha virt. eigenvalues --    3.20242   3.20643   3.20831   3.21170   3.21394
 Alpha virt. eigenvalues --    3.21911   3.22279   3.22639   3.22931   3.23747
 Alpha virt. eigenvalues --    3.24169   3.24558   3.25157   3.25455   3.25530
 Alpha virt. eigenvalues --    3.26189   3.26825   3.26990   3.27656   3.27944
 Alpha virt. eigenvalues --    3.28369   3.28894   3.29289   3.29374   3.29763
 Alpha virt. eigenvalues --    3.30076   3.30573   3.31150   3.31489   3.31748
 Alpha virt. eigenvalues --    3.32156   3.32278   3.32975   3.33180   3.33473
 Alpha virt. eigenvalues --    3.33909   3.34166   3.34653   3.35347   3.35586
 Alpha virt. eigenvalues --    3.35950   3.36019   3.36434   3.37056   3.37545
 Alpha virt. eigenvalues --    3.37693   3.38754   3.38762   3.39140   3.39327
 Alpha virt. eigenvalues --    3.39548   3.39697   3.40368   3.41054   3.41353
 Alpha virt. eigenvalues --    3.41456   3.41721   3.42278   3.42509   3.43100
 Alpha virt. eigenvalues --    3.43270   3.43478   3.43816   3.44303   3.44687
 Alpha virt. eigenvalues --    3.44948   3.45950   3.46061   3.46492   3.46604
 Alpha virt. eigenvalues --    3.47456   3.47783   3.48193   3.48430   3.48676
 Alpha virt. eigenvalues --    3.49237   3.49715   3.50226   3.50413   3.50676
 Alpha virt. eigenvalues --    3.51815   3.52208   3.52617   3.53261   3.53721
 Alpha virt. eigenvalues --    3.54033   3.54444   3.54922   3.55417   3.55899
 Alpha virt. eigenvalues --    3.56561   3.57171   3.57297   3.58452   3.59326
 Alpha virt. eigenvalues --    3.59736   3.61089   3.61560   3.61685   3.62148
 Alpha virt. eigenvalues --    3.62813   3.63254   3.63658   3.64161   3.64704
 Alpha virt. eigenvalues --    3.65140   3.65700   3.66430   3.67260   3.67634
 Alpha virt. eigenvalues --    3.69296   3.69357   3.69642   3.70715   3.70776
 Alpha virt. eigenvalues --    3.71432   3.73050   3.73909   3.74695   3.75674
 Alpha virt. eigenvalues --    3.75993   3.76616   3.77444   3.77935   3.79395
 Alpha virt. eigenvalues --    3.79685   3.79858   3.80427   3.80996   3.82591
 Alpha virt. eigenvalues --    3.83360   3.84241   3.84732   3.85380   3.86222
 Alpha virt. eigenvalues --    3.86886   3.87169   3.88300   3.88549   3.88777
 Alpha virt. eigenvalues --    3.89430   3.90071   3.90147   3.90996   3.91866
 Alpha virt. eigenvalues --    3.92864   3.93690   3.94559   3.94922   3.95724
 Alpha virt. eigenvalues --    3.95958   3.96663   3.97039   3.98093   3.98393
 Alpha virt. eigenvalues --    3.98668   4.00728   4.01062   4.02327   4.02820
 Alpha virt. eigenvalues --    4.03315   4.04720   4.05856   4.07167   4.08450
 Alpha virt. eigenvalues --    4.08981   4.09298   4.10435   4.10954   4.11593
 Alpha virt. eigenvalues --    4.12162   4.12322   4.12801   4.13311   4.15119
 Alpha virt. eigenvalues --    4.15570   4.16140   4.16311   4.16917   4.17361
 Alpha virt. eigenvalues --    4.17748   4.18538   4.19136   4.19924   4.20470
 Alpha virt. eigenvalues --    4.21156   4.21621   4.22557   4.23594   4.23896
 Alpha virt. eigenvalues --    4.24554   4.25128   4.25268   4.26651   4.28278
 Alpha virt. eigenvalues --    4.28461   4.28727   4.29004   4.29430   4.33456
 Alpha virt. eigenvalues --    4.33741   4.34355   4.34784   4.35236   4.35987
 Alpha virt. eigenvalues --    4.37143   4.37469   4.38325   4.39103   4.39929
 Alpha virt. eigenvalues --    4.41612   4.42064   4.42437   4.42958   4.43369
 Alpha virt. eigenvalues --    4.43636   4.44048   4.44208   4.46124   4.48409
 Alpha virt. eigenvalues --    4.48688   4.49731   4.50496   4.51817   4.52486
 Alpha virt. eigenvalues --    4.53249   4.54548   4.56142   4.56354   4.57835
 Alpha virt. eigenvalues --    4.58422   4.59277   4.60032   4.60600   4.62093
 Alpha virt. eigenvalues --    4.62362   4.66349   4.66666   4.68352   4.69177
 Alpha virt. eigenvalues --    4.69616   4.70399   4.72851   4.74121   4.74672
 Alpha virt. eigenvalues --    4.75071   4.75282   4.75400   4.76696   4.80708
 Alpha virt. eigenvalues --    4.81490   4.81969   4.82540   4.86271   4.88042
 Alpha virt. eigenvalues --    4.88522   4.90885   4.93034   4.95050   4.97402
 Alpha virt. eigenvalues --    4.97499   4.97723   4.99789   5.01264   5.02841
 Alpha virt. eigenvalues --    5.03442   5.06346   5.09000   5.09182   5.11390
 Alpha virt. eigenvalues --    5.11553   5.12599   5.14241   5.16100   5.16992
 Alpha virt. eigenvalues --    5.18186   5.19886   5.21411   5.21739   5.24185
 Alpha virt. eigenvalues --    5.25347   5.25704   5.27511   5.28044   5.29744
 Alpha virt. eigenvalues --    5.29948   5.33198   5.33922   5.34779   5.36372
 Alpha virt. eigenvalues --    5.36827   5.37101   5.38378   5.42440   5.45763
 Alpha virt. eigenvalues --    5.46032   5.47696   5.49263   5.51250   5.51914
 Alpha virt. eigenvalues --    5.54422   5.56730   5.60410   5.62205   5.66569
 Alpha virt. eigenvalues --    5.71643   5.72060   5.73361   5.74008   5.79489
 Alpha virt. eigenvalues --    5.79587   5.82535   5.87741   5.90167   5.90931
 Alpha virt. eigenvalues --    5.91246   5.92026   5.95022   5.95977   6.06730
 Alpha virt. eigenvalues --    6.09170   6.17447   6.22835   6.28017   6.35420
 Alpha virt. eigenvalues --    6.37994   6.50262   6.51723   6.52601   6.60168
 Alpha virt. eigenvalues --    6.70398   6.72299   6.81651   6.81957   6.83600
 Alpha virt. eigenvalues --    6.84572   6.86457   6.93968   7.08649   7.15182
 Alpha virt. eigenvalues --    7.34297   7.42856   7.44181  22.33750  22.44725
 Alpha virt. eigenvalues --   22.47183  22.48550  22.48781  22.55551  22.68617
 Alpha virt. eigenvalues --   22.68794  22.70930  22.72141  22.73024  22.73137
 Alpha virt. eigenvalues --   22.81728  22.85409  22.93546  22.94442  23.01237
 Alpha virt. eigenvalues --   23.03471  23.06589  23.09082  23.18429  23.20689
 Alpha virt. eigenvalues --   23.24727  23.36114  23.47438  23.60225  23.65097
 Alpha virt. eigenvalues --   23.91244  33.12302  33.12941  44.05921  44.08110
 Alpha virt. eigenvalues --   44.70895
          Condensed to atoms (all electrons):
 Mulliken charges:
               1
     1  C    0.286702
     2  C   -0.280286
     3  C    0.156409
     4  C    0.070449
     5  C   -0.288196
     6  C   -0.255313
     7  C    0.114830
     8  C    0.103985
     9  C    0.136210
    10  C   -0.270507
    11  H    0.215314
    12  C    0.275356
    13  C   -0.254949
    14  C   -0.310631
    15  H    0.215125
    16  H    0.221333
    17  H    0.209919
    18  H    0.211177
    19  H    0.232801
    20  O   -0.220587
    21  C   -0.097746
    22  C   -0.230942
    23  C   -0.008018
    24  C   -0.138185
    25  H    0.204969
    26  C   -0.150036
    27  C   -0.178206
    28  H    0.191312
    29  H    0.189451
    30  H    0.190189
    31  N   -0.052800
    32  C   -0.275335
    33  H    0.184708
    34  H    0.191261
    35  C   -0.425856
    36  H    0.157590
    37  H    0.163707
    38  H    0.165217
    39  C    0.356819
    40  O   -0.427358
    41  O   -0.413430
    42  C   -0.269919
    43  H    0.191482
    44  H    0.183263
    45  C   -0.428844
    46  H    0.164020
    47  H    0.166441
    48  H    0.157992
    49  C   -0.268056
    50  H    0.182232
    51  H    0.191040
    52  C   -0.274827
    53  H    0.184515
    54  H    0.190845
    55  C   -0.426366
    56  H    0.163560
    57  H    0.165997
    58  H    0.157416
    59  C   -0.429138
    60  H    0.157885
    61  H    0.163924
    62  H    0.166208
    63  N   -0.053942
    64  H    0.397820
 Sum of Mulliken charges =   1.00000
 Mulliken charges with hydrogens summed into heavy atoms:
               1
     1  C    0.286702
     2  C   -0.065161
     3  C    0.156409
     4  C    0.070449
     5  C   -0.066863
     6  C   -0.045394
     7  C    0.114830
     8  C    0.103985
     9  C    0.136210
    10  C   -0.055194
    12  C    0.275356
    13  C   -0.043772
    14  C   -0.077829
    20  O   -0.220587
    21  C   -0.097746
    22  C   -0.025974
    23  C   -0.008018
    24  C    0.053126
    26  C    0.039415
    27  C    0.011983
    31  N   -0.052800
    32  C    0.100635
    35  C    0.060659
    39  C    0.356819
    40  O   -0.029538
    41  O   -0.413430
    42  C    0.104826
    45  C    0.059609
    49  C    0.105216
    52  C    0.100534
    55  C    0.060607
    59  C    0.058878
    63  N   -0.053942
 Electronic spatial extent (au):  <R**2>=          17828.6858
 Charge=              1.0000 electrons
 Dipole moment (field-independent basis, Debye):
    X=             -2.7310    Y=             -5.5795    Z=             -2.1747  Tot=              6.5817
 Quadrupole moment (field-independent basis, Debye-Ang):
   XX=            -79.7865   YY=           -146.2582   ZZ=           -189.1537
   XY=            -12.4452   XZ=             -7.2272   YZ=            -15.8274
 Traceless Quadrupole moment (field-independent basis, Debye-Ang):
   XX=             58.6129   YY=             -7.8588   ZZ=            -50.7542
   XY=            -12.4452   XZ=             -7.2272   YZ=            -15.8274
 Octapole moment (field-independent basis, Debye-Ang**2):
  XXX=            -81.3794  YYY=            -14.4216  ZZZ=             24.2317  XYY=            -12.5108
  XXY=           -239.7607  XXZ=             -9.6740  XZZ=            -13.9289  YZZ=              4.2788
  YYZ=            -60.6629  XYZ=             -7.9259
 Hexadecapole moment (field-independent basis, Debye-Ang**3):
 XXXX=         -10628.2637 YYYY=          -6750.9863 ZZZZ=          -1281.5413 XXXY=           -104.7734
 XXXZ=           -230.3662 YYYX=           -137.4826 YYYZ=           -298.2422 ZZZX=              9.3513
 ZZZY=            -50.3598 XXYY=          -3196.5265 XXZZ=          -2767.4417 YYZZ=          -1555.7379
 XXYZ=            -60.9450 YYXZ=            -71.2125 ZZXY=            -78.2312
 N-N= 3.338159309697D+03 E-N=-9.954133853647D+03  KE= 1.413662606291D+03
 Leave Link  601 at Sat Apr  2 06:22:02 2022, MaxMem=  5242880000 cpu:         8.2
 (Enter /opt/nce/packages/global/g09/l9999.exe)
 1\1\GINC-CN016\SP\RM062X TD-FC\Gen\C28H31N2O3(1+)\PNG4RJV\02-Apr-2022\
 0\\#p m062x chkbasis geom=allcheck Guess=Read int=ultrafine scrf=(SMD,
 solvent=Ethanol) td=(NStates=30)\\Title\\1,1\C,0,-3.8437100055,-0.9102
 314077,0.0619304347\C,0,-2.6335045286,-1.6400870761,0.0288078846\C,0,-
 1.4457894568,-0.9844074737,-0.1694420453\C,0,-1.3549621675,0.416840609
 8,-0.3617820644\C,0,-2.5799047609,1.1362328852,-0.3162762002\C,0,-3.76
 86590111,0.5145315093,-0.11519412\C,0,-0.0968936182,0.9991229548,-0.54
 41559253\C,0,1.0448843434,0.1886993061,-0.5323807065\C,0,0.8989371735,
 -1.2042427047,-0.3189595915\C,0,1.9592253732,-2.0728250013,-0.27386484
 3\H,0,1.7482579506,-3.1210184831,-0.1276347232\C,0,3.2752781898,-1.587
 4236281,-0.4450624321\C,0,3.4408976505,-0.1795191802,-0.6789427562\C,0
 ,2.3732771421,0.6570939525,-0.720118625\H,0,-2.5998065139,-2.706954647
 9,0.1882742777\H,0,-2.5606124529,2.2104005751,-0.446897749\H,0,-4.6698
 633843,1.1079653332,-0.1062754078\H,0,4.4291095749,0.2327386755,-0.811
 0490285\H,0,2.5394678403,1.7115763668,-0.9006168962\O,0,-0.3291777179,
 -1.7460447867,-0.1568980402\C,0,0.0238349512,2.4582746672,-0.800757268
 4\C,0,-0.4133078349,2.9363817171,-2.0335417181\C,0,0.612758203,3.35182
 67324,0.1014660035\C,0,-0.2697571873,4.2756408506,-2.3655686728\H,0,-0
 .8576587211,2.245754086,-2.7398096237\C,0,0.7649391218,4.6914192646,-0
 .2440400215\C,0,0.3205588403,5.1565863517,-1.4704058993\H,0,-0.6168854
 469,4.6274970931,-3.3286845696\H,0,1.2237890331,5.3655658276,0.4675840
 107\H,0,0.4336793574,6.2021234105,-1.7254854742\N,0,-5.0217679823,-1.5
 165488861,0.2543475514\C,0,-6.2728186841,-0.7747485484,0.4139481084\H,
 0,-6.0858089559,0.1417509678,0.9709674561\H,0,-6.9216109917,-1.3896664
 535,1.038290989\C,0,-6.9467756697,-0.4856370213,-0.9173050343\H,0,-7.1
 549823825,-1.4150489273,-1.4502532867\H,0,-7.8914812361,0.0342675689,-
 0.7522205797\H,0,-6.314404471,0.1393097662,-1.5497937406\C,0,1.1008431
 371,2.9495645545,1.4512844202\O,0,0.401944405,1.9579576368,1.997981897
 7\O,0,2.0230183644,3.4901586835,2.0123470293\C,0,-5.1391395892,-2.9712
 78215,0.3343545723\H,0,-6.142006535,-3.2251411955,-0.0097987984\H,0,-4
 .4432485885,-3.4292814161,-0.3673966044\C,0,-4.9219247893,-3.491727690
 2,1.7465427488\H,0,-5.0413178045,-4.5757946309,1.7665819548\H,0,-3.921
 3310959,-3.2475884435,2.106223301\H,0,-5.650145947,-3.0535044197,2.431
 1619335\C,0,4.201751682,-3.8186231874,-0.0451051088\H,0,3.4256979028,-
 3.9326264275,0.7109216368\H,0,5.1407698701,-4.1172691563,0.4219402161\
 C,0,5.6965479143,-1.9480192286,-0.6699921733\H,0,5.6790393238,-1.21105
 76529,-1.4712745933\H,0,6.2427532199,-2.8098354375,-1.054114528\C,0,6.
 3863511951,-1.4008695556,0.5691249774\H,0,7.408885189,-1.1071936468,0.
 3279187662\H,0,5.8592188619,-0.5287253805,0.9589768249\H,0,6.422871546
 3,-2.1595677524,1.3528306943\C,0,3.9199452201,-4.688097359,-1.26008413
 24\H,0,4.7235254426,-4.5930878594,-1.9924391851\H,0,3.8501544674,-5.73
 48977892,-0.9613560837\H,0,2.9823545479,-4.4026772162,-1.7394299258\N,
 0,4.3347318481,-2.4048752713,-0.3920939286\H,0,0.7817736477,1.74030881
 07,2.8666614156\\Version=ES64L-G09RevE.01\State=1-A\HF=-1420.6737199\R
 MSD=8.990e-10\PG=C01 [X(C28H31N2O3)]\\@


 IN THE UNIVERSE THE DIFFICULT THINGS ARE DONE AS IF THEY WERE EASY.

                                                          -- LAO-TSU
 Job cpu time:       4 days  0 hours 20 minutes 11.0 seconds.
 File lengths (MBytes):  RWF=   7390 Int=      0 D2E=      0 Chk=   1310 Scr=      1
 Normal termination of Gaussian 09 at Sat Apr  2 06:22:04 2022.
