 Entering Gaussian System, Link 0=g09
 Input=/Lustre01/home/png4rjv/fotokatalizis/benchmark/OPCs/RESTART_Rh_Eos_counterion/Rh_B_M06_def2TZVP.gjf
 Output=/Lustre01/home/png4rjv/fotokatalizis/benchmark/OPCs/RESTART_Rh_Eos_counterion/Rh_B_M06_def2TZVP.log
 Initial command:
 /opt/nce/packages/global/g09/l1.exe "/Lustre01/home/png4rjv/fotokatalizis/benchmark/OPCs/RESTART_Rh_Eos_counterion/Rh_B_M06_def2TZVP/Gau-57068.inp" -scrdir="/Lustre01/home/png4rjv/fotokatalizis/benchmark/OPCs/RESTART_Rh_Eos_counterion/Rh_B_M06_def2TZVP/"
 Default is to use a total of  12 processors:
                               12 via shared-memory
                                1 via Linda
 Entering Link 1 = /opt/nce/packages/global/g09/l1.exe PID=     57069.
  
 Copyright (c) 1988,1990,1992,1993,1995,1998,2003,2009,2015,
            Gaussian, Inc.  All Rights Reserved.
  
 This is part of the Gaussian(R) 09 program.  It is based on
 the Gaussian(R) 03 system (copyright 2003, Gaussian, Inc.),
 the Gaussian(R) 98 system (copyright 1998, Gaussian, Inc.),
 the Gaussian(R) 94 system (copyright 1995, Gaussian, Inc.),
 the Gaussian 92(TM) system (copyright 1992, Gaussian, Inc.),
 the Gaussian 90(TM) system (copyright 1990, Gaussian, Inc.),
 the Gaussian 88(TM) system (copyright 1988, Gaussian, Inc.),
 the Gaussian 86(TM) system (copyright 1986, Carnegie Mellon
 University), and the Gaussian 82(TM) system (copyright 1983,
 Carnegie Mellon University). Gaussian is a federally registered
 trademark of Gaussian, Inc.
  
 This software contains proprietary and confidential information,
 including trade secrets, belonging to Gaussian, Inc.
  
 This software is provided under written license and may be
 used, copied, transmitted, or stored only in accord with that
 written license.
  
 The following legend is applicable only to US Government
 contracts under FAR:
  
                    RESTRICTED RIGHTS LEGEND
  
 Use, reproduction and disclosure by the US Government is
 subject to restrictions as set forth in subparagraphs (a)
 and (c) of the Commercial Computer Software - Restricted
 Rights clause in FAR 52.227-19.
  
 Gaussian, Inc.
 340 Quinnipiac St., Bldg. 40, Wallingford CT 06492
  
  
 ---------------------------------------------------------------
 Warning -- This program may not be used in any manner that
 competes with the business of Gaussian, Inc. or will provide
 assistance to any competitor of Gaussian, Inc.  The licensee
 of this program is prohibited from giving any competitor of
 Gaussian, Inc. access to this program.  By using this program,
 the user acknowledges that Gaussian, Inc. is engaged in the
 business of creating and licensing software in the field of
 computational chemistry and represents and warrants to the
 licensee that it is not a competitor of Gaussian, Inc. and that
 it will not use this program in any manner prohibited above.
 ---------------------------------------------------------------
  

 Cite this work as:
 Gaussian 09, Revision E.01,
 M. J. Frisch, G. W. Trucks, H. B. Schlegel, G. E. Scuseria, 
 M. A. Robb, J. R. Cheeseman, G. Scalmani, V. Barone, B. Mennucci, 
 G. A. Petersson, H. Nakatsuji, M. Caricato, X. Li, H. P. Hratchian, 
 A. F. Izmaylov, J. Bloino, G. Zheng, J. L. Sonnenberg, M. Hada, 
 M. Ehara, K. Toyota, R. Fukuda, J. Hasegawa, M. Ishida, T. Nakajima, 
 Y. Honda, O. Kitao, H. Nakai, T. Vreven, J. A. Montgomery, Jr., 
 J. E. Peralta, F. Ogliaro, M. Bearpark, J. J. Heyd, E. Brothers, 
 K. N. Kudin, V. N. Staroverov, T. Keith, R. Kobayashi, J. Normand, 
 K. Raghavachari, A. Rendell, J. C. Burant, S. S. Iyengar, J. Tomasi, 
 M. Cossi, N. Rega, J. M. Millam, M. Klene, J. E. Knox, J. B. Cross, 
 V. Bakken, C. Adamo, J. Jaramillo, R. Gomperts, R. E. Stratmann, 
 O. Yazyev, A. J. Austin, R. Cammi, C. Pomelli, J. W. Ochterski, 
 R. L. Martin, K. Morokuma, V. G. Zakrzewski, G. A. Voth, 
 P. Salvador, J. J. Dannenberg, S. Dapprich, A. D. Daniels, 
 O. Farkas, J. B. Foresman, J. V. Ortiz, J. Cioslowski, 
 and D. J. Fox, Gaussian, Inc., Wallingford CT, 2013.
 
 ******************************************
 Gaussian 09:  ES64L-G09RevE.01 30-Nov-2015
                31-Mar-2022 
 ******************************************
 %chk=cp.chk
 Default route:  MaxDisk=500GB
 ----------------------------------------------------------------------
 #p m06/def2TZVP opt=tight freq=noraman Symmetry=None int=ultrafine scr
 f=(SMD,solvent=Ethanol)
 ----------------------------------------------------------------------
 1/7=10,14=-1,18=20,19=15,26=4,38=1/1,3;
 2/9=110,12=2,15=3,17=6,18=5,40=1/2;
 3/5=44,7=101,11=2,16=1,25=1,30=1,70=32201,71=1,72=4,74=-54,75=-5/1,2,3;
 4//1;
 5/5=2,38=5,53=4/2;
 6/7=2,8=2,9=2,10=2,28=1/1;
 7/30=1/1,2,3,16;
 1/7=10,14=-1,18=20,19=15,26=4/3(2);
 2/9=110,15=3/2;
 99//99;
 2/9=110,15=3/2;
 3/5=44,7=101,11=2,16=1,25=1,30=1,70=32205,71=1,72=4,74=-54,75=-5/1,2,3;
 4/5=5,16=3,69=1/1;
 5/5=2,38=5,53=4/2;
 7/30=1/1,2,3,16;
 1/7=10,14=-1,18=20,19=15,26=4/3(-5);
 2/9=110,15=3/2;
 6/7=2,8=2,9=2,10=2,19=2,28=1/1;
 99/9=1/99;
 Leave Link    1 at Thu Mar 31 18:03:02 2022, MaxMem=           0 cpu:         1.9
 (Enter /opt/nce/packages/global/g09/l101.exe)
 -----
 Title
 -----
 Symbolic Z-matrix:
 Charge =  1 Multiplicity = 1
 C                    -3.76348  -1.04101  -0.01731 
 C                    -2.53583  -1.729     0.00818 
 C                    -1.36106  -1.05063  -0.1834 
 C                    -1.30618   0.34012  -0.42211 
 C                    -2.54738   1.01772  -0.43755 
 C                    -3.72308   0.36859  -0.24696 
 C                    -0.06383   0.96169  -0.58292 
 C                     1.0946    0.17935  -0.52083 
 C                     0.98319  -1.20711  -0.27581 
 C                     2.06775  -2.04034  -0.19208 
 H                     1.88205  -3.09185  -0.0214 
 C                     3.36917  -1.52784  -0.34793 
 C                     3.49747  -0.12759  -0.60002 
 C                     2.40855   0.67699  -0.68276 
 H                    -2.47687  -2.79085   0.20362 
 H                    -2.55473   2.08832  -0.6073 
 H                    -4.64234   0.93621  -0.28387 
 H                     4.47783   0.31155  -0.71847 
 H                     2.54733   1.73503  -0.87402 
 O                    -0.22813  -1.78015  -0.12042 
 C                     0.02113   2.40082  -0.92115 
 C                    -0.26614   2.75724  -2.23487 
 C                     0.42032   3.38445  -0.01242 
 C                    -0.16926   4.07348  -2.64904 
 H                    -0.56469   1.98584  -2.93743 
 C                     0.52346   4.70039  -0.44752 
 C                     0.2252    5.05034  -1.75092 
 H                    -0.40056   4.33241  -3.67588 
 H                     0.83553   5.45622   0.26357 
 H                     0.3012    6.08458  -2.06622 
 N                    -4.93219  -1.67935   0.16892 
 C                    -6.20882  -0.97736   0.24962 
 H                    -6.0694   -0.01532   0.74496 
 H                    -6.85083  -1.56438   0.91145 
 C                    -6.86385  -0.80901  -1.10119 
 H                    -7.02599  -1.77911  -1.57775 
 H                    -7.83363  -0.31836  -0.99657 
 H                    -6.24582  -0.2033   -1.76825 
 C                     0.72137   3.06215   1.42555 
 O                     0.18807   2.04111   1.92509 
 O                     1.47869   3.83706   2.05666 
 C                    -5.00965  -3.12779   0.31573 
 H                    -5.98193  -3.43583  -0.07719 
 H                    -4.26325  -3.60016  -0.32552 
 C                    -4.85978  -3.57503   1.75168 
 H                    -4.95483  -4.66025   1.82445 
 H                    -3.88589  -3.29059   2.15688 
 H                    -5.63257  -3.12569   2.38043 
 C                     4.35983  -3.73287   0.07626 
 H                     3.55169  -3.88245   0.79442 
 H                     5.28204  -3.99646   0.60063 
 C                     5.8066   -1.82374  -0.50152 
 H                     5.79217  -1.07579  -1.29573 
 H                     6.38554  -2.66362  -0.8934 
 C                     6.45376  -1.28066   0.75107 
 H                     7.47499  -0.95545   0.54267 
 H                     5.89823  -0.42679   1.14635 
 H                     6.49563  -2.04687   1.52935 
 C                     4.17905  -4.61105  -1.14031 
 H                     5.01057  -4.484    -1.83807 
 H                     4.14149  -5.66257  -0.84881 
 H                     3.25341  -4.37118  -1.6688 
 N                     4.45418  -2.3179   -0.26368 
 H                     1.19745   2.53033   3.93563 
 
 Add virtual bond connecting atoms H64        and O40        Dist= 4.35D+00.
 Add virtual bond connecting atoms H64        and O41        Dist= 4.36D+00.
 NAtoms=     64 NQM=       64 NQMF=       0 NMMI=      0 NMMIF=      0
                NMic=       0 NMicF=      0.
                    Isotopes and Nuclear Properties:
 (Nuclear quadrupole moments (NQMom) in fm**2, nuclear magnetic moments (NMagM)
  in nuclear magnetons)

  Atom         1           2           3           4           5           6           7           8           9          10
 IAtWgt=          12          12          12          12          12          12          12          12          12          12
 AtmWgt=  12.0000000  12.0000000  12.0000000  12.0000000  12.0000000  12.0000000  12.0000000  12.0000000  12.0000000  12.0000000
 NucSpn=           0           0           0           0           0           0           0           0           0           0
 AtZEff=   0.0000000   0.0000000   0.0000000   0.0000000   0.0000000   0.0000000   0.0000000   0.0000000   0.0000000   0.0000000
 NQMom=    0.0000000   0.0000000   0.0000000   0.0000000   0.0000000   0.0000000   0.0000000   0.0000000   0.0000000   0.0000000
 NMagM=    0.0000000   0.0000000   0.0000000   0.0000000   0.0000000   0.0000000   0.0000000   0.0000000   0.0000000   0.0000000
 AtZNuc=   6.0000000   6.0000000   6.0000000   6.0000000   6.0000000   6.0000000   6.0000000   6.0000000   6.0000000   6.0000000

  Atom        11          12          13          14          15          16          17          18          19          20
 IAtWgt=           1          12          12          12           1           1           1           1           1          16
 AtmWgt=   1.0078250  12.0000000  12.0000000  12.0000000   1.0078250   1.0078250   1.0078250   1.0078250   1.0078250  15.9949146
 NucSpn=           1           0           0           0           1           1           1           1           1           0
 AtZEff=   0.0000000   0.0000000   0.0000000   0.0000000   0.0000000   0.0000000   0.0000000   0.0000000   0.0000000   0.0000000
 NQMom=    0.0000000   0.0000000   0.0000000   0.0000000   0.0000000   0.0000000   0.0000000   0.0000000   0.0000000   0.0000000
 NMagM=    2.7928460   0.0000000   0.0000000   0.0000000   2.7928460   2.7928460   2.7928460   2.7928460   2.7928460   0.0000000
 AtZNuc=   1.0000000   6.0000000   6.0000000   6.0000000   1.0000000   1.0000000   1.0000000   1.0000000   1.0000000   8.0000000

  Atom        21          22          23          24          25          26          27          28          29          30
 IAtWgt=          12          12          12          12           1          12          12           1           1           1
 AtmWgt=  12.0000000  12.0000000  12.0000000  12.0000000   1.0078250  12.0000000  12.0000000   1.0078250   1.0078250   1.0078250
 NucSpn=           0           0           0           0           1           0           0           1           1           1
 AtZEff=   0.0000000   0.0000000   0.0000000   0.0000000   0.0000000   0.0000000   0.0000000   0.0000000   0.0000000   0.0000000
 NQMom=    0.0000000   0.0000000   0.0000000   0.0000000   0.0000000   0.0000000   0.0000000   0.0000000   0.0000000   0.0000000
 NMagM=    0.0000000   0.0000000   0.0000000   0.0000000   2.7928460   0.0000000   0.0000000   2.7928460   2.7928460   2.7928460
 AtZNuc=   6.0000000   6.0000000   6.0000000   6.0000000   1.0000000   6.0000000   6.0000000   1.0000000   1.0000000   1.0000000

  Atom        31          32          33          34          35          36          37          38          39          40
 IAtWgt=          14          12           1           1          12           1           1           1          12          16
 AtmWgt=  14.0030740  12.0000000   1.0078250   1.0078250  12.0000000   1.0078250   1.0078250   1.0078250  12.0000000  15.9949146
 NucSpn=           2           0           1           1           0           1           1           1           0           0
 AtZEff=   0.0000000   0.0000000   0.0000000   0.0000000   0.0000000   0.0000000   0.0000000   0.0000000   0.0000000   0.0000000
 NQMom=    2.0440000   0.0000000   0.0000000   0.0000000   0.0000000   0.0000000   0.0000000   0.0000000   0.0000000   0.0000000
 NMagM=    0.4037610   0.0000000   2.7928460   2.7928460   0.0000000   2.7928460   2.7928460   2.7928460   0.0000000   0.0000000
 AtZNuc=   7.0000000   6.0000000   1.0000000   1.0000000   6.0000000   1.0000000   1.0000000   1.0000000   6.0000000   8.0000000

  Atom        41          42          43          44          45          46          47          48          49          50
 IAtWgt=          16          12           1           1          12           1           1           1          12           1
 AtmWgt=  15.9949146  12.0000000   1.0078250   1.0078250  12.0000000   1.0078250   1.0078250   1.0078250  12.0000000   1.0078250
 NucSpn=           0           0           1           1           0           1           1           1           0           1
 AtZEff=   0.0000000   0.0000000   0.0000000   0.0000000   0.0000000   0.0000000   0.0000000   0.0000000   0.0000000   0.0000000
 NQMom=    0.0000000   0.0000000   0.0000000   0.0000000   0.0000000   0.0000000   0.0000000   0.0000000   0.0000000   0.0000000
 NMagM=    0.0000000   0.0000000   2.7928460   2.7928460   0.0000000   2.7928460   2.7928460   2.7928460   0.0000000   2.7928460
 AtZNuc=   8.0000000   6.0000000   1.0000000   1.0000000   6.0000000   1.0000000   1.0000000   1.0000000   6.0000000   1.0000000

  Atom        51          52          53          54          55          56          57          58          59          60
 IAtWgt=           1          12           1           1          12           1           1           1          12           1
 AtmWgt=   1.0078250  12.0000000   1.0078250   1.0078250  12.0000000   1.0078250   1.0078250   1.0078250  12.0000000   1.0078250
 NucSpn=           1           0           1           1           0           1           1           1           0           1
 AtZEff=   0.0000000   0.0000000   0.0000000   0.0000000   0.0000000   0.0000000   0.0000000   0.0000000   0.0000000   0.0000000
 NQMom=    0.0000000   0.0000000   0.0000000   0.0000000   0.0000000   0.0000000   0.0000000   0.0000000   0.0000000   0.0000000
 NMagM=    2.7928460   0.0000000   2.7928460   2.7928460   0.0000000   2.7928460   2.7928460   2.7928460   0.0000000   2.7928460
 AtZNuc=   1.0000000   6.0000000   1.0000000   1.0000000   6.0000000   1.0000000   1.0000000   1.0000000   6.0000000   1.0000000

  Atom        61          62          63          64
 IAtWgt=           1           1          14           1
 AtmWgt=   1.0078250   1.0078250  14.0030740   1.0078250
 NucSpn=           1           1           2           1
 AtZEff=   0.0000000   0.0000000   0.0000000   0.0000000
 NQMom=    0.0000000   0.0000000   2.0440000   0.0000000
 NMagM=    2.7928460   2.7928460   0.4037610   2.7928460
 AtZNuc=   1.0000000   1.0000000   7.0000000   1.0000000
 Leave Link  101 at Thu Mar 31 18:03:03 2022, MaxMem=  5242880000 cpu:         4.5
 (Enter /opt/nce/packages/global/g09/l103.exe)

 GradGradGradGradGradGradGradGradGradGradGradGradGradGradGradGradGradGrad
 Berny optimization.
 Initialization pass.
                           ----------------------------
                           !    Initial Parameters    !
                           ! (Angstroms and Degrees)  !
 --------------------------                            --------------------------
 ! Name  Definition              Value          Derivative Info.                !
 --------------------------------------------------------------------------------
 ! R1    R(1,2)                  1.4075         estimate D2E/DX2                !
 ! R2    R(1,6)                  1.4288         estimate D2E/DX2                !
 ! R3    R(1,31)                 1.3446         estimate D2E/DX2                !
 ! R4    R(2,3)                  1.37           estimate D2E/DX2                !
 ! R5    R(2,15)                 1.0813         estimate D2E/DX2                !
 ! R6    R(3,4)                  1.4121         estimate D2E/DX2                !
 ! R7    R(3,20)                 1.349          estimate D2E/DX2                !
 ! R8    R(4,5)                  1.4142         estimate D2E/DX2                !
 ! R9    R(4,7)                  1.3984         estimate D2E/DX2                !
 ! R10   R(5,6)                  1.3564         estimate D2E/DX2                !
 ! R11   R(5,16)                 1.084          estimate D2E/DX2                !
 ! R12   R(6,17)                 1.081          estimate D2E/DX2                !
 ! R13   R(7,8)                  1.3992         estimate D2E/DX2                !
 ! R14   R(7,21)                 1.4808         estimate D2E/DX2                !
 ! R15   R(8,9)                  1.4123         estimate D2E/DX2                !
 ! R16   R(8,14)                 1.4143         estimate D2E/DX2                !
 ! R17   R(9,10)                 1.3702         estimate D2E/DX2                !
 ! R18   R(9,20)                 1.349          estimate D2E/DX2                !
 ! R19   R(10,11)                1.0813         estimate D2E/DX2                !
 ! R20   R(10,12)                1.4074         estimate D2E/DX2                !
 ! R21   R(12,13)                1.4285         estimate D2E/DX2                !
 ! R22   R(12,63)                1.3448         estimate D2E/DX2                !
 ! R23   R(13,14)                1.3564         estimate D2E/DX2                !
 ! R24   R(13,18)                1.0807         estimate D2E/DX2                !
 ! R25   R(14,19)                1.0841         estimate D2E/DX2                !
 ! R26   R(21,22)                1.3912         estimate D2E/DX2                !
 ! R27   R(21,23)                1.3974         estimate D2E/DX2                !
 ! R28   R(22,24)                1.3833         estimate D2E/DX2                !
 ! R29   R(22,25)                1.0853         estimate D2E/DX2                !
 ! R30   R(23,26)                1.3898         estimate D2E/DX2                !
 ! R31   R(23,39)                1.5041         estimate D2E/DX2                !
 ! R32   R(24,27)                1.3844         estimate D2E/DX2                !
 ! R33   R(24,28)                1.084          estimate D2E/DX2                !
 ! R34   R(26,27)                1.3821         estimate D2E/DX2                !
 ! R35   R(26,29)                1.0837         estimate D2E/DX2                !
 ! R36   R(27,30)                1.0839         estimate D2E/DX2                !
 ! R37   R(31,32)                1.4591         estimate D2E/DX2                !
 ! R38   R(31,42)                1.4579         estimate D2E/DX2                !
 ! R39   R(32,33)                1.091          estimate D2E/DX2                !
 ! R40   R(32,34)                1.0931         estimate D2E/DX2                !
 ! R41   R(32,35)                1.5107         estimate D2E/DX2                !
 ! R42   R(35,36)                1.0929         estimate D2E/DX2                !
 ! R43   R(35,37)                1.0919         estimate D2E/DX2                !
 ! R44   R(35,38)                1.0926         estimate D2E/DX2                !
 ! R45   R(39,40)                1.2556         estimate D2E/DX2                !
 ! R46   R(39,41)                1.2539         estimate D2E/DX2                !
 ! R47   R(40,64)                2.3023         estimate D2E/DX2                !
 ! R48   R(41,64)                2.3059         estimate D2E/DX2                !
 ! R49   R(42,43)                1.093          estimate D2E/DX2                !
 ! R50   R(42,44)                1.0915         estimate D2E/DX2                !
 ! R51   R(42,45)                1.5114         estimate D2E/DX2                !
 ! R52   R(45,46)                1.0918         estimate D2E/DX2                !
 ! R53   R(45,47)                1.0925         estimate D2E/DX2                !
 ! R54   R(45,48)                1.0929         estimate D2E/DX2                !
 ! R55   R(49,50)                1.0914         estimate D2E/DX2                !
 ! R56   R(49,51)                1.0931         estimate D2E/DX2                !
 ! R57   R(49,59)                1.5113         estimate D2E/DX2                !
 ! R58   R(49,63)                1.4583         estimate D2E/DX2                !
 ! R59   R(52,53)                1.0911         estimate D2E/DX2                !
 ! R60   R(52,54)                1.0928         estimate D2E/DX2                !
 ! R61   R(52,55)                1.5109         estimate D2E/DX2                !
 ! R62   R(52,63)                1.4594         estimate D2E/DX2                !
 ! R63   R(55,56)                1.0918         estimate D2E/DX2                !
 ! R64   R(55,57)                1.0927         estimate D2E/DX2                !
 ! R65   R(55,58)                1.093          estimate D2E/DX2                !
 ! R66   R(59,60)                1.0929         estimate D2E/DX2                !
 ! R67   R(59,61)                1.0918         estimate D2E/DX2                !
 ! R68   R(59,62)                1.0926         estimate D2E/DX2                !
 ! A1    A(2,1,6)              117.4184         estimate D2E/DX2                !
 ! A2    A(2,1,31)             121.5704         estimate D2E/DX2                !
 ! A3    A(6,1,31)             121.0111         estimate D2E/DX2                !
 ! A4    A(1,2,3)              120.2217         estimate D2E/DX2                !
 ! A5    A(1,2,15)             122.0617         estimate D2E/DX2                !
 ! A6    A(3,2,15)             117.6952         estimate D2E/DX2                !
 ! A7    A(2,3,4)              122.9978         estimate D2E/DX2                !
 ! A8    A(2,3,20)             116.4777         estimate D2E/DX2                !
 ! A9    A(4,3,20)             120.5213         estimate D2E/DX2                !
 ! A10   A(3,4,5)              116.0794         estimate D2E/DX2                !
 ! A11   A(3,4,7)              119.4525         estimate D2E/DX2                !
 ! A12   A(5,4,7)              124.4357         estimate D2E/DX2                !
 ! A13   A(4,5,6)              121.9978         estimate D2E/DX2                !
 ! A14   A(4,5,16)             118.7426         estimate D2E/DX2                !
 ! A15   A(6,5,16)             119.2596         estimate D2E/DX2                !
 ! A16   A(1,6,5)              121.2807         estimate D2E/DX2                !
 ! A17   A(1,6,17)             119.9658         estimate D2E/DX2                !
 ! A18   A(5,6,17)             118.749          estimate D2E/DX2                !
 ! A19   A(4,7,8)              118.8074         estimate D2E/DX2                !
 ! A20   A(4,7,21)             120.6113         estimate D2E/DX2                !
 ! A21   A(8,7,21)             120.3997         estimate D2E/DX2                !
 ! A22   A(7,8,9)              119.4239         estimate D2E/DX2                !
 ! A23   A(7,8,14)             124.5641         estimate D2E/DX2                !
 ! A24   A(9,8,14)             116.0115         estimate D2E/DX2                !
 ! A25   A(8,9,10)             123.0324         estimate D2E/DX2                !
 ! A26   A(8,9,20)             120.5186         estimate D2E/DX2                !
 ! A27   A(10,9,20)            116.4473         estimate D2E/DX2                !
 ! A28   A(9,10,11)            117.7124         estimate D2E/DX2                !
 ! A29   A(9,10,12)            120.2466         estimate D2E/DX2                !
 ! A30   A(11,10,12)           122.0328         estimate D2E/DX2                !
 ! A31   A(10,12,13)           117.3575         estimate D2E/DX2                !
 ! A32   A(10,12,63)           121.6818         estimate D2E/DX2                !
 ! A33   A(13,12,63)           120.9607         estimate D2E/DX2                !
 ! A34   A(12,13,14)           121.3375         estimate D2E/DX2                !
 ! A35   A(12,13,18)           119.9404         estimate D2E/DX2                !
 ! A36   A(14,13,18)           118.7189         estimate D2E/DX2                !
 ! A37   A(8,14,13)            122.0129         estimate D2E/DX2                !
 ! A38   A(8,14,19)            118.8503         estimate D2E/DX2                !
 ! A39   A(13,14,19)           119.1361         estimate D2E/DX2                !
 ! A40   A(3,20,9)             121.267          estimate D2E/DX2                !
 ! A41   A(7,21,22)            116.9254         estimate D2E/DX2                !
 ! A42   A(7,21,23)            123.5016         estimate D2E/DX2                !
 ! A43   A(22,21,23)           119.5216         estimate D2E/DX2                !
 ! A44   A(21,22,24)           120.8009         estimate D2E/DX2                !
 ! A45   A(21,22,25)           119.0797         estimate D2E/DX2                !
 ! A46   A(24,22,25)           120.1188         estimate D2E/DX2                !
 ! A47   A(21,23,26)           118.9533         estimate D2E/DX2                !
 ! A48   A(21,23,39)           121.8751         estimate D2E/DX2                !
 ! A49   A(26,23,39)           119.1655         estimate D2E/DX2                !
 ! A50   A(22,24,27)           119.8124         estimate D2E/DX2                !
 ! A51   A(22,24,28)           119.7354         estimate D2E/DX2                !
 ! A52   A(27,24,28)           120.452          estimate D2E/DX2                !
 ! A53   A(23,26,27)           121.2615         estimate D2E/DX2                !
 ! A54   A(23,26,29)           118.4466         estimate D2E/DX2                !
 ! A55   A(27,26,29)           120.2891         estimate D2E/DX2                !
 ! A56   A(24,27,26)           119.6451         estimate D2E/DX2                !
 ! A57   A(24,27,30)           120.3026         estimate D2E/DX2                !
 ! A58   A(26,27,30)           120.0522         estimate D2E/DX2                !
 ! A59   A(1,31,32)            122.6642         estimate D2E/DX2                !
 ! A60   A(1,31,42)            122.1248         estimate D2E/DX2                !
 ! A61   A(32,31,42)           115.2092         estimate D2E/DX2                !
 ! A62   A(31,32,33)           109.7268         estimate D2E/DX2                !
 ! A63   A(31,32,34)           106.7979         estimate D2E/DX2                !
 ! A64   A(31,32,35)           112.5526         estimate D2E/DX2                !
 ! A65   A(33,32,34)           105.885          estimate D2E/DX2                !
 ! A66   A(33,32,35)           111.2921         estimate D2E/DX2                !
 ! A67   A(34,32,35)           110.2782         estimate D2E/DX2                !
 ! A68   A(32,35,36)           110.8123         estimate D2E/DX2                !
 ! A69   A(32,35,37)           110.4582         estimate D2E/DX2                !
 ! A70   A(32,35,38)           111.2494         estimate D2E/DX2                !
 ! A71   A(36,35,37)           107.9914         estimate D2E/DX2                !
 ! A72   A(36,35,38)           108.0461         estimate D2E/DX2                !
 ! A73   A(37,35,38)           108.1663         estimate D2E/DX2                !
 ! A74   A(23,39,40)           118.0087         estimate D2E/DX2                !
 ! A75   A(23,39,41)           118.0115         estimate D2E/DX2                !
 ! A76   A(40,39,41)           123.9755         estimate D2E/DX2                !
 ! A77   A(39,40,64)            89.3362         estimate D2E/DX2                !
 ! A78   A(39,41,64)            89.2123         estimate D2E/DX2                !
 ! A79   A(31,42,43)           106.9214         estimate D2E/DX2                !
 ! A80   A(31,42,44)           109.5396         estimate D2E/DX2                !
 ! A81   A(31,42,45)           112.6049         estimate D2E/DX2                !
 ! A82   A(43,42,44)           105.9705         estimate D2E/DX2                !
 ! A83   A(43,42,45)           110.2643         estimate D2E/DX2                !
 ! A84   A(44,42,45)           111.24           estimate D2E/DX2                !
 ! A85   A(42,45,46)           110.4141         estimate D2E/DX2                !
 ! A86   A(42,45,47)           111.3286         estimate D2E/DX2                !
 ! A87   A(42,45,48)           110.7815         estimate D2E/DX2                !
 ! A88   A(46,45,47)           108.1603         estimate D2E/DX2                !
 ! A89   A(46,45,48)           107.9844         estimate D2E/DX2                !
 ! A90   A(47,45,48)           108.0541         estimate D2E/DX2                !
 ! A91   A(50,49,51)           106.0204         estimate D2E/DX2                !
 ! A92   A(50,49,59)           111.191          estimate D2E/DX2                !
 ! A93   A(50,49,63)           109.5281         estimate D2E/DX2                !
 ! A94   A(51,49,59)           110.301          estimate D2E/DX2                !
 ! A95   A(51,49,63)           106.9308         estimate D2E/DX2                !
 ! A96   A(59,49,63)           112.5765         estimate D2E/DX2                !
 ! A97   A(53,52,54)           105.8336         estimate D2E/DX2                !
 ! A98   A(53,52,55)           111.2684         estimate D2E/DX2                !
 ! A99   A(53,52,63)           109.786          estimate D2E/DX2                !
 ! A100  A(54,52,55)           110.2816         estimate D2E/DX2                !
 ! A101  A(54,52,63)           106.8076         estimate D2E/DX2                !
 ! A102  A(55,52,63)           112.5536         estimate D2E/DX2                !
 ! A103  A(52,55,56)           110.4545         estimate D2E/DX2                !
 ! A104  A(52,55,57)           111.2863         estimate D2E/DX2                !
 ! A105  A(52,55,58)           110.7795         estimate D2E/DX2                !
 ! A106  A(56,55,57)           108.1693         estimate D2E/DX2                !
 ! A107  A(56,55,58)           107.9926         estimate D2E/DX2                !
 ! A108  A(57,55,58)           108.0415         estimate D2E/DX2                !
 ! A109  A(49,59,60)           110.8168         estimate D2E/DX2                !
 ! A110  A(49,59,61)           110.4162         estimate D2E/DX2                !
 ! A111  A(49,59,62)           111.2945         estimate D2E/DX2                !
 ! A112  A(60,59,61)           107.9746         estimate D2E/DX2                !
 ! A113  A(60,59,62)           108.0741         estimate D2E/DX2                !
 ! A114  A(61,59,62)           108.1466         estimate D2E/DX2                !
 ! A115  A(12,63,49)           122.1704         estimate D2E/DX2                !
 ! A116  A(12,63,52)           122.5838         estimate D2E/DX2                !
 ! A117  A(49,63,52)           115.2457         estimate D2E/DX2                !
 ! A118  A(40,64,41)            57.4724         estimate D2E/DX2                !
 ! D1    D(6,1,2,3)             -0.0405         estimate D2E/DX2                !
 ! D2    D(6,1,2,15)           178.2351         estimate D2E/DX2                !
 ! D3    D(31,1,2,3)          -179.9241         estimate D2E/DX2                !
 ! D4    D(31,1,2,15)           -1.6486         estimate D2E/DX2                !
 ! D5    D(2,1,6,5)              0.2188         estimate D2E/DX2                !
 ! D6    D(2,1,6,17)           179.4346         estimate D2E/DX2                !
 ! D7    D(31,1,6,5)          -179.8969         estimate D2E/DX2                !
 ! D8    D(31,1,6,17)           -0.6811         estimate D2E/DX2                !
 ! D9    D(2,1,31,32)          175.1714         estimate D2E/DX2                !
 ! D10   D(2,1,31,42)           -4.3172         estimate D2E/DX2                !
 ! D11   D(6,1,31,32)           -4.7081         estimate D2E/DX2                !
 ! D12   D(6,1,31,42)          175.8034         estimate D2E/DX2                !
 ! D13   D(1,2,3,4)             -0.4851         estimate D2E/DX2                !
 ! D14   D(1,2,3,20)           178.8702         estimate D2E/DX2                !
 ! D15   D(15,2,3,4)          -178.8346         estimate D2E/DX2                !
 ! D16   D(15,2,3,20)            0.5207         estimate D2E/DX2                !
 ! D17   D(2,3,4,5)              0.7934         estimate D2E/DX2                !
 ! D18   D(2,3,4,7)            178.8148         estimate D2E/DX2                !
 ! D19   D(20,3,4,5)          -178.5367         estimate D2E/DX2                !
 ! D20   D(20,3,4,7)            -0.5154         estimate D2E/DX2                !
 ! D21   D(2,3,20,9)          -179.0466         estimate D2E/DX2                !
 ! D22   D(4,3,20,9)             0.3257         estimate D2E/DX2                !
 ! D23   D(3,4,5,6)             -0.6037         estimate D2E/DX2                !
 ! D24   D(3,4,5,16)           179.4036         estimate D2E/DX2                !
 ! D25   D(7,4,5,6)           -178.5146         estimate D2E/DX2                !
 ! D26   D(7,4,5,16)             1.4926         estimate D2E/DX2                !
 ! D27   D(3,4,7,8)              0.8902         estimate D2E/DX2                !
 ! D28   D(3,4,7,21)           176.0132         estimate D2E/DX2                !
 ! D29   D(5,4,7,8)            178.7354         estimate D2E/DX2                !
 ! D30   D(5,4,7,21)            -6.1416         estimate D2E/DX2                !
 ! D31   D(4,5,6,1)              0.1197         estimate D2E/DX2                !
 ! D32   D(4,5,6,17)          -179.1054         estimate D2E/DX2                !
 ! D33   D(16,5,6,1)          -179.8876         estimate D2E/DX2                !
 ! D34   D(16,5,6,17)            0.8873         estimate D2E/DX2                !
 ! D35   D(4,7,8,9)             -1.0767         estimate D2E/DX2                !
 ! D36   D(4,7,8,14)           179.1876         estimate D2E/DX2                !
 ! D37   D(21,7,8,9)          -176.2103         estimate D2E/DX2                !
 ! D38   D(21,7,8,14)            4.054          estimate D2E/DX2                !
 ! D39   D(4,7,21,22)          -75.5427         estimate D2E/DX2                !
 ! D40   D(4,7,21,23)          107.0822         estimate D2E/DX2                !
 ! D41   D(8,7,21,22)           99.5025         estimate D2E/DX2                !
 ! D42   D(8,7,21,23)          -77.8726         estimate D2E/DX2                !
 ! D43   D(7,8,9,10)          -179.5936         estimate D2E/DX2                !
 ! D44   D(7,8,9,20)             0.9003         estimate D2E/DX2                !
 ! D45   D(14,8,9,10)            0.1642         estimate D2E/DX2                !
 ! D46   D(14,8,9,20)         -179.3419         estimate D2E/DX2                !
 ! D47   D(7,8,14,13)          179.3739         estimate D2E/DX2                !
 ! D48   D(7,8,14,19)           -0.3244         estimate D2E/DX2                !
 ! D49   D(9,8,14,13)           -0.3699         estimate D2E/DX2                !
 ! D50   D(9,8,14,19)          179.9317         estimate D2E/DX2                !
 ! D51   D(8,9,10,11)         -178.779          estimate D2E/DX2                !
 ! D52   D(8,9,10,12)            0.1974         estimate D2E/DX2                !
 ! D53   D(20,9,10,11)           0.7458         estimate D2E/DX2                !
 ! D54   D(20,9,10,12)         179.7222         estimate D2E/DX2                !
 ! D55   D(8,9,20,3)            -0.5191         estimate D2E/DX2                !
 ! D56   D(10,9,20,3)          179.9433         estimate D2E/DX2                !
 ! D57   D(9,10,12,13)          -0.3549         estimate D2E/DX2                !
 ! D58   D(9,10,12,63)         179.6123         estimate D2E/DX2                !
 ! D59   D(11,10,12,13)        178.5761         estimate D2E/DX2                !
 ! D60   D(11,10,12,63)         -1.4567         estimate D2E/DX2                !
 ! D61   D(10,12,13,14)          0.1552         estimate D2E/DX2                !
 ! D62   D(10,12,13,18)        179.5028         estimate D2E/DX2                !
 ! D63   D(63,12,13,14)       -179.8123         estimate D2E/DX2                !
 ! D64   D(63,12,13,18)         -0.4647         estimate D2E/DX2                !
 ! D65   D(10,12,63,49)         -3.9404         estimate D2E/DX2                !
 ! D66   D(10,12,63,52)        176.2096         estimate D2E/DX2                !
 ! D67   D(13,12,63,49)        176.0257         estimate D2E/DX2                !
 ! D68   D(13,12,63,52)         -3.8244         estimate D2E/DX2                !
 ! D69   D(12,13,14,8)           0.2153         estimate D2E/DX2                !
 ! D70   D(12,13,14,19)        179.9128         estimate D2E/DX2                !
 ! D71   D(18,13,14,8)        -179.1401         estimate D2E/DX2                !
 ! D72   D(18,13,14,19)          0.5575         estimate D2E/DX2                !
 ! D73   D(7,21,22,24)        -177.8875         estimate D2E/DX2                !
 ! D74   D(7,21,22,25)           1.8316         estimate D2E/DX2                !
 ! D75   D(23,21,22,24)         -0.4028         estimate D2E/DX2                !
 ! D76   D(23,21,22,25)        179.3163         estimate D2E/DX2                !
 ! D77   D(7,21,23,26)         177.1723         estimate D2E/DX2                !
 ! D78   D(7,21,23,39)          -3.7369         estimate D2E/DX2                !
 ! D79   D(22,21,23,26)         -0.1381         estimate D2E/DX2                !
 ! D80   D(22,21,23,39)        178.9527         estimate D2E/DX2                !
 ! D81   D(21,22,24,27)          0.3663         estimate D2E/DX2                !
 ! D82   D(21,22,24,28)       -179.7846         estimate D2E/DX2                !
 ! D83   D(25,22,24,27)       -179.3498         estimate D2E/DX2                !
 ! D84   D(25,22,24,28)          0.4993         estimate D2E/DX2                !
 ! D85   D(21,23,26,27)          0.7264         estimate D2E/DX2                !
 ! D86   D(21,23,26,29)       -179.8857         estimate D2E/DX2                !
 ! D87   D(39,23,26,27)       -178.3894         estimate D2E/DX2                !
 ! D88   D(39,23,26,29)          0.9985         estimate D2E/DX2                !
 ! D89   D(21,23,39,40)        -24.3564         estimate D2E/DX2                !
 ! D90   D(21,23,39,41)        156.3671         estimate D2E/DX2                !
 ! D91   D(26,23,39,40)        154.7326         estimate D2E/DX2                !
 ! D92   D(26,23,39,41)        -24.544          estimate D2E/DX2                !
 ! D93   D(22,24,27,26)          0.2156         estimate D2E/DX2                !
 ! D94   D(22,24,27,30)       -179.8344         estimate D2E/DX2                !
 ! D95   D(28,24,27,26)       -179.6325         estimate D2E/DX2                !
 ! D96   D(28,24,27,30)          0.3176         estimate D2E/DX2                !
 ! D97   D(23,26,27,24)         -0.7689         estimate D2E/DX2                !
 ! D98   D(23,26,27,30)        179.281          estimate D2E/DX2                !
 ! D99   D(29,26,27,24)        179.8544         estimate D2E/DX2                !
 ! D100  D(29,26,27,30)         -0.0958         estimate D2E/DX2                !
 ! D101  D(1,31,32,33)         -35.0211         estimate D2E/DX2                !
 ! D102  D(1,31,32,34)        -149.3503         estimate D2E/DX2                !
 ! D103  D(1,31,32,35)          89.4937         estimate D2E/DX2                !
 ! D104  D(42,31,32,33)        144.5002         estimate D2E/DX2                !
 ! D105  D(42,31,32,34)         30.1709         estimate D2E/DX2                !
 ! D106  D(42,31,32,35)        -90.9851         estimate D2E/DX2                !
 ! D107  D(1,31,42,43)        -150.1044         estimate D2E/DX2                !
 ! D108  D(1,31,42,44)         -35.7023         estimate D2E/DX2                !
 ! D109  D(1,31,42,45)          88.6423         estimate D2E/DX2                !
 ! D110  D(32,31,42,43)         30.3714         estimate D2E/DX2                !
 ! D111  D(32,31,42,44)        144.7736         estimate D2E/DX2                !
 ! D112  D(32,31,42,45)        -90.8818         estimate D2E/DX2                !
 ! D113  D(31,32,35,36)         57.9877         estimate D2E/DX2                !
 ! D114  D(31,32,35,37)        177.6233         estimate D2E/DX2                !
 ! D115  D(31,32,35,38)        -62.2372         estimate D2E/DX2                !
 ! D116  D(33,32,35,36)       -178.363          estimate D2E/DX2                !
 ! D117  D(33,32,35,37)        -58.7274         estimate D2E/DX2                !
 ! D118  D(33,32,35,38)         61.4122         estimate D2E/DX2                !
 ! D119  D(34,32,35,36)        -61.1587         estimate D2E/DX2                !
 ! D120  D(34,32,35,37)         58.4768         estimate D2E/DX2                !
 ! D121  D(34,32,35,38)        178.6164         estimate D2E/DX2                !
 ! D122  D(23,39,40,64)       -178.6137         estimate D2E/DX2                !
 ! D123  D(41,39,40,64)          0.6161         estimate D2E/DX2                !
 ! D124  D(23,39,41,64)        178.6146         estimate D2E/DX2                !
 ! D125  D(40,39,41,64)         -0.6151         estimate D2E/DX2                !
 ! D126  D(39,40,64,41)         -0.3295         estimate D2E/DX2                !
 ! D127  D(39,41,64,40)          0.33           estimate D2E/DX2                !
 ! D128  D(31,42,45,46)        178.2053         estimate D2E/DX2                !
 ! D129  D(31,42,45,47)        -61.6401         estimate D2E/DX2                !
 ! D130  D(31,42,45,48)         58.6269         estimate D2E/DX2                !
 ! D131  D(43,42,45,46)         58.8775         estimate D2E/DX2                !
 ! D132  D(43,42,45,47)        179.0322         estimate D2E/DX2                !
 ! D133  D(43,42,45,48)        -60.7008         estimate D2E/DX2                !
 ! D134  D(44,42,45,46)        -58.3917         estimate D2E/DX2                !
 ! D135  D(44,42,45,47)         61.7629         estimate D2E/DX2                !
 ! D136  D(44,42,45,48)       -177.97           estimate D2E/DX2                !
 ! D137  D(50,49,59,60)       -177.8845         estimate D2E/DX2                !
 ! D138  D(50,49,59,61)        -58.2943         estimate D2E/DX2                !
 ! D139  D(50,49,59,62)         61.8221         estimate D2E/DX2                !
 ! D140  D(51,49,59,60)        -60.5606         estimate D2E/DX2                !
 ! D141  D(51,49,59,61)         59.0296         estimate D2E/DX2                !
 ! D142  D(51,49,59,62)        179.146          estimate D2E/DX2                !
 ! D143  D(63,49,59,60)         58.7855         estimate D2E/DX2                !
 ! D144  D(63,49,59,61)        178.3757         estimate D2E/DX2                !
 ! D145  D(63,49,59,62)        -61.508          estimate D2E/DX2                !
 ! D146  D(50,49,63,12)        -34.9831         estimate D2E/DX2                !
 ! D147  D(50,49,63,52)        144.8772         estimate D2E/DX2                !
 ! D148  D(51,49,63,12)       -149.443          estimate D2E/DX2                !
 ! D149  D(51,49,63,52)         30.4173         estimate D2E/DX2                !
 ! D150  D(59,49,63,12)         89.2692         estimate D2E/DX2                !
 ! D151  D(59,49,63,52)        -90.8705         estimate D2E/DX2                !
 ! D152  D(53,52,55,56)        -58.3989         estimate D2E/DX2                !
 ! D153  D(53,52,55,57)         61.7661         estimate D2E/DX2                !
 ! D154  D(53,52,55,58)       -178.0124         estimate D2E/DX2                !
 ! D155  D(54,52,55,56)         58.7293         estimate D2E/DX2                !
 ! D156  D(54,52,55,57)        178.8944         estimate D2E/DX2                !
 ! D157  D(54,52,55,58)        -60.8841         estimate D2E/DX2                !
 ! D158  D(63,52,55,56)        177.8911         estimate D2E/DX2                !
 ! D159  D(63,52,55,57)        -61.9439         estimate D2E/DX2                !
 ! D160  D(63,52,55,58)         58.2776         estimate D2E/DX2                !
 ! D161  D(53,52,63,12)        -36.0167         estimate D2E/DX2                !
 ! D162  D(53,52,63,49)        144.1236         estimate D2E/DX2                !
 ! D163  D(54,52,63,12)       -150.3201         estimate D2E/DX2                !
 ! D164  D(54,52,63,49)         29.8202         estimate D2E/DX2                !
 ! D165  D(55,52,63,12)         88.5125         estimate D2E/DX2                !
 ! D166  D(55,52,63,49)        -91.3472         estimate D2E/DX2                !
 --------------------------------------------------------------------------------
 Trust Radius=3.00D-01 FncErr=1.00D-07 GrdErr=1.00D-06
 Number of steps in this run=    362 maximum allowed number of steps=    384.
 GradGradGradGradGradGradGradGradGradGradGradGradGradGradGradGradGradGrad

 Leave Link  103 at Thu Mar 31 18:03:03 2022, MaxMem=  5242880000 cpu:         0.3
 (Enter /opt/nce/packages/global/g09/l202.exe)
 Symmetry turned off by external request.
 Stoichiometry    C28H31N2O3
                          Input orientation:                          
 ---------------------------------------------------------------------
 Center     Atomic      Atomic             Coordinates (Angstroms)
 Number     Number       Type             X           Y           Z
 ---------------------------------------------------------------------
      1          6           0       -3.763479   -1.041014   -0.017309
      2          6           0       -2.535828   -1.728995    0.008177
      3          6           0       -1.361061   -1.050627   -0.183404
      4          6           0       -1.306182    0.340116   -0.422114
      5          6           0       -2.547384    1.017720   -0.437548
      6          6           0       -3.723077    0.368587   -0.246963
      7          6           0       -0.063828    0.961694   -0.582920
      8          6           0        1.094599    0.179347   -0.520826
      9          6           0        0.983191   -1.207108   -0.275805
     10          6           0        2.067750   -2.040343   -0.192083
     11          1           0        1.882045   -3.091850   -0.021402
     12          6           0        3.369170   -1.527840   -0.347929
     13          6           0        3.497465   -0.127594   -0.600022
     14          6           0        2.408550    0.676985   -0.682761
     15          1           0       -2.476870   -2.790848    0.203623
     16          1           0       -2.554729    2.088323   -0.607300
     17          1           0       -4.642342    0.936212   -0.283872
     18          1           0        4.477829    0.311547   -0.718468
     19          1           0        2.547334    1.735031   -0.874017
     20          8           0       -0.228126   -1.780152   -0.120423
     21          6           0        0.021134    2.400823   -0.921149
     22          6           0       -0.266139    2.757235   -2.234872
     23          6           0        0.420318    3.384446   -0.012420
     24          6           0       -0.169260    4.073476   -2.649038
     25          1           0       -0.564693    1.985839   -2.937434
     26          6           0        0.523458    4.700394   -0.447522
     27          6           0        0.225195    5.050342   -1.750921
     28          1           0       -0.400559    4.332406   -3.675880
     29          1           0        0.835530    5.456225    0.263569
     30          1           0        0.301196    6.084582   -2.066224
     31          7           0       -4.932192   -1.679352    0.168922
     32          6           0       -6.208815   -0.977356    0.249617
     33          1           0       -6.069400   -0.015324    0.744961
     34          1           0       -6.850831   -1.564380    0.911445
     35          6           0       -6.863845   -0.809007   -1.101193
     36          1           0       -7.025993   -1.779111   -1.577747
     37          1           0       -7.833627   -0.318359   -0.996574
     38          1           0       -6.245822   -0.203295   -1.768249
     39          6           0        0.721374    3.062146    1.425547
     40          8           0        0.188065    2.041107    1.925087
     41          8           0        1.478689    3.837060    2.056660
     42          6           0       -5.009648   -3.127795    0.315729
     43          1           0       -5.981929   -3.435830   -0.077190
     44          1           0       -4.263245   -3.600164   -0.325515
     45          6           0       -4.859782   -3.575028    1.751680
     46          1           0       -4.954832   -4.660247    1.824446
     47          1           0       -3.885892   -3.290586    2.156876
     48          1           0       -5.632573   -3.125695    2.380431
     49          6           0        4.359834   -3.732868    0.076259
     50          1           0        3.551694   -3.882447    0.794422
     51          1           0        5.282038   -3.996460    0.600626
     52          6           0        5.806595   -1.823738   -0.501517
     53          1           0        5.792172   -1.075788   -1.295725
     54          1           0        6.385544   -2.663618   -0.893395
     55          6           0        6.453760   -1.280659    0.751071
     56          1           0        7.474992   -0.955452    0.542674
     57          1           0        5.898229   -0.426789    1.146354
     58          1           0        6.495628   -2.046871    1.529345
     59          6           0        4.179054   -4.611054   -1.140306
     60          1           0        5.010572   -4.483999   -1.838067
     61          1           0        4.141490   -5.662572   -0.848808
     62          1           0        3.253405   -4.371177   -1.668802
     63          7           0        4.454181   -2.317903   -0.263683
     64          1           0        1.197452    2.530331    3.935625
 ---------------------------------------------------------------------
 Rotational constants (GHZ):      0.1469408      0.0867504      0.0612264
 Leave Link  202 at Thu Mar 31 18:03:03 2022, MaxMem=  5242880000 cpu:         0.0
 (Enter /opt/nce/packages/global/g09/l301.exe)
 Standard basis: def2TZVP (5D, 7F)
 Ernie: Thresh=  0.10000D-02 Tol=  0.10000D-05 Strict=F.
  1209 basis functions,  1931 primitive gaussians,  1374 cartesian basis functions
   118 alpha electrons      118 beta electrons
       nuclear repulsion energy      3330.0865841668 Hartrees.
 IExCor= 4235 DFT=T Ex+Corr=M06 ExCW=0 ScaHFX=  0.270000
 ScaDFX=  1.000000  1.000000  1.000000  1.000000 ScalE2=  1.000000  1.000000
 IRadAn=      5 IRanWt=     -1 IRanGd=            0 ICorTp=0 IEmpDi=  4
 NAtoms=   64 NActive=   64 NUniq=   64 SFac= 1.00D+00 NAtFMM=   60 NAOKFM=T Big=T
 Integral buffers will be    131072 words long.
 Raffenetti 2 integral format.
 Two-electron integral symmetry is turned off.
 ------------------------------------------------------------------------------
 Polarizable Continuum Model (PCM)
 =================================
 Model                : PCM (using non-symmetric T matrix).
 Atomic radii         : SMD-Coulomb.
 Polarization charges : Total charges.
 Charge compensation  : None.
 Solution method      : On-the-fly selection.
 Cavity type          : VdW (van der Waals Surface) (Alpha=1.000).
 Cavity algorithm     : GePol (No added spheres)
                        Default sphere list used, NSphG=   64.
                        Lebedev-Laikov grids with approx.  5.0 points / Ang**2.
                        Smoothing algorithm: York/Karplus (Gamma=1.0000).
                        Polarization charges: spherical gaussians, with
                                              point-specific exponents (IZeta= 3).
                        Self-potential: point-specific (ISelfS= 7).
                        Self-field    : sphere-specific E.n sum rule (ISelfD= 2).
 1st derivatives      : Analytical E(r).r(x)/FMM algorithm (CHGder, D1EAlg=3).
                        Cavity 1st derivative terms included.
 Solvent              : Ethanol, Eps=  24.852000 Eps(inf)=   1.852593
 ------------------------------------------------------------------------------
 GePol: Number of generator spheres                  =      64
 GePol: Total number of spheres                      =      64
 GePol: Number of exposed spheres                    =      64 (100.00%)
 GePol: Number of points                             =    4510
 GePol: Average weight of points                     =       0.11
 GePol: Minimum weight of points                     =   0.29D-10
 GePol: Maximum weight of points                     =    0.21261
 GePol: Number of points with low weight             =     286
 GePol: Fraction of low-weight points (<1% of avg)   =       6.34%
 GePol: Cavity surface area                          =    492.227 Ang**2
 GePol: Cavity volume                                =    464.458 Ang**3
 ------------------------------------------------------------------------------
 Atomic radii for non-electrostatic terms: SMD-CDS.
 ------------------------------------------------------------------------------
 PCM non-electrostatic energy =        -0.0011357921 Hartrees.
 Nuclear repulsion after PCM non-electrostatic terms =     3330.0854483747 Hartrees.
 Leave Link  301 at Thu Mar 31 18:03:03 2022, MaxMem=  5242880000 cpu:         2.4
 (Enter /opt/nce/packages/global/g09/l302.exe)
 NPDir=0 NMtPBC=     1 NCelOv=     1 NCel=       1 NClECP=     1 NCelD=      1
         NCelK=      1 NCelE2=     1 NClLst=     1 CellRange=     0.0.
 One-electron integrals computed using PRISM.
   1 Symmetry operations used in ECPInt.
 ECPInt:  NShTT=  118828 NPrTT=  359100 LenC2=   89977 LenP2D=  184417.
 LDataN:  DoStor=T MaxTD1= 6 Len=  172
 NBasis=  1209 RedAO= T EigKep=  4.36D-06  NBF=  1209
 NBsUse=  1209 1.00D-06 EigRej= -1.00D+00 NBFU=  1209
 Precomputing XC quadrature grid using
 IXCGrd= 4 IRadAn=           5 IRanWt=          -1 IRanGd=           0 AccXCQ= 0.00D+00.
 Generated NRdTot=       0 NPtTot=           0 NUsed=           0 NTot=          32
 NSgBfM=  1306  1307  1307  1310  1310 MxSgAt=    64 MxSgA2=    64.
 Leave Link  302 at Thu Mar 31 18:03:06 2022, MaxMem=  5242880000 cpu:        39.6
 (Enter /opt/nce/packages/global/g09/l303.exe)
 DipDrv:  MaxL=1.
 Leave Link  303 at Thu Mar 31 18:03:07 2022, MaxMem=  5242880000 cpu:         3.6
 (Enter /opt/nce/packages/global/g09/l401.exe)
 ExpMin= 9.52D-02 ExpMax= 2.70D+04 ExpMxC= 9.22D+02 IAcc=3 IRadAn=         5 AccDes= 0.00D+00
 Harris functional with IExCor= 1009 and IRadAn=       5 diagonalized for initial guess.
 HarFok:  IExCor= 1009 AccDes= 0.00D+00 IRadAn=         5 IDoV= 1 UseB2=F ITyADJ=14
 ICtDFT=  3500011 ScaDFX=  1.000000  1.000000  1.000000  1.000000
 FoFCou: FMM=F IPFlag=           0 FMFlag=      100000 FMFlg1=        2001
         NFxFlg=           0 DoJE=T BraDBF=F KetDBF=T FulRan=T
         wScrn=  0.000000 ICntrl=     500 IOpCl=  0 I1Cent=   200000004 NGrid=           0
         NMat0=    1 NMatS0=      1 NMatT0=    0 NMatD0=    1 NMtDS0=    0 NMtDT0=    0
 Symmetry not used in FoFCou.
 Harris En= -1419.84288724164    
 JPrj=0 DoOrth=F DoCkMO=F.
 Leave Link  401 at Thu Mar 31 18:03:20 2022, MaxMem=  5242880000 cpu:       157.3
 (Enter /opt/nce/packages/global/g09/l502.exe)
 Closed shell SCF:
 Using DIIS extrapolation, IDIIS=  1040.
 Two-electron integral symmetry not used.
 IVT=     5707038 IEndB=     5707038 NGot=  5242880000 MDV=  5239078853
 LenX=  5239078853 LenY=  5237189603
 Requested convergence on RMS density matrix=1.00D-08 within 128 cycles.
 Requested convergence on MAX density matrix=1.00D-06.
 Requested convergence on             energy=1.00D-06.
 No special actions if energy rises.
 Fock matrices will be formed incrementally for  20 cycles.

 Cycle   1  Pass 1  IDiag  1:
 FoFJK:  IHMeth= 1 ICntrl=       0 DoSepK=F KAlg= 0 I1Cent=   0 FoldK=F
 IRaf= 720000000 NMat=   1 IRICut=       1 DoRegI=T DoRafI=F ISym2E= 0.
 FoFCou: FMM=T IPFlag=           0 FMFlag=      100000 FMFlg1=        2001
         NFxFlg=           0 DoJE=F BraDBF=F KetDBF=F FulRan=T
         wScrn=  0.000000 ICntrl=       0 IOpCl=  0 I1Cent=           0 NGrid=           0
         NMat0=    1 NMatS0=      1 NMatT0=    0 NMatD0=    1 NMtDS0=    0 NMtDT0=    0
 Symmetry not used in FoFCou.
 FMM levels:  10  Number of levels for PrismC:   9
 Inv3:  Mode=1 IEnd=    61020300.
 Iteration    1 A*A^-1 deviation from unit magnitude is 7.77D-15 for   4480.
 Iteration    1 A*A^-1 deviation from orthogonality  is 5.33D-15 for   2827   2099.
 Iteration    1 A^-1*A deviation from unit magnitude is 7.99D-15 for   4480.
 Iteration    1 A^-1*A deviation from orthogonality  is 1.58D-10 for   3624   3565.
 Iteration    2 A*A^-1 deviation from unit magnitude is 2.66D-15 for     75.
 Iteration    2 A*A^-1 deviation from orthogonality  is 3.33D-15 for   3999    610.
 Iteration    2 A^-1*A deviation from unit magnitude is 8.88D-16 for    506.
 Iteration    2 A^-1*A deviation from orthogonality  is 4.44D-16 for   2539    963.
 E= -1419.31453551026    
 DIIS: error= 1.85D-02 at cycle   1 NSaved=   1.
 NSaved= 1 IEnMin= 1 EnMin= -1419.31453551026     IErMin= 1 ErrMin= 1.85D-02
 ErrMax= 1.85D-02  0.00D+00 EMaxC= 1.00D-01 BMatC= 7.80D-01 BMatP= 7.80D-01
 IDIUse=3 WtCom= 8.15D-01 WtEn= 1.85D-01
 Coeff-Com:  0.100D+01
 Coeff-En:   0.100D+01
 Coeff:      0.100D+01
 Gap=     0.106 Goal=   None    Shift=    0.000
 GapD=    0.106 DampG=1.000 DampE=0.500 DampFc=0.5000 IDamp=-1.
 Damping current iteration by 5.00D-01
 RMSDP=5.26D-03 MaxDP=1.12D+00              OVMax= 5.61D-01

 Cycle   2  Pass 1  IDiag  1:
 RMSU=  2.60D-03    CP:  1.08D+00
 E= -1419.61165465971     Delta-E=       -0.297119149448 Rises=F Damp=T
 DIIS: error= 5.22D-03 at cycle   2 NSaved=   2.
 NSaved= 2 IEnMin= 2 EnMin= -1419.61165465971     IErMin= 2 ErrMin= 5.22D-03
 ErrMax= 5.22D-03  0.00D+00 EMaxC= 1.00D-01 BMatC= 7.28D-02 BMatP= 7.80D-01
 IDIUse=3 WtCom= 9.48D-01 WtEn= 5.22D-02
 Coeff-Com:  0.122D+00 0.878D+00
 Coeff-En:   0.195D+00 0.805D+00
 Coeff:      0.126D+00 0.874D+00
 Gap=     0.108 Goal=   None    Shift=    0.000
 RMSDP=2.20D-03 MaxDP=4.12D-01 DE=-2.97D-01 OVMax= 2.78D-01

 Cycle   3  Pass 1  IDiag  1:
 RMSU=  1.57D-03    CP:  1.02D+00  4.19D-01
 E= -1420.00268166242     Delta-E=       -0.391027002717 Rises=F Damp=F
 DIIS: error= 6.30D-03 at cycle   3 NSaved=   3.
 NSaved= 3 IEnMin= 3 EnMin= -1420.00268166242     IErMin= 2 ErrMin= 5.22D-03
 ErrMax= 6.30D-03  0.00D+00 EMaxC= 1.00D-01 BMatC= 7.57D-02 BMatP= 7.28D-02
 IDIUse=3 WtCom= 9.37D-01 WtEn= 6.30D-02
 Coeff-Com:  0.102D-01 0.504D+00 0.486D+00
 Coeff-En:   0.000D+00 0.000D+00 0.100D+01
 Coeff:      0.954D-02 0.472D+00 0.518D+00
 Gap=     0.037 Goal=   None    Shift=    0.000
 RMSDP=6.81D-04 MaxDP=9.24D-02 DE=-3.91D-01 OVMax= 1.65D-01

 Cycle   4  Pass 1  IDiag  1:
 RMSU=  5.08D-04    CP:  1.04D+00  5.72D-01  8.75D-01
 E= -1420.05763007351     Delta-E=       -0.054948411086 Rises=F Damp=F
 DIIS: error= 1.92D-03 at cycle   4 NSaved=   4.
 NSaved= 4 IEnMin= 4 EnMin= -1420.05763007351     IErMin= 4 ErrMin= 1.92D-03
 ErrMax= 1.92D-03  0.00D+00 EMaxC= 1.00D-01 BMatC= 9.92D-03 BMatP= 7.28D-02
 IDIUse=3 WtCom= 9.81D-01 WtEn= 1.92D-02
 Coeff-Com: -0.914D-02 0.111D+00 0.285D+00 0.613D+00
 Coeff-En:   0.000D+00 0.000D+00 0.914D-01 0.909D+00
 Coeff:     -0.897D-02 0.109D+00 0.281D+00 0.618D+00
 Gap=     0.036 Goal=   None    Shift=    0.000
 RMSDP=1.96D-04 MaxDP=3.52D-02 DE=-5.49D-02 OVMax= 2.75D-02

 Cycle   5  Pass 1  IDiag  1:
 RMSU=  1.17D-04    CP:  1.03D+00  5.21D-01  9.14D-01  8.97D-01
 E= -1420.06436875355     Delta-E=       -0.006738680041 Rises=F Damp=F
 DIIS: error= 6.21D-04 at cycle   5 NSaved=   5.
 NSaved= 5 IEnMin= 5 EnMin= -1420.06436875355     IErMin= 5 ErrMin= 6.21D-04
 ErrMax= 6.21D-04  0.00D+00 EMaxC= 1.00D-01 BMatC= 9.80D-04 BMatP= 9.92D-03
 IDIUse=3 WtCom= 9.94D-01 WtEn= 6.21D-03
 Coeff-Com: -0.449D-02 0.281D-01 0.130D+00 0.350D+00 0.495D+00
 Coeff-En:   0.000D+00 0.000D+00 0.000D+00 0.166D-02 0.998D+00
 Coeff:     -0.446D-02 0.280D-01 0.130D+00 0.348D+00 0.499D+00
 Gap=     0.035 Goal=   None    Shift=    0.000
 RMSDP=6.30D-05 MaxDP=5.72D-03 DE=-6.74D-03 OVMax= 1.81D-02

 Cycle   6  Pass 1  IDiag  1:
 RMSU=  5.66D-05    CP:  1.04D+00  5.29D-01  9.13D-01  9.00D-01  8.52D-01
 E= -1420.06488011855     Delta-E=       -0.000511364995 Rises=F Damp=F
 DIIS: error= 5.34D-04 at cycle   6 NSaved=   6.
 NSaved= 6 IEnMin= 6 EnMin= -1420.06488011855     IErMin= 6 ErrMin= 5.34D-04
 ErrMax= 5.34D-04  0.00D+00 EMaxC= 1.00D-01 BMatC= 4.67D-04 BMatP= 9.80D-04
 IDIUse=3 WtCom= 9.95D-01 WtEn= 5.34D-03
 Coeff-Com: -0.796D-03 0.232D-03 0.490D-01 0.144D+00 0.395D+00 0.413D+00
 Coeff-En:   0.000D+00 0.000D+00 0.000D+00 0.000D+00 0.320D+00 0.680D+00
 Coeff:     -0.791D-03 0.230D-03 0.487D-01 0.143D+00 0.394D+00 0.415D+00
 Gap=     0.035 Goal=   None    Shift=    0.000
 RMSDP=3.08D-05 MaxDP=2.68D-03 DE=-5.11D-04 OVMax= 9.76D-03

 Cycle   7  Pass 1  IDiag  1:
 RMSU=  2.33D-05    CP:  1.03D+00  5.26D-01  9.17D-01  8.91D-01  9.32D-01
                    CP:  7.47D-01
 E= -1420.06520651746     Delta-E=       -0.000326398911 Rises=F Damp=F
 DIIS: error= 1.72D-04 at cycle   7 NSaved=   7.
 NSaved= 7 IEnMin= 7 EnMin= -1420.06520651746     IErMin= 7 ErrMin= 1.72D-04
 ErrMax= 1.72D-04  0.00D+00 EMaxC= 1.00D-01 BMatC= 4.33D-05 BMatP= 4.67D-04
 IDIUse=3 WtCom= 9.98D-01 WtEn= 1.72D-03
 Coeff-Com:  0.995D-03-0.416D-02 0.122D-01 0.248D-01 0.171D+00 0.266D+00
 Coeff-Com:  0.529D+00
 Coeff-En:   0.000D+00 0.000D+00 0.000D+00 0.000D+00 0.000D+00 0.246D-01
 Coeff-En:   0.975D+00
 Coeff:      0.993D-03-0.416D-02 0.122D-01 0.248D-01 0.171D+00 0.265D+00
 Coeff:      0.530D+00
 Gap=     0.035 Goal=   None    Shift=    0.000
 RMSDP=1.81D-05 MaxDP=2.65D-03 DE=-3.26D-04 OVMax= 1.64D-03

 Cycle   8  Pass 1  IDiag  1:
 RMSU=  1.37D-05    CP:  1.03D+00  5.22D-01  9.17D-01  8.80D-01  9.39D-01
                    CP:  6.92D-01  9.94D-01
 E= -1420.06523990107     Delta-E=       -0.000033383611 Rises=F Damp=F
 DIIS: error= 2.98D-05 at cycle   8 NSaved=   8.
 NSaved= 8 IEnMin= 8 EnMin= -1420.06523990107     IErMin= 8 ErrMin= 2.98D-05
 ErrMax= 2.98D-05  0.00D+00 EMaxC= 1.00D-01 BMatC= 4.11D-06 BMatP= 4.33D-05
 IDIUse=1 WtCom= 1.00D+00 WtEn= 0.00D+00
 Coeff-Com:  0.869D-03-0.291D-02 0.122D-02-0.709D-02 0.411D-01 0.869D-01
 Coeff-Com:  0.263D+00 0.617D+00
 Coeff:      0.869D-03-0.291D-02 0.122D-02-0.709D-02 0.411D-01 0.869D-01
 Coeff:      0.263D+00 0.617D+00
 Gap=     0.036 Goal=   None    Shift=    0.000
 RMSDP=4.92D-06 MaxDP=7.22D-04 DE=-3.34D-05 OVMax= 4.91D-04

 Cycle   9  Pass 1  IDiag  1:
 RMSU=  3.25D-06    CP:  1.03D+00  5.21D-01  9.17D-01  8.78D-01  9.44D-01
                    CP:  6.90D-01  1.06D+00  1.15D+00
 E= -1420.06524306850     Delta-E=       -0.000003167426 Rises=F Damp=F
 DIIS: error= 1.57D-05 at cycle   9 NSaved=   9.
 NSaved= 9 IEnMin= 9 EnMin= -1420.06524306850     IErMin= 9 ErrMin= 1.57D-05
 ErrMax= 1.57D-05  0.00D+00 EMaxC= 1.00D-01 BMatC= 6.56D-07 BMatP= 4.11D-06
 IDIUse=1 WtCom= 1.00D+00 WtEn= 0.00D+00
 Coeff-Com:  0.318D-03-0.853D-03-0.989D-03-0.777D-02-0.876D-02-0.362D-02
 Coeff-Com:  0.234D-01 0.321D+00 0.678D+00
 Coeff:      0.318D-03-0.853D-03-0.989D-03-0.777D-02-0.876D-02-0.362D-02
 Coeff:      0.234D-01 0.321D+00 0.678D+00
 Gap=     0.036 Goal=   None    Shift=    0.000
 RMSDP=3.17D-06 MaxDP=4.65D-04 DE=-3.17D-06 OVMax= 2.70D-04

 Cycle  10  Pass 1  IDiag  1:
 RMSU=  1.16D-06    CP:  1.03D+00  5.21D-01  9.18D-01  8.76D-01  9.44D-01
                    CP:  6.83D-01  1.09D+00  1.30D+00  1.06D+00
 E= -1420.06524369945     Delta-E=       -0.000000630951 Rises=F Damp=F
 DIIS: error= 5.80D-06 at cycle  10 NSaved=  10.
 NSaved=10 IEnMin=10 EnMin= -1420.06524369945     IErMin=10 ErrMin= 5.80D-06
 ErrMax= 5.80D-06  0.00D+00 EMaxC= 1.00D-01 BMatC= 7.07D-08 BMatP= 6.56D-07
 IDIUse=1 WtCom= 1.00D+00 WtEn= 0.00D+00
 Coeff-Com:  0.601D-04-0.112D-03-0.429D-03-0.232D-02-0.703D-02-0.867D-02
 Coeff-Com: -0.168D-01 0.872D-01 0.332D+00 0.616D+00
 Coeff:      0.601D-04-0.112D-03-0.429D-03-0.232D-02-0.703D-02-0.867D-02
 Coeff:     -0.168D-01 0.872D-01 0.332D+00 0.616D+00
 Gap=     0.036 Goal=   None    Shift=    0.000
 RMSDP=5.70D-07 MaxDP=6.60D-05 DE=-6.31D-07 OVMax= 1.42D-04

 Cycle  11  Pass 1  IDiag  1:
 RMSU=  4.37D-07    CP:  1.03D+00  5.21D-01  9.18D-01  8.75D-01  9.43D-01
                    CP:  6.85D-01  1.10D+00  1.31D+00  1.13D+00  1.05D+00
 E= -1420.06524376102     Delta-E=       -0.000000061570 Rises=F Damp=F
 DIIS: error= 2.28D-06 at cycle  11 NSaved=  11.
 NSaved=11 IEnMin=11 EnMin= -1420.06524376102     IErMin=11 ErrMin= 2.28D-06
 ErrMax= 2.28D-06  0.00D+00 EMaxC= 1.00D-01 BMatC= 1.83D-08 BMatP= 7.07D-08
 IDIUse=1 WtCom= 1.00D+00 WtEn= 0.00D+00
 Coeff-Com: -0.250D-04 0.664D-04-0.792D-04 0.120D-03-0.242D-02-0.382D-02
 Coeff-Com: -0.139D-01-0.549D-02 0.713D-01 0.370D+00 0.584D+00
 Coeff:     -0.250D-04 0.664D-04-0.792D-04 0.120D-03-0.242D-02-0.382D-02
 Coeff:     -0.139D-01-0.549D-02 0.713D-01 0.370D+00 0.584D+00
 Gap=     0.036 Goal=   None    Shift=    0.000
 RMSDP=3.16D-07 MaxDP=6.71D-05 DE=-6.16D-08 OVMax= 5.22D-05

 Cycle  12  Pass 1  IDiag  1:
 RMSU=  1.72D-07    CP:  1.03D+00  5.21D-01  9.18D-01  8.75D-01  9.43D-01
                    CP:  6.83D-01  1.10D+00  1.33D+00  1.15D+00  1.12D+00
                    CP:  9.24D-01
 E= -1420.06524377909     Delta-E=       -0.000000018074 Rises=F Damp=F
 DIIS: error= 6.68D-07 at cycle  12 NSaved=  12.
 NSaved=12 IEnMin=12 EnMin= -1420.06524377909     IErMin=12 ErrMin= 6.68D-07
 ErrMax= 6.68D-07  0.00D+00 EMaxC= 1.00D-01 BMatC= 1.93D-09 BMatP= 1.83D-08
 IDIUse=1 WtCom= 1.00D+00 WtEn= 0.00D+00
 Coeff-Com: -0.192D-04 0.547D-04 0.534D-05 0.301D-03-0.686D-03-0.110D-02
 Coeff-Com: -0.673D-02-0.106D-01 0.797D-02 0.147D+00 0.318D+00 0.546D+00
 Coeff:     -0.192D-04 0.547D-04 0.534D-05 0.301D-03-0.686D-03-0.110D-02
 Coeff:     -0.673D-02-0.106D-01 0.797D-02 0.147D+00 0.318D+00 0.546D+00
 Gap=     0.036 Goal=   None    Shift=    0.000
 RMSDP=7.60D-08 MaxDP=1.11D-05 DE=-1.81D-08 OVMax= 1.45D-05

 Cycle  13  Pass 1  IDiag  1:
 RMSU=  4.76D-08    CP:  1.03D+00  5.21D-01  9.18D-01  8.75D-01  9.43D-01
                    CP:  6.83D-01  1.10D+00  1.33D+00  1.15D+00  1.14D+00
                    CP:  9.91D-01  1.03D+00
 E= -1420.06524378084     Delta-E=       -0.000000001751 Rises=F Damp=F
 DIIS: error= 2.64D-07 at cycle  13 NSaved=  13.
 NSaved=13 IEnMin=13 EnMin= -1420.06524378084     IErMin=13 ErrMin= 2.64D-07
 ErrMax= 2.64D-07  0.00D+00 EMaxC= 1.00D-01 BMatC= 2.28D-10 BMatP= 1.93D-09
 IDIUse=1 WtCom= 1.00D+00 WtEn= 0.00D+00
 Coeff-Com: -0.365D-05 0.107D-04 0.137D-04 0.848D-04 0.678D-04 0.338D-03
 Coeff-Com: -0.728D-03-0.279D-02-0.111D-01-0.920D-02 0.201D-01 0.234D+00
 Coeff-Com:  0.769D+00
 Coeff:     -0.365D-05 0.107D-04 0.137D-04 0.848D-04 0.678D-04 0.338D-03
 Coeff:     -0.728D-03-0.279D-02-0.111D-01-0.920D-02 0.201D-01 0.234D+00
 Coeff:      0.769D+00
 Gap=     0.036 Goal=   None    Shift=    0.000
 RMSDP=5.45D-08 MaxDP=7.82D-06 DE=-1.75D-09 OVMax= 1.12D-05

 Cycle  14  Pass 1  IDiag  1:
 RMSU=  2.55D-08    CP:  1.03D+00  5.21D-01  9.18D-01  8.75D-01  9.43D-01
                    CP:  6.83D-01  1.10D+00  1.33D+00  1.16D+00  1.15D+00
                    CP:  1.03D+00  1.15D+00  1.27D+00
 E= -1420.06524378113     Delta-E=       -0.000000000284 Rises=F Damp=F
 DIIS: error= 1.03D-07 at cycle  14 NSaved=  14.
 NSaved=14 IEnMin=14 EnMin= -1420.06524378113     IErMin=14 ErrMin= 1.03D-07
 ErrMax= 1.03D-07  0.00D+00 EMaxC= 1.00D-01 BMatC= 3.03D-11 BMatP= 2.28D-10
 IDIUse=1 WtCom= 1.00D+00 WtEn= 0.00D+00
 Coeff-Com: -0.208D-06 0.134D-05 0.599D-05 0.968D-05 0.604D-04 0.294D-03
 Coeff-Com:  0.173D-03-0.224D-03-0.578D-02-0.166D-01-0.200D-01 0.533D-01
 Coeff-Com:  0.323D+00 0.666D+00
 Coeff:     -0.208D-06 0.134D-05 0.599D-05 0.968D-05 0.604D-04 0.294D-03
 Coeff:      0.173D-03-0.224D-03-0.578D-02-0.166D-01-0.200D-01 0.533D-01
 Coeff:      0.323D+00 0.666D+00
 Gap=     0.036 Goal=   None    Shift=    0.000
 RMSDP=1.50D-08 MaxDP=1.66D-06 DE=-2.84D-10 OVMax= 6.56D-06

 Cycle  15  Pass 1  IDiag  1:
 RMSU=  9.56D-09    CP:  1.03D+00  5.21D-01  9.18D-01  8.75D-01  9.43D-01
                    CP:  6.83D-01  1.10D+00  1.33D+00  1.16D+00  1.15D+00
                    CP:  1.04D+00  1.18D+00  1.39D+00  1.19D+00
 E= -1420.06524378111     Delta-E=        0.000000000011 Rises=F Damp=F
 DIIS: error= 5.35D-08 at cycle  15 NSaved=  15.
 NSaved=15 IEnMin=14 EnMin= -1420.06524378113     IErMin=15 ErrMin= 5.35D-08
 ErrMax= 5.35D-08  0.00D+00 EMaxC= 1.00D-01 BMatC= 8.80D-12 BMatP= 3.03D-11
 IDIUse=1 WtCom= 1.00D+00 WtEn= 0.00D+00
 Coeff-Com:  0.535D-06-0.137D-05-0.604D-06-0.148D-04-0.325D-05 0.110D-03
 Coeff-Com:  0.200D-03 0.570D-03-0.644D-03-0.663D-02-0.154D-01-0.217D-01
 Coeff-Com:  0.762D-02 0.373D+00 0.662D+00
 Coeff:      0.535D-06-0.137D-05-0.604D-06-0.148D-04-0.325D-05 0.110D-03
 Coeff:      0.200D-03 0.570D-03-0.644D-03-0.663D-02-0.154D-01-0.217D-01
 Coeff:      0.762D-02 0.373D+00 0.662D+00
 Gap=     0.036 Goal=   None    Shift=    0.000
 RMSDP=1.17D-08 MaxDP=7.49D-07 DE= 1.09D-11 OVMax= 5.12D-06

 Cycle  16  Pass 1  IDiag  1:
 RMSU=  7.09D-09    CP:  1.03D+00  5.21D-01  9.18D-01  8.75D-01  9.43D-01
                    CP:  6.83D-01  1.10D+00  1.33D+00  1.16D+00  1.15D+00
                    CP:  1.04D+00  1.19D+00  1.45D+00  1.39D+00  1.45D+00
 E= -1420.06524378107     Delta-E=        0.000000000042 Rises=F Damp=F
 DIIS: error= 2.36D-08 at cycle  16 NSaved=  16.
 NSaved=16 IEnMin=14 EnMin= -1420.06524378113     IErMin=16 ErrMin= 2.36D-08
 ErrMax= 2.36D-08  0.00D+00 EMaxC= 1.00D-01 BMatC= 1.32D-12 BMatP= 8.80D-12
 IDIUse=1 WtCom= 1.00D+00 WtEn= 0.00D+00
 Coeff-Com:  0.224D-06-0.901D-06-0.132D-05-0.811D-05-0.134D-04 0.290D-04
 Coeff-Com:  0.661D-04 0.331D-03 0.452D-03-0.659D-03-0.444D-02-0.172D-01
 Coeff-Com: -0.431D-01 0.829D-01 0.307D+00 0.675D+00
 Coeff:      0.224D-06-0.901D-06-0.132D-05-0.811D-05-0.134D-04 0.290D-04
 Coeff:      0.661D-04 0.331D-03 0.452D-03-0.659D-03-0.444D-02-0.172D-01
 Coeff:     -0.431D-01 0.829D-01 0.307D+00 0.675D+00
 Gap=     0.036 Goal=   None    Shift=    0.000
 RMSDP=1.06D-08 MaxDP=5.56D-07 DE= 4.18D-11 OVMax= 3.52D-06

 Cycle  17  Pass 1  IDiag  1:
 RMSU=  6.16D-09    CP:  1.03D+00  5.21D-01  9.18D-01  8.75D-01  9.43D-01
                    CP:  6.83D-01  1.10D+00  1.33D+00  1.16D+00  1.16D+00
                    CP:  1.05D+00  1.20D+00  1.48D+00  1.47D+00  1.98D+00
                    CP:  1.81D+00
 E= -1420.06524378111     Delta-E=       -0.000000000033 Rises=F Damp=F
 DIIS: error= 1.05D-08 at cycle  17 NSaved=  17.
 NSaved=17 IEnMin=14 EnMin= -1420.06524378113     IErMin=17 ErrMin= 1.05D-08
 ErrMax= 1.05D-08  0.00D+00 EMaxC= 1.00D-01 BMatC= 3.26D-13 BMatP= 1.32D-12
 IDIUse=1 WtCom= 1.00D+00 WtEn= 0.00D+00
 Coeff-Com:  0.444D-07-0.277D-06-0.697D-06-0.212D-05-0.916D-05 0.962D-06
 Coeff-Com: -0.532D-05 0.982D-04 0.353D-03 0.922D-03 0.339D-03-0.518D-02
 Coeff-Com: -0.259D-01-0.262D-01 0.300D-01 0.370D+00 0.655D+00
 Coeff:      0.444D-07-0.277D-06-0.697D-06-0.212D-05-0.916D-05 0.962D-06
 Coeff:     -0.532D-05 0.982D-04 0.353D-03 0.922D-03 0.339D-03-0.518D-02
 Coeff:     -0.259D-01-0.262D-01 0.300D-01 0.370D+00 0.655D+00
 Gap=     0.036 Goal=   None    Shift=    0.000
 RMSDP=1.39D-08 MaxDP=7.55D-07 DE=-3.27D-11 OVMax= 2.56D-06

 Cycle  18  Pass 1  IDiag  1:
 RMSU=  4.94D-09    CP:  1.03D+00  5.21D-01  9.18D-01  8.75D-01  9.43D-01
                    CP:  6.83D-01  1.10D+00  1.33D+00  1.16D+00  1.16D+00
                    CP:  1.05D+00  1.20D+00  1.50D+00  1.53D+00  2.45D+00
                    CP:  2.95D+00  2.36D+00
 E= -1420.06524378115     Delta-E=       -0.000000000044 Rises=F Damp=F
 DIIS: error= 1.67D-08 at cycle  18 NSaved=  18.
 NSaved=18 IEnMin=18 EnMin= -1420.06524378115     IErMin=17 ErrMin= 1.05D-08
 ErrMax= 1.67D-08  0.00D+00 EMaxC= 1.00D-01 BMatC= 1.18D-13 BMatP= 3.26D-13
 IDIUse=1 WtCom= 1.00D+00 WtEn= 0.00D+00
 Coeff-Com:  0.378D-07-0.220D-06-0.526D-06-0.168D-05-0.740D-05 0.122D-05
 Coeff-Com: -0.578D-05 0.766D-04 0.266D-03 0.732D-03 0.304D-03-0.382D-02
 Coeff-Com: -0.198D-01-0.207D-01 0.178D-01 0.281D+00 0.504D+00 0.240D+00
 Coeff:      0.378D-07-0.220D-06-0.526D-06-0.168D-05-0.740D-05 0.122D-05
 Coeff:     -0.578D-05 0.766D-04 0.266D-03 0.732D-03 0.304D-03-0.382D-02
 Coeff:     -0.198D-01-0.207D-01 0.178D-01 0.281D+00 0.504D+00 0.240D+00
 Gap=     0.036 Goal=   None    Shift=    0.000
 RMSDP=6.51D-09 MaxDP=3.28D-07 DE=-4.37D-11 OVMax= 4.99D-07

 Error on total polarization charges =  0.07482
 SCF Done:  E(RM06) =  -1420.06524378     A.U. after   18 cycles
            NFock= 18  Conv=0.65D-08     -V/T= 2.0050
 KE= 1.413041073362D+03 PE=-9.940801210511D+03 EE= 3.777609444993D+03
 SMD-CDS (non-electrostatic) energy       (kcal/mol) =      -0.71
 (included in total energy above)
 Leave Link  502 at Thu Mar 31 18:47:22 2022, MaxMem=  5242880000 cpu:     31586.9
 (Enter /opt/nce/packages/global/g09/l601.exe)
 Copying SCF densities to generalized density rwf, IOpCl= 0 IROHF=0.

 **********************************************************************

            Population analysis using the SCF density.

 **********************************************************************

 Alpha  occ. eigenvalues --  -19.29765 -19.22462 -19.22212 -14.43121 -14.43035
 Alpha  occ. eigenvalues --  -10.37443 -10.33562 -10.33542 -10.31360 -10.31307
 Alpha  occ. eigenvalues --  -10.30554 -10.27809 -10.27745 -10.27273 -10.27255
 Alpha  occ. eigenvalues --  -10.27236 -10.27226 -10.26713 -10.26662 -10.26249
 Alpha  occ. eigenvalues --  -10.26239 -10.25667 -10.25607 -10.25476 -10.25118
 Alpha  occ. eigenvalues --  -10.25030 -10.24989 -10.24440 -10.24405 -10.22642
 Alpha  occ. eigenvalues --  -10.22639 -10.22635 -10.22613  -1.16075  -1.11028
 Alpha  occ. eigenvalues --   -1.02240  -0.99124  -0.99048  -0.91478  -0.89582
 Alpha  occ. eigenvalues --   -0.88699  -0.84203  -0.81126  -0.79417  -0.79181
 Alpha  occ. eigenvalues --   -0.79060  -0.78580  -0.78329  -0.76603  -0.75445
 Alpha  occ. eigenvalues --   -0.73569  -0.69606  -0.68814  -0.67517  -0.65954
 Alpha  occ. eigenvalues --   -0.65732  -0.65058  -0.64187  -0.62605  -0.61711
 Alpha  occ. eigenvalues --   -0.61481  -0.57870  -0.56792  -0.56556  -0.55202
 Alpha  occ. eigenvalues --   -0.53503  -0.52892  -0.52753  -0.52003  -0.51029
 Alpha  occ. eigenvalues --   -0.50830  -0.50012  -0.49719  -0.49187  -0.47806
 Alpha  occ. eigenvalues --   -0.47429  -0.47236  -0.46885  -0.46740  -0.46166
 Alpha  occ. eigenvalues --   -0.45792  -0.45065  -0.44786  -0.44633  -0.44605
 Alpha  occ. eigenvalues --   -0.44354  -0.43728  -0.43510  -0.41476  -0.41440
 Alpha  occ. eigenvalues --   -0.40669  -0.40434  -0.40360  -0.39988  -0.39705
 Alpha  occ. eigenvalues --   -0.39228  -0.38942  -0.38901  -0.38617  -0.38070
 Alpha  occ. eigenvalues --   -0.37430  -0.37002  -0.36169  -0.36026  -0.35910
 Alpha  occ. eigenvalues --   -0.35768  -0.34912  -0.34814  -0.33251  -0.33073
 Alpha  occ. eigenvalues --   -0.32516  -0.31073  -0.29860  -0.28472  -0.28445
 Alpha  occ. eigenvalues --   -0.27095  -0.24985  -0.21839
 Alpha virt. eigenvalues --   -0.18275  -0.09817  -0.05060  -0.02913  -0.01997
 Alpha virt. eigenvalues --   -0.00911  -0.00750   0.03499   0.03719   0.04156
 Alpha virt. eigenvalues --    0.04883   0.05054   0.05274   0.05913   0.06105
 Alpha virt. eigenvalues --    0.06627   0.06793   0.07092   0.07669   0.07846
 Alpha virt. eigenvalues --    0.08122   0.08417   0.09425   0.09451   0.09701
 Alpha virt. eigenvalues --    0.09926   0.10047   0.10255   0.10534   0.10836
 Alpha virt. eigenvalues --    0.11234   0.11539   0.12070   0.12228   0.12728
 Alpha virt. eigenvalues --    0.12785   0.13087   0.13529   0.13766   0.13872
 Alpha virt. eigenvalues --    0.14078   0.14107   0.14585   0.14743   0.15076
 Alpha virt. eigenvalues --    0.15272   0.15859   0.16066   0.16586   0.16782
 Alpha virt. eigenvalues --    0.16868   0.17964   0.18313   0.18751   0.18996
 Alpha virt. eigenvalues --    0.19397   0.19782   0.19832   0.20101   0.20218
 Alpha virt. eigenvalues --    0.20651   0.20895   0.21473   0.21595   0.21899
 Alpha virt. eigenvalues --    0.22351   0.22502   0.22681   0.22952   0.23365
 Alpha virt. eigenvalues --    0.23659   0.24236   0.24421   0.24741   0.24812
 Alpha virt. eigenvalues --    0.24854   0.25140   0.25260   0.25531   0.25693
 Alpha virt. eigenvalues --    0.26005   0.26236   0.26563   0.27744   0.27859
 Alpha virt. eigenvalues --    0.28290   0.28394   0.28701   0.28914   0.29032
 Alpha virt. eigenvalues --    0.29196   0.29311   0.29571   0.30091   0.30498
 Alpha virt. eigenvalues --    0.31078   0.31212   0.31718   0.31917   0.32179
 Alpha virt. eigenvalues --    0.32260   0.32341   0.32809   0.33137   0.33704
 Alpha virt. eigenvalues --    0.34016   0.34179   0.34512   0.34609   0.35225
 Alpha virt. eigenvalues --    0.35356   0.35397   0.36005   0.36390   0.36813
 Alpha virt. eigenvalues --    0.37020   0.37295   0.37376   0.37483   0.37905
 Alpha virt. eigenvalues --    0.38111   0.38453   0.38664   0.38820   0.38889
 Alpha virt. eigenvalues --    0.39510   0.39740   0.40149   0.40309   0.40474
 Alpha virt. eigenvalues --    0.40683   0.40778   0.40915   0.40993   0.41141
 Alpha virt. eigenvalues --    0.41356   0.41636   0.41695   0.42102   0.42214
 Alpha virt. eigenvalues --    0.42341   0.42667   0.42846   0.42940   0.43248
 Alpha virt. eigenvalues --    0.43309   0.43477   0.43685   0.43879   0.44319
 Alpha virt. eigenvalues --    0.44664   0.44785   0.45122   0.45185   0.45382
 Alpha virt. eigenvalues --    0.45614   0.45896   0.46431   0.46571   0.46881
 Alpha virt. eigenvalues --    0.47641   0.47984   0.48133   0.48677   0.48761
 Alpha virt. eigenvalues --    0.48906   0.49139   0.49625   0.50225   0.50381
 Alpha virt. eigenvalues --    0.51041   0.51290   0.51589   0.51811   0.52360
 Alpha virt. eigenvalues --    0.52818   0.53738   0.54170   0.54535   0.55392
 Alpha virt. eigenvalues --    0.55946   0.56395   0.56662   0.56757   0.57287
 Alpha virt. eigenvalues --    0.57708   0.57870   0.58141   0.58662   0.58755
 Alpha virt. eigenvalues --    0.59476   0.59653   0.59921   0.60311   0.60650
 Alpha virt. eigenvalues --    0.61038   0.62093   0.62592   0.62794   0.62918
 Alpha virt. eigenvalues --    0.63192   0.63437   0.63622   0.64159   0.64538
 Alpha virt. eigenvalues --    0.65210   0.65465   0.65638   0.65998   0.66561
 Alpha virt. eigenvalues --    0.66720   0.66942   0.67586   0.67874   0.68270
 Alpha virt. eigenvalues --    0.68568   0.68955   0.69289   0.69483   0.69729
 Alpha virt. eigenvalues --    0.70009   0.70348   0.70579   0.71101   0.71298
 Alpha virt. eigenvalues --    0.72554   0.72864   0.72977   0.73608   0.73840
 Alpha virt. eigenvalues --    0.74838   0.75207   0.75885   0.76297   0.76527
 Alpha virt. eigenvalues --    0.76722   0.77166   0.77865   0.78608   0.78775
 Alpha virt. eigenvalues --    0.79138   0.79384   0.79459   0.80016   0.80290
 Alpha virt. eigenvalues --    0.80503   0.81235   0.81505   0.81685   0.82306
 Alpha virt. eigenvalues --    0.82573   0.82781   0.83180   0.83478   0.83798
 Alpha virt. eigenvalues --    0.84708   0.85039   0.85335   0.86121   0.86200
 Alpha virt. eigenvalues --    0.87366   0.87615   0.87997   0.88659   0.89060
 Alpha virt. eigenvalues --    0.89395   0.89830   0.90645   0.91471   0.91724
 Alpha virt. eigenvalues --    0.92426   0.92647   0.93224   0.93682   0.94298
[...]
 Alpha virt. eigenvalues --    1.18032   1.18148   1.18390   1.19087   1.19832
 Alpha virt. eigenvalues --    1.19920   1.21088   1.21678   1.22238   1.22897
 Alpha virt. eigenvalues --    1.23361   1.23905   1.24196   1.24414   1.25160
 Alpha virt. eigenvalues --    1.25788   1.26253   1.27010   1.27671   1.28098
 Alpha virt. eigenvalues --    1.28477   1.29219   1.29560   1.29975   1.30355
 Alpha virt. eigenvalues --    1.31063   1.31584   1.32783   1.33062   1.34263
 Alpha virt. eigenvalues --    1.34915   1.35470   1.36148   1.37651   1.38179
 Alpha virt. eigenvalues --    1.39265   1.40107   1.40595   1.41133   1.41532
 Alpha virt. eigenvalues --    1.41944   1.42814   1.43044   1.43581   1.43675
 Alpha virt. eigenvalues --    1.44199   1.45007   1.46243   1.46846   1.47358
 Alpha virt. eigenvalues --    1.47857   1.48100   1.48260   1.48899   1.48993
 Alpha virt. eigenvalues --    1.49447   1.49521   1.49823   1.50063   1.50316
 Alpha virt. eigenvalues --    1.50527   1.51055   1.51408   1.52031   1.52306
 Alpha virt. eigenvalues --    1.52344   1.52640   1.52922   1.53089   1.53411
 Alpha virt. eigenvalues --    1.53979   1.54189   1.54470   1.54702   1.54887
 Alpha virt. eigenvalues --    1.55392   1.55721   1.55859   1.56322   1.56673
 Alpha virt. eigenvalues --    1.56738   1.57603   1.57823   1.58149   1.58554
 Alpha virt. eigenvalues --    1.58653   1.58942   1.59965   1.60136   1.60488
 Alpha virt. eigenvalues --    1.61157   1.62069   1.62377   1.62848   1.63823
 Alpha virt. eigenvalues --    1.64330   1.64465   1.65005   1.65260   1.65827
 Alpha virt. eigenvalues --    1.66177   1.67072   1.68034   1.68549   1.69067
 Alpha virt. eigenvalues --    1.69121   1.69597   1.70531   1.70909   1.71578
 Alpha virt. eigenvalues --    1.72258   1.72522   1.72967   1.73113   1.73766
 Alpha virt. eigenvalues --    1.74264   1.74571   1.75166   1.75530   1.76147
 Alpha virt. eigenvalues --    1.76821   1.77315   1.77955   1.78030   1.78679
 Alpha virt. eigenvalues --    1.79139   1.79857   1.80521   1.80569   1.81830
 Alpha virt. eigenvalues --    1.82171   1.82563   1.83713   1.83825   1.83886
 Alpha virt. eigenvalues --    1.84541   1.84771   1.85180   1.85545   1.86094
 Alpha virt. eigenvalues --    1.86306   1.87476   1.87774   1.88255   1.88880
 Alpha virt. eigenvalues --    1.89137   1.89999   1.90193   1.90675   1.90972
 Alpha virt. eigenvalues --    1.91179   1.92091   1.92633   1.94123   1.94585
 Alpha virt. eigenvalues --    1.95578   1.96126   1.96342   1.97640   1.98308
 Alpha virt. eigenvalues --    1.98520   1.98933   1.99537   1.99888   2.00196
 Alpha virt. eigenvalues --    2.00890   2.01640   2.01699   2.02004   2.02805
 Alpha virt. eigenvalues --    2.03508   2.04502   2.04882   2.05771   2.06380
 Alpha virt. eigenvalues --    2.06828   2.07150   2.07565   2.07939   2.10389
 Alpha virt. eigenvalues --    2.11310   2.12874   2.13478   2.13925   2.14208
 Alpha virt. eigenvalues --    2.15238   2.15271   2.15623   2.15719   2.15991
 Alpha virt. eigenvalues --    2.16378   2.16757   2.17019   2.17542   2.19082
 Alpha virt. eigenvalues --    2.19603   2.20156   2.20731   2.21069   2.21275
 Alpha virt. eigenvalues --    2.22806   2.23721   2.25287   2.25984   2.26368
 Alpha virt. eigenvalues --    2.27220   2.27600   2.28327   2.28652   2.29054
 Alpha virt. eigenvalues --    2.29162   2.29461   2.30030   2.30835   2.30921
 Alpha virt. eigenvalues --    2.31080   2.31308   2.31610   2.32148   2.32805
 Alpha virt. eigenvalues --    2.33147   2.33836   2.34017   2.34301   2.34609
 Alpha virt. eigenvalues --    2.35730   2.36251   2.36518   2.36615   2.36962
 Alpha virt. eigenvalues --    2.37534   2.37746   2.38450   2.38714   2.39513
 Alpha virt. eigenvalues --    2.40640   2.40826   2.41764   2.42523   2.44363
 Alpha virt. eigenvalues --    2.44430   2.45218   2.45474   2.45837   2.46249
 Alpha virt. eigenvalues --    2.47037   2.47701   2.48116   2.48231   2.49262
 Alpha virt. eigenvalues --    2.50812   2.50932   2.51589   2.52172   2.52561
 Alpha virt. eigenvalues --    2.53554   2.53730   2.54130   2.55397   2.55845
 Alpha virt. eigenvalues --    2.56352   2.56407   2.56598   2.56686   2.57137
 Alpha virt. eigenvalues --    2.57663   2.58166   2.58343   2.58914   2.59171
 Alpha virt. eigenvalues --    2.59298   2.60163   2.60696   2.61030   2.61691
 Alpha virt. eigenvalues --    2.62328   2.62545   2.62661   2.62764   2.63092
 Alpha virt. eigenvalues --    2.63300   2.63782   2.63834   2.64109   2.64382
 Alpha virt. eigenvalues --    2.64909   2.65357   2.65578   2.66429   2.66591
 Alpha virt. eigenvalues --    2.67158   2.67542   2.68211   2.69164   2.69353
 Alpha virt. eigenvalues --    2.69453   2.69767   2.70134   2.70253   2.70928
 Alpha virt. eigenvalues --    2.71551   2.71845   2.72185   2.72704   2.73338
 Alpha virt. eigenvalues --    2.73489   2.74920   2.75275   2.76090   2.76236
 Alpha virt. eigenvalues --    2.76533   2.76947   2.77699   2.78206   2.78717
 Alpha virt. eigenvalues --    2.79077   2.79298   2.79532   2.80202   2.80999
 Alpha virt. eigenvalues --    2.81212   2.81261   2.82068   2.82431   2.82778
 Alpha virt. eigenvalues --    2.83209   2.83347   2.84168   2.84727   2.85179
 Alpha virt. eigenvalues --    2.85736   2.85856   2.86418   2.86696   2.87051
 Alpha virt. eigenvalues --    2.87441   2.88246   2.88580   2.89119   2.89446
 Alpha virt. eigenvalues --    2.90270   2.90949   2.91355   2.91687   2.92492
 Alpha virt. eigenvalues --    2.92795   2.93213   2.93460   2.93782   2.94180
 Alpha virt. eigenvalues --    2.95063   2.95325   2.96087   2.96554   2.97845
 Alpha virt. eigenvalues --    2.98005   2.98165   2.99251   2.99943   3.00260
 Alpha virt. eigenvalues --    3.00696   3.00860   3.01272   3.02396   3.02814
 Alpha virt. eigenvalues --    3.03159   3.04237   3.04346   3.04642   3.04769
 Alpha virt. eigenvalues --    3.05152   3.05569   3.06031   3.06847   3.07350
 Alpha virt. eigenvalues --    3.07671   3.08107   3.08329   3.08942   3.09482
 Alpha virt. eigenvalues --    3.09877   3.10559   3.10980   3.11445   3.12086
 Alpha virt. eigenvalues --    3.12277   3.12507   3.12577   3.13886   3.14381
 Alpha virt. eigenvalues --    3.14699   3.15099   3.15323   3.15459   3.15761
 Alpha virt. eigenvalues --    3.15955   3.16555   3.16736   3.17353   3.17629
 Alpha virt. eigenvalues --    3.17715   3.18285   3.18578   3.18918   3.19383
 Alpha virt. eigenvalues --    3.20793   3.21251   3.21391   3.21535   3.22156
 Alpha virt. eigenvalues --    3.22775   3.23276   3.23703   3.24213   3.24436
 Alpha virt. eigenvalues --    3.24533   3.25054   3.25465   3.25654   3.25716
 Alpha virt. eigenvalues --    3.26168   3.26678   3.26754   3.27370   3.27805
 Alpha virt. eigenvalues --    3.28136   3.28393   3.28990   3.29355   3.29493
 Alpha virt. eigenvalues --    3.29838   3.30441   3.30736   3.31129   3.31520
 Alpha virt. eigenvalues --    3.32007   3.32160   3.32532   3.33509   3.33778
 Alpha virt. eigenvalues --    3.33988   3.34499   3.35054   3.35204   3.35570
 Alpha virt. eigenvalues --    3.35901   3.36232   3.36605   3.37358   3.37637
 Alpha virt. eigenvalues --    3.37869   3.38252   3.38469   3.39257   3.39382
 Alpha virt. eigenvalues --    3.39592   3.40136   3.40539   3.41085   3.41480
 Alpha virt. eigenvalues --    3.42008   3.42201   3.42459   3.43006   3.43156
 Alpha virt. eigenvalues --    3.43518   3.44293   3.44506   3.44799   3.45052
 Alpha virt. eigenvalues --    3.45231   3.46388   3.46867   3.47056   3.47151
 Alpha virt. eigenvalues --    3.48223   3.48819   3.49328   3.50029   3.50377
 Alpha virt. eigenvalues --    3.50643   3.51033   3.51089   3.51994   3.52543
 Alpha virt. eigenvalues --    3.52880   3.53693   3.54520   3.55240   3.56164
 Alpha virt. eigenvalues --    3.57073   3.57629   3.57677   3.58202   3.58573
 Alpha virt. eigenvalues --    3.59147   3.59347   3.60216   3.60380   3.61118
 Alpha virt. eigenvalues --    3.62312   3.62452   3.63278   3.63712   3.64485
 Alpha virt. eigenvalues --    3.65525   3.65678   3.66132   3.67324   3.67882
 Alpha virt. eigenvalues --    3.68891   3.70056   3.70924   3.72081   3.72782
 Alpha virt. eigenvalues --    3.72852   3.73372   3.74450   3.74618   3.74826
 Alpha virt. eigenvalues --    3.75172   3.75798   3.76548   3.77262   3.77777
 Alpha virt. eigenvalues --    3.79444   3.80170   3.80397   3.81231   3.81964
 Alpha virt. eigenvalues --    3.82531   3.83083   3.84072   3.84690   3.84863
 Alpha virt. eigenvalues --    3.85184   3.85942   3.86615   3.86871   3.87729
 Alpha virt. eigenvalues --    3.87870   3.88523   3.89494   3.90367   3.90910
 Alpha virt. eigenvalues --    3.91768   3.92806   3.93382   3.93650   3.93961
 Alpha virt. eigenvalues --    3.94243   3.96135   3.96616   3.97858   3.97961
 Alpha virt. eigenvalues --    3.98249   3.99273   3.99856   4.00108   4.00821
 Alpha virt. eigenvalues --    4.02043   4.03241   4.03299   4.03650   4.04360
 Alpha virt. eigenvalues --    4.05753   4.06355   4.07189   4.07786   4.08155
 Alpha virt. eigenvalues --    4.09155   4.09687   4.10490   4.11769   4.12360
 Alpha virt. eigenvalues --    4.13875   4.14190   4.14675   4.15903   4.16231
 Alpha virt. eigenvalues --    4.17183   4.18618   4.18783   4.19154   4.19626
 Alpha virt. eigenvalues --    4.20704   4.21124   4.21463   4.21809   4.22188
 Alpha virt. eigenvalues --    4.22999   4.23277   4.23676   4.24569   4.25686
 Alpha virt. eigenvalues --    4.25926   4.26714   4.27193   4.27406   4.28765
 Alpha virt. eigenvalues --    4.30992   4.31064   4.31352   4.31788   4.32235
 Alpha virt. eigenvalues --    4.33358   4.33867   4.35105   4.35286   4.35871
 Alpha virt. eigenvalues --    4.36603   4.38365   4.38693   4.39543   4.40226
 Alpha virt. eigenvalues --    4.40823   4.41941   4.43237   4.44345   4.46460
 Alpha virt. eigenvalues --    4.46668   4.48032   4.49723   4.51088   4.53430
 Alpha virt. eigenvalues --    4.54762   4.55706   4.56530   4.57182   4.60397
 Alpha virt. eigenvalues --    4.61605   4.62919   4.64420   4.65006   4.66931
 Alpha virt. eigenvalues --    4.69220   4.69788   4.72427   4.73612   4.74642
 Alpha virt. eigenvalues --    4.76100   4.77209   4.77294   4.77441   4.77919
 Alpha virt. eigenvalues --    4.79700   4.79827   4.82607   4.85412   4.87236
 Alpha virt. eigenvalues --    4.87851   4.89677   4.93363   4.97644   4.98227
 Alpha virt. eigenvalues --    4.98784   4.99870   5.01546   5.02719   5.03723
 Alpha virt. eigenvalues --    5.05564   5.06300   5.09445   5.10065   5.11737
 Alpha virt. eigenvalues --    5.12701   5.12999   5.13676   5.14170   5.15867
 Alpha virt. eigenvalues --    5.17003   5.21612   5.22205   5.22903   5.24301
 Alpha virt. eigenvalues --    5.25086   5.25820   5.26013   5.29765   5.30836
 Alpha virt. eigenvalues --    5.31246   5.34228   5.34942   5.36726   5.37859
 Alpha virt. eigenvalues --    5.38245   5.39872   5.40563   5.42336   5.46602
 Alpha virt. eigenvalues --    5.47833   5.48307   5.51295   5.52071   5.54373
 Alpha virt. eigenvalues --    5.57253   5.60783   5.62427   5.67688   5.70268
 Alpha virt. eigenvalues --    5.72627   5.74097   5.75981   5.76224   5.81903
 Alpha virt. eigenvalues --    5.82186   5.87155   5.90184   5.93046   5.93614
 Alpha virt. eigenvalues --    5.94631   5.95002   5.96107   5.96992   6.07484
 Alpha virt. eigenvalues --    6.09337   6.19123   6.24296   6.30475   6.39741
 Alpha virt. eigenvalues --    6.41814   6.54317   6.57488   6.59404   6.67302
 Alpha virt. eigenvalues --    6.77344   6.79554   6.85492   6.86033   6.88675
 Alpha virt. eigenvalues --    6.92712   6.93118   6.99347   7.12481   7.22950
 Alpha virt. eigenvalues --    7.38140   7.46993   7.53209  22.25784  22.31357
 Alpha virt. eigenvalues --   22.33631  22.35540  22.35640  22.42693  22.56103
 Alpha virt. eigenvalues --   22.56119  22.58897  22.60295  22.60988  22.62808
 Alpha virt. eigenvalues --   22.70929  22.75457  22.83041  22.84681  22.90609
 Alpha virt. eigenvalues --   22.92008  22.96744  22.99194  23.07876  23.11442
 Alpha virt. eigenvalues --   23.15044  23.28151  23.38543  23.52483  23.57404
 Alpha virt. eigenvalues --   23.83991  32.99326  32.99902  43.88596  43.90453
 Alpha virt. eigenvalues --   44.55795
          Condensed to atoms (all electrons):
 Mulliken charges:
               1
     1  C    0.461907
     2  C   -0.309486
     3  C    0.286390
     4  C   -0.007412
     5  C   -0.171272
     6  C   -0.272969
     7  C    0.179815
     8  C    0.075377
     9  C    0.251848
    10  C   -0.295054
    11  H    0.165664
    12  C    0.446055
    13  C   -0.249236
    14  C   -0.227191
    15  H    0.166432
    16  H    0.196516
    17  H    0.152422
    18  H    0.152636
    19  H    0.200489
    20  O   -0.390841
    21  C   -0.261350
    22  C   -0.234086
    23  C   -0.117096
    24  C   -0.057874
    25  H    0.144851
    26  C   -0.046416
    27  C   -0.141080
    28  H    0.141221
    29  H    0.135646
    30  H    0.138339
    31  N   -0.139494
    32  C   -0.141475
    33  H    0.133815
    34  H    0.140162
    35  C   -0.281804
    36  H    0.108351
    37  H    0.114163
    38  H    0.111601
    39  C    0.586771
    40  O   -0.465719
    41  O   -0.504426
    42  C   -0.136611
    43  H    0.140392
    44  H    0.132093
    45  C   -0.285056
    46  H    0.114352
    47  H    0.112621
    48  H    0.108677
    49  C   -0.134992
    50  H    0.131102
    51  H    0.140224
    52  C   -0.139685
    53  H    0.133450
    54  H    0.139826
    55  C   -0.282316
    56  H    0.114123
    57  H    0.112135
    58  H    0.108233
    59  C   -0.285116
    60  H    0.108806
    61  H    0.114410
    62  H    0.112518
    63  N   -0.139351
    64  H    0.403980
 Sum of Mulliken charges =   1.00000
 Mulliken charges with hydrogens summed into heavy atoms:
               1
     1  C    0.461907
     2  C   -0.143054
     3  C    0.286390
     4  C   -0.007412
     5  C    0.025244
     6  C   -0.120547
     7  C    0.179815
     8  C    0.075377
     9  C    0.251848
    10  C   -0.129390
    12  C    0.446055
    13  C   -0.096601
    14  C   -0.026702
    20  O   -0.390841
    21  C   -0.261350
    22  C   -0.089235
    23  C   -0.117096
    24  C    0.083347
    26  C    0.089229
    27  C   -0.002740
    31  N   -0.139494
    32  C    0.132502
    35  C    0.052311
    39  C    0.586771
    40  O   -0.061740
    41  O   -0.504426
    42  C    0.135874
    45  C    0.050593
    49  C    0.136333
    52  C    0.133591
    55  C    0.052174
    59  C    0.050618
    63  N   -0.139351
 Electronic spatial extent (au):  <R**2>=          17904.8018
 Charge=              1.0000 electrons
 Dipole moment (field-independent basis, Debye):
    X=             -1.7836    Y=             -5.8707    Z=             -2.3958  Tot=              6.5869
 Quadrupole moment (field-independent basis, Debye-Ang):
   XX=            -82.3348   YY=           -153.0014   ZZ=           -188.1817
   XY=             -9.5837   XZ=             -6.5880   YZ=            -17.4400
 Traceless Quadrupole moment (field-independent basis, Debye-Ang):
   XX=             58.8378   YY=            -11.8288   ZZ=            -47.0091
   XY=             -9.5837   XZ=             -6.5880   YZ=            -17.4400
 Octapole moment (field-independent basis, Debye-Ang**2):
  XXX=            -43.3264  YYY=            -44.4109  ZZZ=             17.1363  XYY=            -15.2672
  XXY=           -221.2602  XXZ=             -1.5088  XZZ=            -14.2248  YZZ=             -1.6155
  YYZ=            -73.4566  XYZ=            -11.6281
 Hexadecapole moment (field-independent basis, Debye-Ang**3):
 XXXX=         -10752.5334 YYYY=          -7049.1412 ZZZZ=          -1364.3304 XXXY=            -60.5579
 XXXZ=           -147.0336 YYYX=           -137.2891 YYYZ=           -365.4159 ZZZX=            -15.7258
 ZZZY=            -80.1555 XXYY=          -3197.4798 XXZZ=          -2751.4931 YYZZ=          -1622.1274
 XXYZ=            -29.4360 YYXZ=            -91.2300 ZZXY=            -71.0438
 N-N= 3.334775747985D+03 E-N=-9.948385038143D+03  KE= 1.413488842846D+03
 Leave Link  601 at Sat Apr  2 04:50:20 2022, MaxMem=  5242880000 cpu:         8.7
 (Enter /opt/nce/packages/global/g09/l9999.exe)
 1\1\GINC-CN007\SP\RM06 TD-FC\Gen\C28H31N2O3(1+)\PNG4RJV\02-Apr-2022\0\
 \#p m06 chkbasis geom=allcheck Guess=Read int=ultrafine scrf=(SMD,solv
 ent=Ethanol) td=(NStates=30)\\Title\\1,1\C,0,-3.7465500931,-1.02921976
 02,0.0129700366\C,0,-2.5198421428,-1.7203614271,0.0295071964\C,0,-1.34
 4960507,-1.0434964817,-0.1601090888\C,0,-1.2882845489,0.3497280404,-0.
 3905225983\C,0,-2.5282340901,1.0311682297,-0.3948508518\C,0,-3.7035481
 173,0.3833036534,-0.2021509077\C,0,-0.0459648802,0.964537957,-0.560563
 4585\C,0,1.1128116569,0.1864819865,-0.4978486264\C,0,0.999819221,-1.20
 25962866,-0.2591756643\C,0,2.0830261117,-2.0361080885,-0.1816118814\H,
 0,1.8984852657,-3.0886157675,-0.0171511869\C,0,3.3849967241,-1.5228748
 426,-0.3360826164\C,0,3.514992246,-0.1208939237,-0.5814349387\C,0,2.42
 75122295,0.6849303108,-0.6593473914\H,0,-2.4630296192,-2.7840739134,0.
 2149644231\H,0,-2.5350370747,2.1028719041,-0.5578023906\H,0,-4.6212117
 927,0.953833771,-0.2275217503\H,0,4.4960809559,0.3175304308,-0.6972179
 85\H,0,2.5675449062,1.7432492938,-0.8476529018\O,0,-0.2123989085,-1.77
 37907577,-0.1068774949\C,0,0.0364665973,2.4076451136,-0.889349239\C,0,
 -0.2260770397,2.7579079867,-2.2088144279\C,0,0.4101329472,3.4082517421
 ,0.0148838827\C,0,-0.1241304424,4.0709525918,-2.6314742388\H,0,-0.5068
 844672,1.9804889296,-2.9114547148\C,0,0.5210727668,4.7230415244,-0.426
 7392364\C,0,0.2513509925,5.0588980423,-1.7376672681\H,0,-0.3356903893,
 4.3190279468,-3.6650768737\H,0,0.8137446734,5.4849551542,0.2858214646\
 H,0,0.3331128716,6.0894949419,-2.0614454474\N,0,-4.9156934374,-1.66609
 63027,0.1931658434\C,0,-6.1904767218,-0.961013329,0.2851714247\H,0,-6.
 0460309709,-0.0053806372,0.7910829909\H,0,-6.8322023572,-1.5533787217,
 0.9424854182\C,0,-6.8483685214,-0.7748944083,-1.0619753782\H,0,-7.0189
 62267,-1.7386007771,-1.548192929\H,0,-7.8143073193,-0.2787536135,-0.94
 86336508\H,0,-6.2281592122,-0.1663030769,-1.7243674882\C,0,0.710746778
 8,3.1636665022,1.4468687657\O,0,0.1348522829,2.0687693823,1.9331189457
 \O,0,1.392114345,3.8976872444,2.1204566875\C,0,-4.9984908444,-3.116966
 7637,0.3176373228\H,0,-5.9719325914,-3.4142050749,-0.080734737\H,0,-4.
 2533233876,-3.5819662372,-0.330412693\C,0,-4.8513701092,-3.5866526433,
 1.7465782213\H,0,-4.9502301133,-4.6725032364,1.8019678122\H,0,-3.87680
 34571,-3.3120664235,2.1568586449\H,0,-5.6231517322,-3.144575822,2.3815
 791029\C,0,4.3663373156,-3.7313534342,0.0788417821\H,0,3.560564359,-3.
 8782865177,0.8002288999\H,0,5.2897674806,-4.0013386265,0.5975445269\C,
 0,5.8208767386,-1.8278692091,-0.5005476716\H,0,5.8040195067,-1.0723064
 068,-1.2873621843\H,0,6.390054124,-2.6686679356,-0.9047853407\C,0,6.48
 18754,-1.3019795515,0.7520730584\H,0,7.5053022207,-0.9870323254,0.5390
 026002\H,0,5.9385734801,-0.4445788244,1.1564616984\H,0,6.5200436201,-2
 .0741488468,1.5244953645\C,0,4.1752605912,-4.6027711591,-1.1409863785\
 H,0,5.0030578712,-4.4750585543,-1.8429641324\H,0,4.1356215892,-5.65543
 89263,-0.8542370764\H,0,3.2475890561,-4.356927396,-1.6631371286\N,0,4.
 466699485,-2.3152580919,-0.2565441943\H,0,0.3843897448,1.972660442,2.8
 668070481\\Version=ES64L-G09RevE.01\State=1-A\HF=-1420.2459197\RMSD=8.
 427e-09\PG=C01 [X(C28H31N2O3)]\\@


 WE SHOULD BE CAREFUL TO GET OUT OF AN EXPERIENCE ONLY THE WISDOM
 THAT IS IN IT -- AND STOP THERE;
 LEST WE BE LIKE THE CAT THAT SITS DOWN ON A HOT STOVE-LID.
 SHE WILL NEVER SIT DOWN ON A HOT STOVE LID AGAIN;
 BUT ALSO SHE WILL NEVER SIT DOWN ON A COLD ONE ANY MORE.

                                                     -- MARK TWAIN
 Job cpu time:       3 days 18 hours  7 minutes 53.7 seconds.
 File lengths (MBytes):  RWF=   7404 Int=      0 D2E=      0 Chk=   1310 Scr=      1
 Normal termination of Gaussian 09 at Sat Apr  2 04:50:23 2022.
