
                                 *****************
                                 * O   R   C   A *
                                 *****************

                                            #,                                       
                                            ###                                      
                                            ####                                     
                                            #####                                    
                                            ######                                   
                                           ########,                                 
                                     ,,################,,,,,                         
                               ,,#################################,,                 
                          ,,##########################################,,             
                       ,#########################################, ''#####,          
                    ,#############################################,,   '####,        
                  ,##################################################,,,,####,       
                ,###########''''           ''''###############################       
              ,#####''   ,,,,##########,,,,          '''####'''          '####       
            ,##' ,,,,###########################,,,                        '##       
           ' ,,###''''                  '''############,,,                           
         ,,##''                                '''############,,,,        ,,,,,,###''
      ,#''                                            '''#######################'''  
     '                                                          ''''####''''         
             ,#######,   #######,   ,#######,      ##                                
            ,#'     '#,  ##    ##  ,#'     '#,    #''#        ######   ,####,        
            ##       ##  ##   ,#'  ##            #'  '#       #        #'  '#        
            ##       ##  #######   ##           ,######,      #####,   #    #        
            '#,     ,#'  ##    ##  '#,     ,#' ,#      #,         ##   #,  ,#        
             '#######'   ##     ##  '#######'  #'      '#     #####' # '####'        



                  #######################################################
                  #                        -***-                        #
                  #          Department of theory and spectroscopy      #
                  #    Directorship and core code : Frank Neese         #
                  #        Max Planck Institute fuer Kohlenforschung    #
                  #                Kaiser Wilhelm Platz 1               #
                  #                 D-45470 Muelheim/Ruhr               #
                  #                      Germany                        #
                  #                                                     #
                  #                  All rights reserved                #
                  #                        -***-                        #
                  #######################################################


                         Program Version 5.0.2 -  RELEASE  -


 With contributions from (in alphabetic order):
   Daniel Aravena         : Magnetic Suceptibility
   Michael Atanasov       : Ab Initio Ligand Field Theory (pilot matlab implementation)
   Alexander A. Auer      : GIAO ZORA, VPT2 properties, NMR spectrum
   Ute Becker             : Parallelization
   Giovanni Bistoni       : ED, misc. LED, open-shell LED, HFLD
   Martin Brehm           : Molecular dynamics
   Dmytro Bykov           : SCF Hessian
   Vijay G. Chilkuri      : MRCI spin determinant printing, contributions to CSF-ICE
   Dipayan Datta          : RHF DLPNO-CCSD density
   Achintya Kumar Dutta   : EOM-CC, STEOM-CC
   Dmitry Ganyushin       : Spin-Orbit,Spin-Spin,Magnetic field MRCI
   Miquel Garcia          : C-PCM and meta-GGA Hessian, CC/C-PCM, Gaussian charge scheme
   Yang Guo               : DLPNO-NEVPT2, F12-NEVPT2, CIM, IAO-localization
   Andreas Hansen         : Spin unrestricted coupled pair/coupled cluster methods
   Benjamin Helmich-Paris : MC-RPA, TRAH-SCF, COSX integrals
   Lee Huntington         : MR-EOM, pCC
   Robert Izsak           : Overlap fitted RIJCOSX, COSX-SCS-MP3, EOM
   Marcus Kettner         : VPT2
   Christian Kollmar      : KDIIS, OOCD, Brueckner-CCSD(T), CCSD density, CASPT2, CASPT2-K
   Simone Kossmann        : Meta GGA functionals, TD-DFT gradient, OOMP2, MP2 Hessian
   Martin Krupicka        : Initial AUTO-CI
   Lucas Lang             : DCDCAS
   Marvin Lechner         : AUTO-CI (C++ implementation), FIC-MRCC
   Dagmar Lenk            : GEPOL surface, SMD
   Dimitrios Liakos       : Extrapolation schemes; Compound Job, initial MDCI parallelization
   Dimitrios Manganas     : Further ROCIS development; embedding schemes
   Dimitrios Pantazis     : SARC Basis sets
   Anastasios Papadopoulos: AUTO-CI, single reference methods and gradients
   Taras Petrenko         : DFT Hessian,TD-DFT gradient, ASA, ECA, R-Raman, ABS, FL, XAS/XES, NRVS
   Peter Pinski           : DLPNO-MP2, DLPNO-MP2 Gradient
   Christoph Reimann      : Effective Core Potentials
   Marius Retegan         : Local ZFS, SOC
   Christoph Riplinger    : Optimizer, TS searches, QM/MM, DLPNO-CCSD(T), (RO)-DLPNO pert. Triples
   Tobias Risthaus        : Range-separated hybrids, TD-DFT gradient, RPA, STAB
   Michael Roemelt        : Original ROCIS implementation
   Masaaki Saitow         : Open-shell DLPNO-CCSD energy and density
   Barbara Sandhoefer     : DKH picture change effects
   Avijit Sen             : IP-ROCIS
   Kantharuban Sivalingam : CASSCF convergence, NEVPT2, FIC-MRCI
   Bernardo de Souza      : ESD, SOC TD-DFT
   Georgi Stoychev        : AutoAux, RI-MP2 NMR, DLPNO-MP2 response
   Willem Van den Heuvel  : Paramagnetic NMR
   Boris Wezisla          : Elementary symmetry handling
   Frank Wennmohs         : Technical directorship


 We gratefully acknowledge several colleagues who have allowed us to
 interface, adapt or use parts of their codes:
   Stefan Grimme, W. Hujo, H. Kruse, P. Pracht,  : VdW corrections, initial TS optimization,
                  C. Bannwarth, S. Ehlert          DFT functionals, gCP, sTDA/sTD-DF
   Ed Valeev, F. Pavosevic, A. Kumar             : LibInt (2-el integral package), F12 methods
   Garnet Chan, S. Sharma, J. Yang, R. Olivares  : DMRG
   Ulf Ekstrom                                   : XCFun DFT Library
   Mihaly Kallay                                 : mrcc  (arbitrary order and MRCC methods)
   Jiri Pittner, Ondrej Demel                    : Mk-CCSD
   Frank Weinhold                                : gennbo (NPA and NBO analysis)
   Christopher J. Cramer and Donald G. Truhlar   : smd solvation model
   Lars Goerigk                                  : TD-DFT with DH, B97 family of functionals
   V. Asgeirsson, H. Jonsson                     : NEB implementation
   FAccTs GmbH                                   : IRC, NEB, NEB-TS, DLPNO-Multilevel, CI-OPT
                                                   MM, QMMM, 2- and 3-layer-ONIOM, Crystal-QMMM,
                                                   LR-CPCM, SF, NACMEs, symmetry and pop. for TD-DFT,
                                                   nearIR, NL-DFT gradient (VV10), updates on ESD,
                                                   ML-optimized integration grids
   S Lehtola, MJT Oliveira, MAL Marques          : LibXC Library
   Liviu Ungur et al                             : ANISO software


 Your calculation uses the libint2 library for the computation of 2-el integrals
 For citations please refer to: http://libint.valeyev.net

 Your ORCA version has been built with support for libXC version: 5.1.0
 For citations please refer to: https://tddft.org/programs/libxc/

 This ORCA versions uses:
   CBLAS   interface :  Fast vector & matrix operations
   LAPACKE interface :  Fast linear algebra routines
   SCALAPACK package :  Parallel linear algebra routines
   Shared memory     :  Shared parallel matrices
   BLAS/LAPACK       :  OpenBLAS 0.3.15  USE64BITINT DYNAMIC_ARCH NO_AFFINITY Zen SINGLE_THREADED
        Core in use  :  Zen
   Copyright (c) 2011-2014, The OpenBLAS Project


Your calculation utilizes the SMD solvation module
Please cite in your paper:
A.V. Marenich, C.J. Cramer, D.G. Truhlar J. Phys. Chem. B, 113, (2009), 6378 

================================================================================

----- Orbital basis set information -----
Your calculation utilizes the basis: def2-TZVP
   F. Weigend and R. Ahlrichs, Phys. Chem. Chem. Phys. 7, 3297 (2005).

----- AuxJ basis set information -----
Your calculation utilizes the auxiliary basis: def2/J
   F. Weigend, Phys. Chem. Chem. Phys. 8, 1057 (2006).

----- AuxC basis set information -----
Your calculation utilizes the auxiliary basis: def2-TZVP/C
  H-La, Hf-Rn : A. Hellweg, C. Hattig, S. Hofener and W. Klopper, Theor. Chem. Acc. 117, 587 (2007).
        Ce-Lu : J. Chmela and M. E. Harding, Mol. Phys. (2018).

================================================================================
                                        WARNINGS
                       Please study these warnings very carefully!
================================================================================

INFO   : Checking CIS options ...
  ===> : (D) CORRECTION FOUND - SETTING MODE=3
  ===> : JK MODE FOUND - ACTIVATING RI-MP2 CODE
  ===> : MP2 AND CIS FOUND - CHECKING
WARNING: CIS(D) and MP2 runs must have the same orbital window
  ===> : adjusting orbital windows

WARNING: No MP2 level density has been requested!
         To caclulate MP2 level properties use
         %mp2 Density relaxed end
         or
         %mp2 Density unrelaxed end
         Otherwise for double-hybrid DFT only the energy is correct!

WARNING: The frozen-core approximation is turned on by default for 
         the MP2 part of double-hybrid DFT.

WARNING:  You are using a Range-Separated Double Hybrid functional with Doubles Correction 
          Changing Mode to RPA_AOINTS 


WARNING: CIS/ROCIS methods need fully converged wavefunctions
  ===> : Setting SCFConvForced true
         You can overwrite this default with %scf ConvForced false 


INFO   : the flag for use of the SHARK integral package has been found!

================================================================================
                                       INPUT FILE
================================================================================
NAME = Rh_B_M06L_def2TZVP_coords.inp
|  1> %maxcore 20000
|  2> %pal
|  3>  nprocs= 4
|  4> end
|  5> ! RI-wPBEPP86   def2-TZVP def2/J def2-TZVP/C RIJCOSX CPCM TightSCF
|  6> %TDDFT  
|  7>    NROOTS   30
|  8>    dcorr 1
|  9>    TDA      FALSE
| 10> END 
| 11>  
| 12>  %CPCM 
| 13>    SMD          TRUE 
| 14>    SMDsolvent   "ETHANOL"
| 15>  END 
| 16>  
| 17> 
| 18> * xyz 1 1
| 19> C                  -3.84267000   -0.92047200    0.05894500
| 20> C                  -2.63140600   -1.64154100    0.02698200
| 21> C                  -1.44451500   -0.98320300   -0.16527300
| 22> C                  -1.35747000    0.41898600   -0.34874900
| 23> C                  -2.58344000    1.12590400   -0.30249800
| 24> C                  -3.77274200    0.49647600   -0.10979100
| 25> C                  -0.10153800    1.01377800   -0.52398600
| 26> C                   1.04141100    0.20174500   -0.51394500
| 27> C                   0.90082300   -1.19349000   -0.31440700
| 28> C                   1.96520000   -2.05709900   -0.27996900
| 29> H                   1.76164300   -3.10760500   -0.13995700
| 30> C                   3.27758200   -1.56937100   -0.44416300
| 31> C                   3.43762900   -0.16648200   -0.65863700
| 32> C                   2.36564200    0.66915700   -0.69356500
| 33> H                  -2.59955700   -2.70986000    0.17692700
| 34> H                  -2.56812100    2.20095000   -0.42639900
| 35> H                  -4.67721800    1.08529100   -0.09723800
| 36> H                   4.42535200    0.24835000   -0.78882700
| 37> H                   2.52930600    1.72568900   -0.86331100
| 38> O                  -0.32598700   -1.74921200   -0.15541900
| 39> C                   0.00981900    2.46809200   -0.77544500
| 40> C                  -0.44694900    2.94685700   -2.00238800
| 41> C                   0.60787100    3.37133300    0.11850100
| 42> C                  -0.31107700    4.28150800   -2.34586700
| 43> H                  -0.89891900    2.25214100   -2.69946600
| 44> C                   0.75239800    4.70851500   -0.24699800
| 45> C                   0.29374200    5.16693100   -1.46704100
| 46> H                  -0.67428000    4.62614800   -3.30558500
| 47> H                   1.21788400    5.38614300    0.45689800
| 48> H                   0.40406600    6.21073100   -1.72991600
| 49> N                  -5.02463500   -1.53894000    0.24539200
| 50> C                  -6.27907000   -0.80390300    0.39621600
| 51> H                  -6.09494400    0.11515600    0.95088300
| 52> H                  -6.92276200   -1.41377600    1.03077700
| 53> C                  -6.95690100   -0.52106400   -0.92532000
| 54> H                  -7.16734100   -1.44515000   -1.46396100
| 55> H                  -7.90276700   -0.00556200   -0.76303300
| 56> H                  -6.33610900    0.10664900   -1.56454100
| 57> C                   1.09695900    2.99900700    1.46614100
| 58> O                   0.45496900    1.95125100    1.99406900
| 59> O                   1.97054600    3.59992600    2.05443100
| 60> C                  -5.13158100   -2.99329900    0.32504900
| 61> H                  -6.12485000   -3.25533400   -0.04034500
| 62> H                  -4.42483600   -3.44287200   -0.37194400
| 63> C                  -4.92918100   -3.52146600    1.72790700
| 64> H                  -5.04218000   -4.60475800    1.74436800
| 65> H                  -3.93553000   -3.28036300    2.10522500
| 66> H                  -5.66160900   -3.09790100    2.41519400
| 67> C                   4.21334300   -3.81278200   -0.09371200
| 68> H                   3.42748000   -3.94672400    0.64904500
| 69> H                   5.14243500   -4.11559600    0.39029200
| 70> C                   5.70542000   -1.92199500   -0.65616200
| 71> H                   5.68810200   -1.16500500   -1.43905300
| 72> H                   6.25482300   -2.76810400   -1.06939200
| 73> C                   6.39023400   -1.40746700    0.58995800
| 74> H                   7.41129100   -1.10327000    0.36274800
| 75> H                   5.86659200   -0.54658500    1.00562500
| 76> H                   6.43395700   -2.17805400    1.35975400
| 77> C                   3.95721900   -4.65970100   -1.32035700
| 78> H                   4.76331500   -4.55172800   -2.04621000
| 79> H                   3.89253500   -5.71207400   -1.04661200
| 80> H                   3.02432800   -4.38115600   -1.81026300
| 81> N                   4.34439700   -2.39113500   -0.40265000
| 82> H                   0.83803600    1.77002800    2.86802500
| 83> *
| 84> 
| 85> 
| 86> 
| 87> 
| 88> 
| 89>                          ****END OF INPUT****
================================================================================

                       ****************************
                       * Single Point Calculation *
                       ****************************

---------------------------------
CARTESIAN COORDINATES (ANGSTROEM)
---------------------------------
  C     -3.842670   -0.920472    0.058945
  C     -2.631406   -1.641541    0.026982
  C     -1.444515   -0.983203   -0.165273
  C     -1.357470    0.418986   -0.348749
  C     -2.583440    1.125904   -0.302498
  C     -3.772742    0.496476   -0.109791
  C     -0.101538    1.013778   -0.523986
  C      1.041411    0.201745   -0.513945
  C      0.900823   -1.193490   -0.314407
  C      1.965200   -2.057099   -0.279969
  H      1.761643   -3.107605   -0.139957
  C      3.277582   -1.569371   -0.444163
  C      3.437629   -0.166482   -0.658637
  C      2.365642    0.669157   -0.693565
  H     -2.599557   -2.709860    0.176927
  H     -2.568121    2.200950   -0.426399
  H     -4.677218    1.085291   -0.097238
  H      4.425352    0.248350   -0.788827
  H      2.529306    1.725689   -0.863311
  O     -0.325987   -1.749212   -0.155419
  C      0.009819    2.468092   -0.775445
  C     -0.446949    2.946857   -2.002388
  C      0.607871    3.371333    0.118501
  C     -0.311077    4.281508   -2.345867
  H     -0.898919    2.252141   -2.699466
  C      0.752398    4.708515   -0.246998
  C      0.293742    5.166931   -1.467041
  H     -0.674280    4.626148   -3.305585
  H      1.217884    5.386143    0.456898
  H      0.404066    6.210731   -1.729916
  N     -5.024635   -1.538940    0.245392
  C     -6.279070   -0.803903    0.396216
  H     -6.094944    0.115156    0.950883
  H     -6.922762   -1.413776    1.030777
  C     -6.956901   -0.521064   -0.925320
  H     -7.167341   -1.445150   -1.463961
  H     -7.902767   -0.005562   -0.763033
  H     -6.336109    0.106649   -1.564541
  C      1.096959    2.999007    1.466141
  O      0.454969    1.951251    1.994069
  O      1.970546    3.599926    2.054431
  C     -5.131581   -2.993299    0.325049
  H     -6.124850   -3.255334   -0.040345
  H     -4.424836   -3.442872   -0.371944
  C     -4.929181   -3.521466    1.727907
  H     -5.042180   -4.604758    1.744368
  H     -3.935530   -3.280363    2.105225
  H     -5.661609   -3.097901    2.415194
  C      4.213343   -3.812782   -0.093712
  H      3.427480   -3.946724    0.649045
  H      5.142435   -4.115596    0.390292
  C      5.705420   -1.921995   -0.656162
  H      5.688102   -1.165005   -1.439053
  H      6.254823   -2.768104   -1.069392
  C      6.390234   -1.407467    0.589958
  H      7.411291   -1.103270    0.362748
  H      5.866592   -0.546585    1.005625
  H      6.433957   -2.178054    1.359754
  C      3.957219   -4.659701   -1.320357
  H      4.763315   -4.551728   -2.046210
  H      3.892535   -5.712074   -1.046612
  H      3.024328   -4.381156   -1.810263
  N      4.344397   -2.391135   -0.402650
  H      0.838036    1.770028    2.868025

----------------------------
CARTESIAN COORDINATES (A.U.)
----------------------------
  NO LB      ZA    FRAG     MASS         X           Y           Z
   0 C     6.0000    0    12.011   -7.261594   -1.739440    0.111390
   1 C     6.0000    0    12.011   -4.972637   -3.102063    0.050989
   2 C     6.0000    0    12.011   -2.729738   -1.857984   -0.312321
   3 C     6.0000    0    12.011   -2.565247    0.791769   -0.659040
   4 C     6.0000    0    12.011   -4.881994    2.127650   -0.571638
   5 C     6.0000    0    12.011   -7.129449    0.938204   -0.207475
   6 C     6.0000    0    12.011   -0.191879    1.915763   -0.990190
   7 C     6.0000    0    12.011    1.967982    0.381243   -0.971215
   8 C     6.0000    0    12.011    1.702309   -2.255369   -0.594143
   9 C     6.0000    0    12.011    3.713690   -3.887354   -0.529065
  10 H     1.0000    0     1.008    3.329023   -5.872522   -0.264480
  11 C     6.0000    0    12.011    6.193732   -2.965681   -0.839346
  12 C     6.0000    0    12.011    6.496177   -0.314605   -1.244644
  13 C     6.0000    0    12.011    4.470416    1.264523   -1.310648
  14 H     1.0000    0     1.008   -4.912451   -5.120893    0.334344
  15 H     1.0000    0     1.008   -4.853045    4.159193   -0.805777
  16 H     1.0000    0     1.008   -8.838661    2.050903   -0.183753
  17 H     1.0000    0     1.008    8.362703    0.469313   -1.490667
  18 H     1.0000    0     1.008    4.779696    3.261080   -1.631421
  19 O     8.0000    0    15.999   -0.616026   -3.305532   -0.293699
  20 C     6.0000    0    12.011    0.018555    4.664018   -1.465379
  21 C     6.0000    0    12.011   -0.844611    5.568753   -3.783965
  22 C     6.0000    0    12.011    1.148710    6.370896    0.223934
  23 C     6.0000    0    12.011   -0.587850    8.090878   -4.433046
  24 H     1.0000    0     1.008   -1.698711    4.255930   -5.101251
  25 C     6.0000    0    12.011    1.421826    8.897804   -0.466759
  26 C     6.0000    0    12.011    0.555092    9.764085   -2.772306
  27 H     1.0000    0     1.008   -1.274205    8.742153   -6.246650
  28 H     1.0000    0     1.008    2.301467   10.178335    0.863412
  29 H     1.0000    0     1.008    0.763574   11.736581   -3.269067
  30 N     7.0000    0    14.007   -9.495184   -2.908175    0.463724
  31 C     6.0000    0    12.011  -11.865723   -1.519157    0.748740
  32 H     1.0000    0     1.008  -11.517775    0.217613    1.796908
  33 H     1.0000    0     1.008  -13.082124   -2.671649    1.947886
  34 C     6.0000    0    12.011  -13.146638   -0.984668   -1.748601
  35 H     1.0000    0     1.008  -13.544312   -2.730938   -2.766485
  36 H     1.0000    0     1.008  -14.934065   -0.010511   -1.441923
  37 H     1.0000    0     1.008  -11.973511    0.201537   -2.956554
  38 C     6.0000    0    12.011    2.072952    5.667302    2.770605
  39 O     8.0000    0    15.999    0.859767    3.687330    3.768244
  40 O     8.0000    0    15.999    3.723792    6.802874    3.882312
  41 C     6.0000    0    12.011   -9.697283   -5.656515    0.614254
  42 H     1.0000    0     1.008  -11.574289   -6.151690   -0.076241
  43 H     1.0000    0     1.008   -8.361728   -6.506085   -0.702872
  44 C     6.0000    0    12.011   -9.314802   -6.654606    3.265271
  45 H     1.0000    0     1.008   -9.528339   -8.701732    3.296378
  46 H     1.0000    0     1.008   -7.437074   -6.198988    3.978299
  47 H     1.0000    0     1.008  -10.698890   -5.854184    4.564055
  48 C     6.0000    0    12.011    7.962064   -7.205114   -0.177090
  49 H     1.0000    0     1.008    6.476999   -7.458227    1.226517
  50 H     1.0000    0     1.008    9.717794   -7.777349    0.737545
  51 C     6.0000    0    12.011   10.781681   -3.632044   -1.239966
  52 H     1.0000    0     1.008   10.748955   -2.201540   -2.719416
  53 H     1.0000    0     1.008   11.819902   -5.230958   -2.020858
  54 C     6.0000    0    12.011   12.075792   -2.659727    1.114859
  55 H     1.0000    0     1.008   14.005310   -2.084878    0.685494
  56 H     1.0000    0     1.008   11.086252   -1.032896    1.900356
  57 H     1.0000    0     1.008   12.158417   -4.115926    2.569563
  58 C     6.0000    0    12.011    7.478060   -8.805559   -2.495113
  59 H     1.0000    0     1.008    9.001361   -8.601519   -3.866777
  60 H     1.0000    0     1.008    7.355825  -10.794256   -1.977810
  61 H     1.0000    0     1.008    5.715152   -8.279185   -3.420901
  62 N     7.0000    0    14.007    8.209721   -4.518590   -0.760898
  63 H     1.0000    0     1.008    1.583659    3.344868    5.419782

--------------------------------
INTERNAL COORDINATES (ANGSTROEM)
--------------------------------
 C      0   0   0     0.000000000000     0.00000000     0.00000000
 C      1   0   0     1.410008019064     0.00000000     0.00000000
 C      2   1   0     1.370795810159   120.09108215     0.00000000
 C      3   2   1     1.416818360384   123.13801617   359.53512012
 C      4   3   2     1.415935964168   115.89217575     0.94110644
 C      5   4   3     1.359321463907   122.07253040   359.24747064
 C      4   3   2     1.400660814779   119.44294315   179.28237687
 C      7   4   3     1.402080893305   118.95422740     0.03946050
 C      8   7   4     1.416425467299   119.37975505   359.38022794
 C      9   8   7     1.371096232529   123.15672522   180.52569319
 H     10   9   8     1.079167117934   118.03232479   181.05695899
 C     10   9   8     1.409675418507   120.12358123     0.15228229
 C     12  10   9     1.428184751776   117.49546205   359.30107531
 C     13  12  10     1.359657542058   121.27954174     0.46594666
 H      2   1   3     1.079260555930   121.89809555   178.32727850
 H      5   4   3     1.082270775582   118.68086967   179.33614176
 H      6   5   4     1.079322711987   118.83094548   180.83913328
 H     13  12  10     1.079181054806   119.88557379   179.98197007
 H     14  13  12     1.082524584680   118.99062475   180.28621080
 O      3   2   1     1.355718177270   116.23035743   178.71618107
 C      7   4   3     1.480088247614   120.39604792   177.35887591
 C     21   7   4     1.394002172272   117.53867422   290.81523187
 C     21   7   4     1.404510573011   123.76602437   114.21014090
 C     22  21   7     1.384822124183   121.14202512   183.62024656
 H     22  21   7     1.082970424176   118.87924137     2.54815138
 C     23  21   7     1.393747923354   119.61979725   175.40754349
 C     26  23  21     1.381671262363   121.02820260     1.21453095
 H     24  22  21     1.082474844203   119.59260554   179.96528937
 H     26  23  21     1.082278384426   118.34264382   180.12052028
 H     27  26  23     1.082031926794   120.04897636   179.29955258
 N      1   2   3     1.346961919305   121.47628019   179.96887911
 C     31   1   2     1.461723106327   122.44276699   174.64971770
 H     32  31   1     1.089140629233   109.37777695   323.90560034
 H     32  31   1     1.090390815127   106.58324568   209.74185910
 C     32  31   1     1.511922671230   112.86915796    88.38155944
 H     35  32  31     1.090116533164   111.09150629    58.32312431
 H     35  32  31     1.089376827516   110.33901184   177.93004233
 H     35  32  31     1.089958625120   111.40786714   297.91141800
 C     23  21   7     1.481204675803   123.91999317   354.68999759
 O     39  23  21     1.337404863465   113.42634588   333.06710743
 O     39  23  21     1.212577014144   123.69172666   154.79675310
 C     31   1   2     1.460459785631   121.94109035   355.35883374
 H     42  31   1     1.090301986984   106.72391760   208.95200745
 H     42  31   1     1.089680512537   109.17586474   323.22581346
 C     42  31   1     1.512592710565   112.86170716    87.48946971
 H     45  42  31     1.089293943702   110.32778072   178.57858681
 H     45  42  31     1.089881571334   111.45896885   298.58421593
 H     45  42  31     1.090055734712   111.04946872    59.00098208
 C     12  10   9     2.455882217746    91.26384766   177.17030934
 H     49  12  10     1.089591242247    86.25900538   322.54615010
 H     49  12  10     1.090489860144   129.91361989   214.59148892
 C     12  10   9     2.462454997684   151.44713899   183.62504021
 H     52  12  10     1.089152005509    86.94348737   138.27548660
 H     52  12  10     1.090184905963   129.83972755    29.97072666
 C     52  12  10     1.512125765861   109.07715303   249.75961955
 H     55  52  12     1.089365685231   110.34186003   207.15419557
 H     55  52  12     1.089998998613   111.43457337   327.14782833
 H     55  52  12     1.090092613916   111.07423588    87.55978982
 C     49  12  10     1.512458016595   109.34525760    73.73295169
 H     59  49  12     1.090097017496   111.05988636    88.51795146
 H     59  49  12     1.089315967022   110.31712781   208.07498578
 H     59  49  12     1.089899455795   111.49330900   328.07238757
 N     12  10   9     1.347261535519   121.50443223   179.36743513
 H     40  39  23     0.971278122967   108.18224386   179.57576254

---------------------------
INTERNAL COORDINATES (A.U.)
---------------------------
 C      0   0   0     0.000000000000     0.00000000     0.00000000
 C      1   0   0     2.664529002665     0.00000000     0.00000000
 C      2   1   0     2.590428666728   120.09108215     0.00000000
 C      3   2   1     2.677398682638   123.13801617   359.53512012
 C      4   3   2     2.675731195448   115.89217575     0.94110644
 C      5   4   3     2.568745294744   122.07253040   359.24747064
 C      4   3   2     2.646865346447   119.44294315   179.28237687
 C      7   4   3     2.649548905950   118.95422740     0.03946050
 C      8   7   4     2.676656222306   119.37975505   359.38022794
 C      9   8   7     2.590996382730   123.15672522   180.52569319
 H     10   9   8     2.039330305628   118.03232479   181.05695899
 C     10   9   8     2.663900478700   120.12358123     0.15228229
 C     12  10   9     2.698878049499   117.49546205   359.30107531
 C     13  12  10     2.569380390409   121.27954174     0.46594666
 H      2   1   3     2.039506877852   121.89809555   178.32727850
 H      5   4   3     2.045195368596   118.68086967   179.33614176
 H      6   5   4     2.039624335776   118.83094548   180.83913328
 H     13  12  10     2.039356642500   119.88557379   179.98197007
 H     14  13  12     2.045674998282   118.99062475   180.28621080
 O      3   2   1     2.561936069820   116.23035743   178.71618107
 C      7   4   3     2.796961442026   120.39604792   177.35887591
 C     21   7   4     2.634282335685   117.53867422   290.81523187
 C     21   7   4     2.654140335188   123.76602437   114.21014090
 C     22  21   7     2.616934558900   121.14202512   183.62024656
 H     22  21   7     2.046517512829   118.87924137     2.54815138
 C     23  21   7     2.633801874861   119.61979725   175.40754349
 C     26  23  21     2.610980292976   121.02820260     1.21453095
 H     24  22  21     2.045581002403   119.59260554   179.96528937
 H     26  23  21     2.045209747228   118.34264382   180.12052028
 H     27  26  23     2.044744009799   120.04897636   179.29955258
 N      1   2   3     2.545389140308   121.47628019   179.96887911
 C     31   1   2     2.762256354583   122.44276699   174.64971770
 H     32  31   1     2.058177510577   109.37777695   323.90560034
 H     32  31   1     2.060540019534   106.58324568   209.74185910
 C     32  31   1     2.857119784291   112.86915796    88.38155944
 H     35  32  31     2.060021701739   111.09150629    58.32312431
 H     35  32  31     2.058623860645   110.33901184   177.93004233
 H     35  32  31     2.059723298783   111.40786714   297.91141800
 C     23  21   7     2.799071185551   123.91999317   354.68999759
 O     39  23  21     2.527328922123   113.42634588   333.06710743
 O     39  23  21     2.291438473020   123.69172666   154.79675310
 C     31   1   2     2.759869024448   121.94109035   355.35883374
 H     42  31   1     2.060372158671   106.72391760   208.95200745
 H     42  31   1     2.059197742166   109.17586474   323.22581346
 C     42  31   1     2.858385975133   112.86170716    87.48946971
 H     45  42  31     2.058467232936   110.32778072   178.57858681
 H     45  42  31     2.059577688229   111.45896885   298.58421593
 H     45  42  31     2.059906809316   111.04946872    59.00098208
 C     12  10   9     4.640944808708    91.26384766   177.17030934
 H     49  12  10     2.059029045766    86.25900538   322.54615010
 H     49  12  10     2.060727187489   129.91361989   214.59148892
 C     12  10   9     4.653365562729   151.44713899   183.62504021
 H     52  12  10     2.058199008624    86.94348737   138.27548660
 H     52  12  10     2.060150907605   129.83972755    29.97072666
 C     52  12  10     2.857503577523   109.07715303   249.75961955
 H     55  52  12     2.058602804777   110.34186003   207.15419557
 H     55  52  12     2.059799593627   111.43457337   327.14782833
 H     55  52  12     2.059976500911   111.07423588    87.55978982
 C     49  12  10     2.858131440418   109.34525760    73.73295169
 H     59  49  12     2.059984822472   111.05988636    88.51795146
 H     59  49  12     2.058508850980   110.31712781   208.07498578
 H     59  49  12     2.059611484962   111.49330900   328.07238757
 N     12  10   9     2.545955332898   121.50443223   179.36743513
 H     40  39  23     1.835449652276   108.18224386   179.57576254

---------------------
BASIS SET INFORMATION
---------------------
There are 4 groups of distinct atoms

 Group   1 Type C   : 11s6p2d1f contracted to 5s3p2d1f pattern {62111/411/11/1}
 Group   2 Type H   : 5s1p contracted to 3s1p pattern {311/1}
 Group   3 Type O   : 11s6p2d1f contracted to 5s3p2d1f pattern {62111/411/11/1}
 Group   4 Type N   : 11s6p2d1f contracted to 5s3p2d1f pattern {62111/411/11/1}

Atom   0C    basis set group =>   1
Atom   1C    basis set group =>   1
Atom   2C    basis set group =>   1
Atom   3C    basis set group =>   1
Atom   4C    basis set group =>   1
Atom   5C    basis set group =>   1
Atom   6C    basis set group =>   1
Atom   7C    basis set group =>   1
Atom   8C    basis set group =>   1
Atom   9C    basis set group =>   1
Atom  10H    basis set group =>   2
Atom  11C    basis set group =>   1
Atom  12C    basis set group =>   1
Atom  13C    basis set group =>   1
Atom  14H    basis set group =>   2
Atom  15H    basis set group =>   2
Atom  16H    basis set group =>   2
Atom  17H    basis set group =>   2
Atom  18H    basis set group =>   2
Atom  19O    basis set group =>   3
Atom  20C    basis set group =>   1
Atom  21C    basis set group =>   1
Atom  22C    basis set group =>   1
Atom  23C    basis set group =>   1
Atom  24H    basis set group =>   2
Atom  25C    basis set group =>   1
Atom  26C    basis set group =>   1
Atom  27H    basis set group =>   2
Atom  28H    basis set group =>   2
Atom  29H    basis set group =>   2
Atom  30N    basis set group =>   4
Atom  31C    basis set group =>   1
Atom  32H    basis set group =>   2
Atom  33H    basis set group =>   2
Atom  34C    basis set group =>   1
Atom  35H    basis set group =>   2
Atom  36H    basis set group =>   2
Atom  37H    basis set group =>   2
Atom  38C    basis set group =>   1
Atom  39O    basis set group =>   3
Atom  40O    basis set group =>   3
Atom  41C    basis set group =>   1
Atom  42H    basis set group =>   2
Atom  43H    basis set group =>   2
Atom  44C    basis set group =>   1
Atom  45H    basis set group =>   2
Atom  46H    basis set group =>   2
Atom  47H    basis set group =>   2
Atom  48C    basis set group =>   1
Atom  49H    basis set group =>   2
Atom  50H    basis set group =>   2
Atom  51C    basis set group =>   1
Atom  52H    basis set group =>   2
Atom  53H    basis set group =>   2
Atom  54C    basis set group =>   1
Atom  55H    basis set group =>   2
Atom  56H    basis set group =>   2
Atom  57H    basis set group =>   2
Atom  58C    basis set group =>   1
Atom  59H    basis set group =>   2
Atom  60H    basis set group =>   2
Atom  61H    basis set group =>   2
Atom  62N    basis set group =>   4
Atom  63H    basis set group =>   2
---------------------------------
AUXILIARY/J BASIS SET INFORMATION
---------------------------------
There are 4 groups of distinct atoms

 Group   1 Type C   : 12s5p4d2f1g contracted to 6s4p3d1f1g pattern {711111/2111/211/2/1}
 Group   2 Type H   : 5s2p1d contracted to 3s1p1d pattern {311/2/1}
 Group   3 Type O   : 12s5p4d2f1g contracted to 6s4p3d1f1g pattern {711111/2111/211/2/1}
 Group   4 Type N   : 12s5p4d2f1g contracted to 6s4p3d1f1g pattern {711111/2111/211/2/1}

Atom   0C    basis set group =>   1
Atom   1C    basis set group =>   1
Atom   2C    basis set group =>   1
Atom   3C    basis set group =>   1
Atom   4C    basis set group =>   1
Atom   5C    basis set group =>   1
Atom   6C    basis set group =>   1
Atom   7C    basis set group =>   1
Atom   8C    basis set group =>   1
Atom   9C    basis set group =>   1
Atom  10H    basis set group =>   2
Atom  11C    basis set group =>   1
Atom  12C    basis set group =>   1
Atom  13C    basis set group =>   1
Atom  14H    basis set group =>   2
Atom  15H    basis set group =>   2
Atom  16H    basis set group =>   2
Atom  17H    basis set group =>   2
Atom  18H    basis set group =>   2
Atom  19O    basis set group =>   3
Atom  20C    basis set group =>   1
Atom  21C    basis set group =>   1
Atom  22C    basis set group =>   1
Atom  23C    basis set group =>   1
Atom  24H    basis set group =>   2
Atom  25C    basis set group =>   1
Atom  26C    basis set group =>   1
Atom  27H    basis set group =>   2
Atom  28H    basis set group =>   2
Atom  29H    basis set group =>   2
Atom  30N    basis set group =>   4
Atom  31C    basis set group =>   1
Atom  32H    basis set group =>   2
Atom  33H    basis set group =>   2
Atom  34C    basis set group =>   1
Atom  35H    basis set group =>   2
Atom  36H    basis set group =>   2
Atom  37H    basis set group =>   2
Atom  38C    basis set group =>   1
Atom  39O    basis set group =>   3
Atom  40O    basis set group =>   3
Atom  41C    basis set group =>   1
Atom  42H    basis set group =>   2
Atom  43H    basis set group =>   2
Atom  44C    basis set group =>   1
Atom  45H    basis set group =>   2
Atom  46H    basis set group =>   2
Atom  47H    basis set group =>   2
Atom  48C    basis set group =>   1
Atom  49H    basis set group =>   2
Atom  50H    basis set group =>   2
Atom  51C    basis set group =>   1
Atom  52H    basis set group =>   2
Atom  53H    basis set group =>   2
Atom  54C    basis set group =>   1
Atom  55H    basis set group =>   2
Atom  56H    basis set group =>   2
Atom  57H    basis set group =>   2
Atom  58C    basis set group =>   1
Atom  59H    basis set group =>   2
Atom  60H    basis set group =>   2
Atom  61H    basis set group =>   2
Atom  62N    basis set group =>   4
Atom  63H    basis set group =>   2
---------------------------------
AUXILIARY/C BASIS SET INFORMATION
---------------------------------
There are 4 groups of distinct atoms

 Group   1 Type C   : 8s6p5d3f1g contracted to 8s6p4d3f1g pattern {11111111/111111/2111/111/1}
 Group   2 Type H   : 4s3p2d contracted to 4s2p1d pattern {1111/21/2}
 Group   3 Type O   : 8s6p5d3f1g contracted to 8s6p4d3f1g pattern {11111111/111111/2111/111/1}
 Group   4 Type N   : 8s6p5d3f1g contracted to 8s6p4d3f1g pattern {11111111/111111/2111/111/1}

Atom   0C    basis set group =>   1
Atom   1C    basis set group =>   1
Atom   2C    basis set group =>   1
Atom   3C    basis set group =>   1
Atom   4C    basis set group =>   1
Atom   5C    basis set group =>   1
Atom   6C    basis set group =>   1
Atom   7C    basis set group =>   1
Atom   8C    basis set group =>   1
Atom   9C    basis set group =>   1
Atom  10H    basis set group =>   2
Atom  11C    basis set group =>   1
Atom  12C    basis set group =>   1
Atom  13C    basis set group =>   1
Atom  14H    basis set group =>   2
Atom  15H    basis set group =>   2
Atom  16H    basis set group =>   2
Atom  17H    basis set group =>   2
Atom  18H    basis set group =>   2
Atom  19O    basis set group =>   3
Atom  20C    basis set group =>   1
Atom  21C    basis set group =>   1
Atom  22C    basis set group =>   1
Atom  23C    basis set group =>   1
Atom  24H    basis set group =>   2
Atom  25C    basis set group =>   1
Atom  26C    basis set group =>   1
Atom  27H    basis set group =>   2
Atom  28H    basis set group =>   2
Atom  29H    basis set group =>   2
Atom  30N    basis set group =>   4
Atom  31C    basis set group =>   1
Atom  32H    basis set group =>   2
Atom  33H    basis set group =>   2
Atom  34C    basis set group =>   1
Atom  35H    basis set group =>   2
Atom  36H    basis set group =>   2
Atom  37H    basis set group =>   2
Atom  38C    basis set group =>   1
Atom  39O    basis set group =>   3
Atom  40O    basis set group =>   3
Atom  41C    basis set group =>   1
Atom  42H    basis set group =>   2
Atom  43H    basis set group =>   2
Atom  44C    basis set group =>   1
Atom  45H    basis set group =>   2
Atom  46H    basis set group =>   2
Atom  47H    basis set group =>   2
Atom  48C    basis set group =>   1
Atom  49H    basis set group =>   2
Atom  50H    basis set group =>   2
Atom  51C    basis set group =>   1
Atom  52H    basis set group =>   2
Atom  53H    basis set group =>   2
Atom  54C    basis set group =>   1
Atom  55H    basis set group =>   2
Atom  56H    basis set group =>   2
Atom  57H    basis set group =>   2
Atom  58C    basis set group =>   1
Atom  59H    basis set group =>   2
Atom  60H    basis set group =>   2
Atom  61H    basis set group =>   2
Atom  62N    basis set group =>   4
Atom  63H    basis set group =>   2


           ************************************************************
           *        Program running with 4 parallel MPI-processes     *
           *              working on a common directory               *
           ************************************************************
------------------------------------------------------------------------------
                           ORCA GTO INTEGRAL CALCULATION
                           -- RI-GTO INTEGRALS CHOSEN --
------------------------------------------------------------------------------
------------------------------------------------------------------------------
                   ___                                                        
                  /   \      - P O W E R E D   B Y -                         
                 /     \                                                     
                 |  |  |   _    _      __       _____    __    __             
                 |  |  |  | |  | |    /  \     |  _  \  |  |  /  |          
                  \  \/   | |  | |   /    \    | | | |  |  | /  /          
                 / \  \   | |__| |  /  /\  \   | |_| |  |  |/  /          
                |  |  |   |  __  | /  /__\  \  |    /   |      \           
                |  |  |   | |  | | |   __   |  |    \   |  |\   \          
                \     /   | |  | | |  |  |  |  | |\  \  |  | \   \       
                 \___/    |_|  |_| |__|  |__|  |_| \__\ |__|  \__/        
                                                                              
                      - O R C A' S   B I G   F R I E N D -                    
                                      &                                       
                       - I N T E G R A L  F E E D E R -                       
                                                                              
 v1 FN, 2020, v2 2021                                                         
------------------------------------------------------------------------------


Reading SHARK input file Rh_B_M06L_def2TZVP_coords.SHARKINP.tmp ... ok
----------------------
SHARK INTEGRAL PACKAGE
----------------------

Number of atoms                             ...     64
Number of basis functions                   ...   1209
Number of shells                            ...    487
Maximum angular momentum                    ...      3
Integral batch strategy                     ... SHARK/LIBINT Hybrid
RI-J (if used) integral strategy            ... SPLIT-RIJ (Revised 2003 algorithm where possible)
Printlevel                                  ...      1
Contraction scheme used                     ... SEGMENTED contraction
Coulomb Range Separation                    ... NOT USED
Exchange Range Separation                   ... Long Range
   Mu parameter                             ...  0.180000
   Scaling (regular/separated)              ...  0.700000  0.300000
Finite Nucleus Model                        ... NOT USED
Auxiliary Coulomb fitting basis             ... AVAILABLE
   # of basis functions in Aux-J            ...   1958
   # of shells in Aux-J                     ...    650
   Maximum angular momentum in Aux-J        ...      4
Auxiliary J/K fitting basis                 ... NOT available
Auxiliary Correlation fitting basis         ... AVAILABLE
   # of basis functions in Aux-C            ...   2973
   # of shells in Aux-C                     ...    943
   Maximum angular momentum in Aux-C        ...      4
Auxiliary 'external' fitting basis          ... NOT available
Integral threshold                          ...     2.500000e-11
Primitive cut-off                           ...     2.500000e-12
Primitive pair pre-selection threshold      ...     2.500000e-12

Calculating pre-screening integrals         ... done (  0.3 sec) Dimension = 487
Organizing shell pair data                  ... done (  1.6 sec)
Shell pair information
Total number of shell pairs                 ...    118828
Shell pairs after pre-screening             ...     67079
Total number of primitive shell pairs       ...    359100
Primitive shell pairs kept                  ...    130590
          la=0 lb=0:  18001 shell pairs
          la=1 lb=0:  19892 shell pairs
          la=1 lb=1:   5508 shell pairs
          la=2 lb=0:   9191 shell pairs
          la=2 lb=1:   5159 shell pairs
          la=2 lb=2:   1214 shell pairs
          la=3 lb=0:   4292 shell pairs
          la=3 lb=1:   2448 shell pairs
          la=3 lb=2:   1102 shell pairs
          la=3 lb=3:    272 shell pairs

Calculating one electron integrals          ... done (  0.5 sec)
Calculating RI/J V-Matrix + Cholesky decomp.... done (  0.3 sec)
Calculating RI/C V-Matrix + Cholesky decomp.... done (  0.7 sec)
Calculating Nuclear repulsion               ... done (  0.0 sec) ENN=   3335.373366877639 Eh

SHARK setup successfully completed in   4.4 seconds

Maximum memory used throughout the entire GTOINT-calculation: 136.7 MB


           ************************************************************
           *        Program running with 4 parallel MPI-processes     *
           *              working on a common directory               *
           ************************************************************
-------------------------------------------------------------------------------
                                 ORCA SCF
-------------------------------------------------------------------------------

------------
SCF SETTINGS
------------
Hamiltonian:
 Density Functional     Method          .... DFT(GTOs)
 Exchange Functional    Exchange        .... LC-PBE
 Correlation Functional Correlation     .... P86
 LDA part of GGA corr.  LDAOpt          .... VWN-5
 Gradients option       PostSCFGGA      .... off
 Hybrid DFT is turned on
   Fraction HF Exchange ScalHFX         ....  0.700000
   Scaling of DF-GGA-X  ScalDFX         ....  0.000000
   Scaling of DF-GGA-C  ScalDFC         ....  0.680000
   Scaling of DF-LDA-C  ScalLDAC        ....  0.680000
   Perturbative correction              ....  0.480000
   Density functional embedding theory  .... OFF
 Long-range corrected/Screened/Range-Separated Hybrid DFT is turned on
   Amount of maximum screened exact exchange              ....  0.300000
   Range separation parameter mu (erf(mu*r12)/r12)        ....  0.180000
 RI-approximation to the Coulomb term is turned on
   Number of AuxJ basis functions       .... 1958
   RIJ-COSX (HFX calculated with COS-X)).... on


General Settings:
 Integral files         IntName         .... Rh_B_M06L_def2TZVP_coords
 Hartree-Fock type      HFTyp           .... RHF
 Total Charge           Charge          ....    1
 Multiplicity           Mult            ....    1
 Number of Electrons    NEL             ....  236
 Basis Dimension        Dim             .... 1209
 Nuclear Repulsion      ENuc            ....   3335.3733668776 Eh

Convergence Acceleration:
 DIIS                   CNVDIIS         .... on
   Start iteration      DIISMaxIt       ....    12
   Startup error        DIISStart       ....  0.200000
   # of expansion vecs  DIISMaxEq       ....     5
   Bias factor          DIISBfac        ....   1.050
   Max. coefficient     DIISMaxC        ....  10.000
 Trust-Rad. Augm. Hess. CNVTRAH         .... auto
   Auto Start mean grad. ratio tolernc. ....  1.125000
   Auto Start start iteration           ....    20
   Auto Start num. interpolation iter.  ....    10
   Max. Number of Micro iterations      ....    16
   Max. Number of Macro iterations      .... Maxiter - #DIIS iter
   Number of Davidson start vectors     ....     2
   Converg. threshold I  (grad. norm)   ....   1.000e-05
   Converg. threshold II (energy diff.) ....   1.000e-08
   Grad. Scal. Fac. for Micro threshold ....   0.100
   Minimum threshold for Micro iter.    ....   0.010
   NR start threshold (gradient norm)   ....   0.001
   Initial trust radius                 ....   0.400
   Minimum AH scaling param. (alpha)    ....   1.000
   Maximum AH scaling param. (alpha)    .... 1000.000
   Orbital update algorithm             .... Taylor
   White noise on init. David. guess    .... on
   Maximum white noise                  ....   0.010
   Quad. conv. algorithm                .... NR
 SOSCF                  CNVSOSCF        .... on
   Start iteration      SOSCFMaxIt      ....   150
   Startup grad/error   SOSCFStart      ....  0.003300
 Level Shifting         CNVShift        .... on
   Level shift para.    LevelShift      ....    0.2500
   Turn off err/grad.   ShiftErr        ....    0.0010
 Zerner damping         CNVZerner       .... off
 Static damping         CNVDamp         .... on
   Fraction old density DampFac         ....    0.7000
   Max. Damping (<1)    DampMax         ....    0.9800
   Min. Damping (>=0)   DampMin         ....    0.0000
   Turn off err/grad.   DampErr         ....    0.1000
 Fernandez-Rico         CNVRico         .... off

SCF Procedure:
 Maximum # iterations   MaxIter         ....   125
 SCF integral mode      SCFMode         .... Direct
   Integral package                     .... SHARK and LIBINT hybrid scheme
 Reset frequency        DirectResetFreq ....    20
 Integral Threshold     Thresh          ....  2.500e-11 Eh
 Primitive CutOff       TCut            ....  2.500e-12 Eh

Convergence Tolerance:
 Convergence Check Mode ConvCheckMode   .... Total+1el-Energy
 Convergence forced     ConvForced      .... 1
 Energy Change          TolE            ....  1.000e-08 Eh
 1-El. energy change                    ....  1.000e-05 Eh
 Orbital Gradient       TolG            ....  1.000e-05
 Orbital Rotation angle TolX            ....  1.000e-05
 DIIS Error             TolErr          ....  5.000e-07


Diagonalization of the overlap matrix:
Smallest eigenvalue                        ... 4.276e-06
Time for diagonalization                   ...    0.407 sec
Threshold for overlap eigenvalues          ... 1.000e-08
Number of eigenvalues below threshold      ... 0
Time for construction of square roots      ...    0.280 sec
Total time needed                          ...    0.692 sec

Time for model grid setup =    1.644 sec

------------------------------
INITIAL GUESS: MODEL POTENTIAL
------------------------------
Loading Hartree-Fock densities                     ... done
Calculating cut-offs                               ... done
Initializing the effective Hamiltonian             ... done
Setting up the integral package (SHARK)            ... done
Starting the Coulomb interaction                   ... done (   5.3 sec)
Reading the grid                                   ... done
Mapping shells                                     ... done
Starting the XC term evaluation                    ... done (   2.4 sec)
  promolecular density results
     # of electrons  =    236.994652319
     EX              =   -182.609491038
     EC              =     -3.923193467
     EX+EC           =   -186.532684505
Transforming the Hamiltonian                       ... done (   0.3 sec)
Diagonalizing the Hamiltonian                      ... done (   0.5 sec)
Back transforming the eigenvectors                 ... done (   0.1 sec)
Now organizing SCF variables                       ... done
                      ------------------
                      INITIAL GUESS DONE (  10.2 sec)
                      ------------------
-------------------
DFT GRID GENERATION
-------------------

General Integration Accuracy     IntAcc      ... 4.388
Radial Grid Type                 RadialGrid  ... OptM3 with GC (2021)
Angular Grid (max. ang.)         AngularGrid ... 4 (Lebedev-302)
Angular grid pruning method      GridPruning ... 4 (adaptive)
Weight generation scheme         WeightScheme... Becke
Basis function cutoff            BFCut       ... 1.0000e-11
Integration weight cutoff        WCut        ... 1.0000e-14
Angular grids for H and He will be reduced by one unit
Partially contracted basis set               ... off
Rotationally invariant grid construction     ... off

Total number of grid points                  ...   294392
Total number of batches                      ...     4630
Average number of points per batch           ...       63
Average number of grid points per atom       ...     4600
Time for grid setup =    5.843 sec

--------------------
COSX GRID GENERATION
--------------------

GRIDX 1
-------
General Integration Accuracy     IntAcc      ... 3.816
Radial Grid Type                 RadialGrid  ... OptM3 with GC (2021)
Angular Grid (max. ang.)         AngularGrid ... 1 (Lebedev-50)
Angular grid pruning method      GridPruning ... 4 (adaptive)
Weight generation scheme         WeightScheme... Becke
Basis function cutoff            BFCut       ... 1.0000e-11
Integration weight cutoff        WCut        ... 1.0000e-14
Angular grids for H and He will be reduced by one unit
Partially contracted basis set               ... on
Rotationally invariant grid construction     ... off

Total number of grid points                  ...    37411
Total number of batches                      ...      620
Average number of points per batch           ...       60
Average number of grid points per atom       ...      585
UseSFitting                                  ... on

GRIDX 2
-------
General Integration Accuracy     IntAcc      ... 4.020
Radial Grid Type                 RadialGrid  ... OptM3 with GC (2021)
Angular Grid (max. ang.)         AngularGrid ... 2 (Lebedev-110)
Angular grid pruning method      GridPruning ... 4 (adaptive)
Weight generation scheme         WeightScheme... Becke
Basis function cutoff            BFCut       ... 1.0000e-11
Integration weight cutoff        WCut        ... 1.0000e-14
Angular grids for H and He will be reduced by one unit
Partially contracted basis set               ... on
Rotationally invariant grid construction     ... off

Total number of grid points                  ...    79674
Total number of batches                      ...     1277
Average number of points per batch           ...       62
Average number of grid points per atom       ...     1245
UseSFitting                                  ... on

GRIDX 3
-------
General Integration Accuracy     IntAcc      ... 4.338
Radial Grid Type                 RadialGrid  ... OptM3 with GC (2021)
Angular Grid (max. ang.)         AngularGrid ... 3 (Lebedev-194)
Angular grid pruning method      GridPruning ... 4 (adaptive)
Weight generation scheme         WeightScheme... Becke
Basis function cutoff            BFCut       ... 1.0000e-11
Integration weight cutoff        WCut        ... 1.0000e-14
Angular grids for H and He will be reduced by one unit
Partially contracted basis set               ... on
Rotationally invariant grid construction     ... off

Total number of grid points                  ...   173677
Total number of batches                      ...     2747
Average number of points per batch           ...       63
Average number of grid points per atom       ...     2714
UseSFitting                                  ... on

Time for X-Grid setup             =   11.697 sec


--------------------
CPCM SOLVATION MODEL
--------------------
CPCM parameters:
  Epsilon                                         ...      24.8520
  Refrac                                          ...       1.3611
  Rsolv                                           ...       1.3000
  Surface type                                    ... GAUSSIAN VDW
  Epsilon function type                           ...         CPCM
Solvent:                                     ... ETHANOL
SMD-CDS solvent descriptors:
  Soln                                       ...    1.3611
  Soln25                                     ...    1.3593
  Sola                                       ...    0.3700
  Solb                                       ...    0.4800
  Solg                                       ...   31.6200
  Solc                                       ...    0.0000
  Solh                                       ...    0.0000
Radii:
 Radius for C  used is    3.4960 Bohr (=   1.8500 Ang.)
 Radius for H  used is    2.2677 Bohr (=   1.2000 Ang.)
 Radius for O  used is    3.0765 Bohr (=   1.6280 Ang.)
 Radius for N  used is    3.5716 Bohr (=   1.8900 Ang.)
Calculating surface                               ...        done! (  0.0s)
GEPOL surface points                              ...         3653
GEPOL Volume                                      ...    3080.5856
GEPOL Surface-area                                ...    1709.2145
Calculating surface distance matrix               ...        done! (  0.1s)
Performing Cholesky decomposition & store         ...        done! (  1.1s)
Overall time for CPCM initialization              ...                 1.3s
--------------
SCF ITERATIONS
--------------
ITER       Energy         Delta-E        Max-DP      RMS-DP      [F,P]     Damp
               ***  Starting incremental Fock matrix formation  ***
  0  -1416.4500808326   0.000000000000 0.03810692  0.00046938  0.2476382 0.7000
  1  -1416.7454370274  -0.295356194845 0.02306349  0.00038056  0.1345582 0.7000
                               ***Turning on DIIS***
  2  -1416.9174499298  -0.172012902397 0.07198225  0.00087821  0.0655104 0.0000
  3  -1417.2383361777  -0.320886247897 0.05065186  0.00027403  0.0530332 0.0000
  4  -1417.2635037669  -0.025167589178 0.01528173  0.00010812  0.0105296 0.0000
  5  -1417.2647778802  -0.001274113291 0.00700607  0.00005006  0.0074262 0.0000
                      *** Initiating the SOSCF procedure ***
                           *** Shutting down DIIS ***
                      *** Re-Reading the Fockian *** 
                      *** Removing any level shift *** 
ITER      Energy       Delta-E        Grad      Rot      Max-DP    RMS-DP
  6  -1417.26517026  -0.0003923824  0.002457  0.002457  0.003267  0.000026
               *** Restarting incremental Fock matrix formation ***
  7  -1417.26532364  -0.0001533738  0.001444  0.004466  0.025130  0.000208
  8  -1417.26538194  -0.0000583079  0.000652  0.004884  0.010234  0.000088
  9  -1417.26540096  -0.0000190183  0.000257  0.000387  0.009029  0.000075
 10  -1417.26540433  -0.0000033709  0.000062  0.000208  0.000562  0.000005
 11  -1417.26540474  -0.0000004074  0.000026  0.000079  0.000506  0.000004
 12  -1417.26540482  -0.0000000819  0.000013  0.000078  0.000330  0.000002
 13  -1417.26540489  -0.0000000629  0.000004  0.000022  0.000261  0.000001
 14  -1417.26540487   0.0000000120  0.000003  0.000007  0.000441  0.000002
                  ***Gradient check signals convergence***
              ***Rediagonalizing the Fockian in SOSCF/NRSCF***

               *****************************************************
               *                     SUCCESS                       *
               *           SCF CONVERGED AFTER  15 CYCLES          *
               *****************************************************

Old exchange energy                            =   -143.001579397 Eh
New exchange energy                            =   -143.001507498 Eh
Exchange energy change after final integration =      0.000071900 Eh
Total energy after final integration           =  -1417.265332944 Eh
Final COS-X integration done in                =   495.522 sec

SMD CDS free energy correction energy :                -1.41803     Kcal/mol
Total Energy after SMD CDS correction =             -1417.267592722 Eh

----------------
TOTAL SCF ENERGY
----------------

Total Energy       :        -1417.26759272 Eh          -38565.81185 eV

Components:
Nuclear Repulsion  :         3335.37336688 Eh           90760.12347 eV
Electronic Energy  :        -4752.64095960 Eh         -129325.93531 eV
One Electron Energy:        -8533.43364770 Eh         -232206.53471 eV
Two Electron Energy:         3780.79268810 Eh          102880.59939 eV
Max COSX asymmetry :            0.00000631 Eh               0.00017 eV
CPCM Dielectric    :           -0.08564484 Eh              -2.33051 eV
SMD CDS (Gcds)     :           -0.00225978 Eh              -0.06149 eV

Virial components:
Potential Energy   :        -2828.62723004 Eh          -76970.86005 eV
Kinetic Energy     :         1411.35963732 Eh           38405.04821 eV
Virial Ratio       :            2.00418600


DFT components:
N(Alpha)           :      117.999995840851 electrons
N(Beta)            :      117.999995840851 electrons
N(Total)           :      235.999991681703 electrons
E(X)               :      -50.431761742317 Eh       
E(C)               :       -5.928520364967 Eh       
E(XC)              :      -56.360282107284 Eh       
DFET-embed. en.    :        0.000000000000 Eh       
CPCM Solvation Model Properties:
Surface-charge          :           -1.07330250
Charge-correction       :            0.00650610 Eh               0.17704 eV
Free-energy (cav+disp)  :           -0.00225978 Eh              -0.06149 eV

---------------
SCF CONVERGENCE
---------------

  Last Energy change         ...    3.0326e-08  Tolerance :   1.0000e-08
  Last MAX-Density change    ...    2.9976e-15  Tolerance :   1.0000e-07
  Last RMS-Density change    ...    1.1778e-17  Tolerance :   5.0000e-09
  Last Orbital Gradient      ...    4.4400e-07  Tolerance :   1.0000e-05
  Last Orbital Rotation      ...    2.3500e-06  Tolerance :   1.0000e-05

             **** THE GBW FILE WAS UPDATED (Rh_B_M06L_def2TZVP_coords.gbw) ****
             **** DENSITY Rh_B_M06L_def2TZVP_coords.scfp WAS UPDATED ****
             **** ENERGY FILE WAS UPDATED (Rh_B_M06L_def2TZVP_coords.en.tmp) ****
             **** THE GBW FILE WAS UPDATED (Rh_B_M06L_def2TZVP_coords.gbw) ****
             **** DENSITY Rh_B_M06L_def2TZVP_coords.scfp WAS UPDATED ****
----------------
ORBITAL ENERGIES
----------------

  NO   OCC          E(Eh)            E(eV) 
   0   2.0000     -20.152540      -548.3785 
   1   2.0000     -20.119061      -547.4675 
   2   2.0000     -20.063780      -545.9632 
   3   2.0000     -15.169884      -412.7935 
   4   2.0000     -15.169291      -412.7774 
   5   2.0000     -11.032324      -300.2048 
   6   2.0000     -10.976494      -298.6856 
   7   2.0000     -10.976133      -298.6758 
   8   2.0000     -10.953304      -298.0546 
   9   2.0000     -10.952561      -298.0343 
  10   2.0000     -10.951976      -298.0184 
  11   2.0000     -10.916226      -297.0456 
  12   2.0000     -10.906879      -296.7913 
  13   2.0000     -10.898858      -296.5730 
  14   2.0000     -10.898713      -296.5691 
  15   2.0000     -10.896390      -296.5059 
  16   2.0000     -10.896325      -296.5041 
  17   2.0000     -10.893946      -296.4393 
  18   2.0000     -10.893669      -296.4318 
  19   2.0000     -10.893594      -296.4298 
  20   2.0000     -10.893453      -296.4259 
  21   2.0000     -10.889970      -296.3311 
  22   2.0000     -10.888447      -296.2897 
  23   2.0000     -10.887039      -296.2514 
  24   2.0000     -10.882000      -296.1143 
  25   2.0000     -10.877125      -295.9816 
  26   2.0000     -10.877018      -295.9787 
  27   2.0000     -10.871554      -295.8300 
  28   2.0000     -10.871477      -295.8279 
  29   2.0000     -10.844925      -295.1054 
  30   2.0000     -10.844865      -295.1038 
  31   2.0000     -10.844816      -295.1025 
  32   2.0000     -10.844618      -295.0971 
  33   2.0000      -1.405849       -38.2551 
  34   2.0000      -1.395748       -37.9802 
  35   2.0000      -1.295237       -35.2452 
  36   2.0000      -1.221719       -33.2447 
  37   2.0000      -1.221038       -33.2261 
  38   2.0000      -1.145684       -31.1756 
  39   2.0000      -1.118411       -30.4335 
  40   2.0000      -1.111293       -30.2398 
  41   2.0000      -1.057357       -28.7721 
  42   2.0000      -1.018920       -27.7262 
  43   2.0000      -1.006791       -27.3962 
  44   2.0000      -0.998409       -27.1681 
  45   2.0000      -0.995283       -27.0830 
  46   2.0000      -0.991386       -26.9770 
  47   2.0000      -0.987809       -26.8797 
  48   2.0000      -0.969356       -26.3775 
  49   2.0000      -0.952108       -25.9082 
  50   2.0000      -0.930003       -25.3067 
  51   2.0000      -0.887898       -24.1609 
  52   2.0000      -0.869683       -23.6653 
  53   2.0000      -0.866370       -23.5751 
  54   2.0000      -0.848463       -23.0879 
  55   2.0000      -0.837403       -22.7869 
  56   2.0000      -0.830635       -22.6027 
  57   2.0000      -0.813644       -22.1404 
  58   2.0000      -0.800072       -21.7711 
  59   2.0000      -0.792072       -21.5534 
  60   2.0000      -0.784069       -21.3356 
  61   2.0000      -0.778320       -21.1792 
  62   2.0000      -0.726224       -19.7616 
  63   2.0000      -0.724621       -19.7179 
  64   2.0000      -0.715437       -19.4680 
  65   2.0000      -0.698388       -19.0041 
  66   2.0000      -0.690673       -18.7942 
  67   2.0000      -0.681044       -18.5321 
  68   2.0000      -0.673074       -18.3153 
  69   2.0000      -0.666543       -18.1376 
  70   2.0000      -0.657911       -17.9027 
  71   2.0000      -0.655313       -17.8320 
  72   2.0000      -0.651290       -17.7225 
  73   2.0000      -0.639237       -17.3945 
  74   2.0000      -0.632524       -17.2119 
  75   2.0000      -0.622644       -16.9430 
  76   2.0000      -0.614442       -16.7198 
  77   2.0000      -0.611226       -16.6323 
  78   2.0000      -0.610629       -16.6161 
  79   2.0000      -0.606573       -16.5057 
  80   2.0000      -0.593999       -16.1635 
  81   2.0000      -0.590361       -16.0645 
  82   2.0000      -0.581029       -15.8106 
  83   2.0000      -0.579996       -15.7825 
  84   2.0000      -0.577543       -15.7157 
  85   2.0000      -0.576938       -15.6993 
  86   2.0000      -0.576157       -15.6780 
  87   2.0000      -0.569383       -15.4937 
  88   2.0000      -0.564477       -15.3602 
  89   2.0000      -0.545693       -14.8491 
  90   2.0000      -0.544347       -14.8124 
  91   2.0000      -0.529796       -14.4165 
  92   2.0000      -0.529445       -14.4069 
  93   2.0000      -0.526357       -14.3229 
  94   2.0000      -0.525163       -14.2904 
  95   2.0000      -0.520909       -14.1746 
  96   2.0000      -0.514566       -14.0020 
  97   2.0000      -0.510856       -13.9011 
  98   2.0000      -0.508886       -13.8475 
  99   2.0000      -0.507194       -13.8014 
 100   2.0000      -0.504129       -13.7180 
 101   2.0000      -0.495263       -13.4768 
 102   2.0000      -0.488406       -13.2902 
 103   2.0000      -0.484421       -13.1818 
 104   2.0000      -0.482115       -13.1190 
 105   2.0000      -0.478414       -13.0183 
 106   2.0000      -0.477733       -12.9998 
 107   2.0000      -0.468411       -12.7461 
 108   2.0000      -0.465642       -12.6708 
 109   2.0000      -0.457093       -12.4381 
 110   2.0000      -0.454513       -12.3679 
 111   2.0000      -0.426605       -11.6085 
 112   2.0000      -0.390470       -10.6252 
 113   2.0000      -0.376913       -10.2563 
 114   2.0000      -0.372992       -10.1496 
 115   2.0000      -0.356387        -9.6978 
 116   2.0000      -0.337343        -9.1796 
 117   2.0000      -0.288458        -7.8493 
 118   0.0000      -0.032218        -0.8767 
 119   0.0000       0.024385         0.6636 
 120   0.0000       0.054617         1.4862 
 121   0.0000       0.066816         1.8182 
 122   0.0000       0.080941         2.2025 
 123   0.0000       0.085207         2.3186 
 124   0.0000       0.115698         3.1483 
 125   0.0000       0.121096         3.2952 
 126   0.0000       0.128068         3.4849 
 127   0.0000       0.133574         3.6347 
 128   0.0000       0.135284         3.6813 
 129   0.0000       0.144218         3.9244 
 130   0.0000       0.147089         4.0025 
 131   0.0000       0.148383         4.0377 
 132   0.0000       0.153329         4.1723 
 133   0.0000       0.154965         4.2168 
 134   0.0000       0.160078         4.3560 
 135   0.0000       0.161393         4.3917 
 136   0.0000       0.163362         4.4453 
 137   0.0000       0.167877         4.5682 
 138   0.0000       0.169290         4.6066 
 139   0.0000       0.176016         4.7897 
 140   0.0000       0.182748         4.9728 
 141   0.0000       0.183983         5.0064 
 142   0.0000       0.186848         5.0844 
 143   0.0000       0.187652         5.1063 
 144   0.0000       0.192301         5.2328 
 145   0.0000       0.193940         5.2774 
 146   0.0000       0.199128         5.4186 
 147   0.0000       0.203924         5.5491 
 148   0.0000       0.206368         5.6156 
 149   0.0000       0.207440         5.6447 
 150   0.0000       0.216746         5.8979 
 151   0.0000       0.220399         5.9974 
 152   0.0000       0.225573         6.1382 
 153   0.0000       0.226496         6.1633 
 154   0.0000       0.228167         6.2087 
 155   0.0000       0.231756         6.3064 
 156   0.0000       0.234012         6.3678 
 157   0.0000       0.236801         6.4437 
 158   0.0000       0.239634         6.5208 
 159   0.0000       0.240553         6.5458 
 160   0.0000       0.242679         6.6036 
 161   0.0000       0.246017         6.6945 
 162   0.0000       0.247334         6.7303 
 163   0.0000       0.254027         6.9124 
 164   0.0000       0.258637         7.0379 
 165   0.0000       0.260074         7.0770 
 166   0.0000       0.262516         7.1434 
 167   0.0000       0.264563         7.1991 
 168   0.0000       0.271170         7.3789 
 169   0.0000       0.273337         7.4379 
 170   0.0000       0.276065         7.5121 
 171   0.0000       0.281056         7.6479 
 172   0.0000       0.288639         7.8543 
 173   0.0000       0.289639         7.8815 
 174   0.0000       0.291761         7.9392 
 175   0.0000       0.295507         8.0411 
 176   0.0000       0.297423         8.0933 
 177   0.0000       0.299238         8.1427 
 178   0.0000       0.302312         8.2263 
 179   0.0000       0.304605         8.2887 
 180   0.0000       0.309878         8.4322 
 181   0.0000       0.315864         8.5951 
 182   0.0000       0.316972         8.6252 
 183   0.0000       0.322432         8.7738 
 184   0.0000       0.327786         8.9195 
 185   0.0000       0.330377         8.9900 
 186   0.0000       0.332222         9.0402 
 187   0.0000       0.338876         9.2213 
 188   0.0000       0.339541         9.2394 
 189   0.0000       0.343450         9.3457 
 190   0.0000       0.347006         9.4425 
 191   0.0000       0.349773         9.5178 
 192   0.0000       0.352789         9.5999 
 193   0.0000       0.355042         9.6612 
 194   0.0000       0.357367         9.7245 
 195   0.0000       0.357603         9.7309 
 196   0.0000       0.361483         9.8365 
 197   0.0000       0.363381         9.8881 
 198   0.0000       0.367772        10.0076 
 199   0.0000       0.370413        10.0795 
 200   0.0000       0.381037        10.3686 
 201   0.0000       0.383312        10.4304 
 202   0.0000       0.387566        10.5462 
 203   0.0000       0.392016        10.6673 
 204   0.0000       0.394688        10.7400 
 205   0.0000       0.396719        10.7953 
 206   0.0000       0.396853        10.7989 
 207   0.0000       0.401783        10.9331 
 208   0.0000       0.402396        10.9498 
 209   0.0000       0.404727        11.0132 
 210   0.0000       0.408440        11.1142 
 211   0.0000       0.415820        11.3150 
 212   0.0000       0.419820        11.4239 
 213   0.0000       0.421337        11.4652 
 214   0.0000       0.424099        11.5403 
 215   0.0000       0.428527        11.6608 
 216   0.0000       0.433198        11.7879 
 217   0.0000       0.436734        11.8841 
 218   0.0000       0.441809        12.0222 
 219   0.0000       0.445650        12.1267 
 220   0.0000       0.450811        12.2672 
 221   0.0000       0.453751        12.3472 
 222   0.0000       0.458015        12.4632 
 223   0.0000       0.462366        12.5816 
 224   0.0000       0.465307        12.6616 
 225   0.0000       0.468609        12.7515 
 226   0.0000       0.470719        12.8089 
 227   0.0000       0.475669        12.9436 
 228   0.0000       0.484229        13.1765 
 229   0.0000       0.485086        13.1999 
 230   0.0000       0.488193        13.2844 
 231   0.0000       0.491315        13.3694 
 232   0.0000       0.491736        13.3808 
 233   0.0000       0.498245        13.5579 
 234   0.0000       0.498910        13.5760 
 235   0.0000       0.501826        13.6554 
 236   0.0000       0.504707        13.7338 
 237   0.0000       0.507501        13.8098 
 238   0.0000       0.508811        13.8454 
 239   0.0000       0.513312        13.9679 
 240   0.0000       0.516309        14.0495 
 241   0.0000       0.517791        14.0898 
 242   0.0000       0.523734        14.2515 
 243   0.0000       0.526939        14.3387 
 244   0.0000       0.529726        14.4146 
 245   0.0000       0.533859        14.5270 
 246   0.0000       0.534654        14.5487 
 247   0.0000       0.538001        14.6397 
 248   0.0000       0.540679        14.7126 
 249   0.0000       0.544599        14.8193 
 250   0.0000       0.546638        14.8748 
 251   0.0000       0.548881        14.9358 
 252   0.0000       0.551602        15.0099 
 253   0.0000       0.552977        15.0473 
 254   0.0000       0.554638        15.0925 
 255   0.0000       0.555943        15.1280 
 256   0.0000       0.558107        15.1869 
 257   0.0000       0.561878        15.2895 
 258   0.0000       0.564326        15.3561 
 259   0.0000       0.566146        15.4056 
 260   0.0000       0.568850        15.4792 
 261   0.0000       0.570987        15.5374 
 262   0.0000       0.571567        15.5531 
 263   0.0000       0.571984        15.5645 
 264   0.0000       0.575239        15.6530 
 265   0.0000       0.579784        15.7767 
 266   0.0000       0.582687        15.8557 
 267   0.0000       0.583838        15.8870 
 268   0.0000       0.584911        15.9162 
 269   0.0000       0.587455        15.9855 
 270   0.0000       0.589801        16.0493 
 271   0.0000       0.590067        16.0565 
 272   0.0000       0.594159        16.1679 
 273   0.0000       0.600197        16.3322 
 274   0.0000       0.602607        16.3978 
 275   0.0000       0.605149        16.4669 
 276   0.0000       0.607400        16.5282 
 277   0.0000       0.613774        16.7016 
 278   0.0000       0.614239        16.7143 
 279   0.0000       0.621153        16.9024 
 280   0.0000       0.622383        16.9359 
 281   0.0000       0.626959        17.0604 
 282   0.0000       0.628852        17.1119 
 283   0.0000       0.634609        17.2686 
 284   0.0000       0.637703        17.3528 
 285   0.0000       0.640237        17.4217 
 286   0.0000       0.642478        17.4827 
 287   0.0000       0.647316        17.6144 
 288   0.0000       0.655005        17.8236 
 289   0.0000       0.660343        17.9688 
 290   0.0000       0.663263        18.0483 
 291   0.0000       0.670903        18.2562 
 292   0.0000       0.672826        18.3085 
 293   0.0000       0.677555        18.4372 
 294   0.0000       0.681322        18.5397 
 295   0.0000       0.685196        18.6451 
 296   0.0000       0.688589        18.7375 
 297   0.0000       0.699786        19.0422 
 298   0.0000       0.703079        19.1318 
 299   0.0000       0.707601        19.2548 
 300   0.0000       0.711068        19.3492 
 301   0.0000       0.715714        19.4756 
 302   0.0000       0.718602        19.5542 
 303   0.0000       0.719500        19.5786 
 304   0.0000       0.721860        19.6428 
 305   0.0000       0.727512        19.7966 
 306   0.0000       0.728296        19.8179 
 307   0.0000       0.733878        19.9698 
 308   0.0000       0.736041        20.0287 
 309   0.0000       0.736960        20.0537 
 310   0.0000       0.739966        20.1355 
 311   0.0000       0.741797        20.1853 
 312   0.0000       0.750463        20.4211 
 313   0.0000       0.754348        20.5269 
 314   0.0000       0.762017        20.7355 
 315   0.0000       0.765668        20.8349 
 316   0.0000       0.767509        20.8850 
 317   0.0000       0.775837        21.1116 
 318   0.0000       0.776997        21.1432 
 319   0.0000       0.779492        21.2110 
 320   0.0000       0.783351        21.3161 
 321   0.0000       0.787316        21.4240 
 322   0.0000       0.794949        21.6317 
 323   0.0000       0.797285        21.6952 
 324   0.0000       0.799809        21.7639 
 325   0.0000       0.803111        21.8538 
 326   0.0000       0.807424        21.9711 
 327   0.0000       0.814204        22.1556 
 328   0.0000       0.816787        22.2259 
 329   0.0000       0.820524        22.3276 
 330   0.0000       0.825632        22.4666 
 331   0.0000       0.827788        22.5253 
 332   0.0000       0.831330        22.6217 
 333   0.0000       0.836316        22.7573 
 334   0.0000       0.839005        22.8305 
 335   0.0000       0.845005        22.9938 
 336   0.0000       0.849370        23.1125 
 337   0.0000       0.850127        23.1331 
 338   0.0000       0.854549        23.2535 
 339   0.0000       0.856924        23.3181 
 340   0.0000       0.858941        23.3730 
 341   0.0000       0.862725        23.4759 
 342   0.0000       0.864609        23.5272 
 343   0.0000       0.872419        23.7397 
 344   0.0000       0.876456        23.8496 
 345   0.0000       0.883738        24.0477 
 346   0.0000       0.887027        24.1372 
 347   0.0000       0.893049        24.3011 
 348   0.0000       0.899594        24.4792 
 349   0.0000       0.903261        24.5790 
 350   0.0000       0.909219        24.7411 
 351   0.0000       0.910958        24.7884 
 352   0.0000       0.915072        24.9004 
 353   0.0000       0.919544        25.0221 
 354   0.0000       0.920068        25.0363 
 355   0.0000       0.928564        25.2675 
 356   0.0000       0.932343        25.3703 
 357   0.0000       0.938188        25.5294 
 358   0.0000       0.942983        25.6599 
 359   0.0000       0.948552        25.8114 
 360   0.0000       0.951257        25.8850 
 361   0.0000       0.954450        25.9719 
 362   0.0000       0.957718        26.0608 
 363   0.0000       0.961933        26.1755 
 364   0.0000       0.967486        26.3266 
 365   0.0000       0.969686        26.3865 
 366   0.0000       0.976839        26.5811 
 367   0.0000       0.979493        26.6534 
 368   0.0000       0.981619        26.7112 
 369   0.0000       0.984110        26.7790 
 370   0.0000       0.985725        26.8229 
 371   0.0000       0.991508        26.9803 
 372   0.0000       0.994509        27.0620 
 373   0.0000       1.001210        27.2443 
 374   0.0000       1.005248        27.3542 
 375   0.0000       1.010016        27.4839 
 376   0.0000       1.017615        27.6907 
 377   0.0000       1.021936        27.8083 
 378   0.0000       1.024913        27.8893 
 379   0.0000       1.029437        28.0124 
 380   0.0000       1.038037        28.2464 
 381   0.0000       1.042395        28.3650 
 382   0.0000       1.044801        28.4305 
 383   0.0000       1.048177        28.5224 
 384   0.0000       1.058373        28.7998 
 385   0.0000       1.063267        28.9330 
 386   0.0000       1.066410        29.0185 
 387   0.0000       1.076389        29.2900 
 388   0.0000       1.082928        29.4680 
 389   0.0000       1.085798        29.5461 
 390   0.0000       1.086570        29.5671 
 391   0.0000       1.090380        29.6707 
 392   0.0000       1.091889        29.7118 
 393   0.0000       1.098869        29.9017 
 394   0.0000       1.106288        30.1036 
 395   0.0000       1.112982        30.2858 
 396   0.0000       1.119093        30.4521 
 397   0.0000       1.123670        30.5766 
 398   0.0000       1.126789        30.6615 
 399   0.0000       1.130229        30.7551 
 400   0.0000       1.144220        31.1358 
 401   0.0000       1.145635        31.1743 
 402   0.0000       1.161225        31.5985 
 403   0.0000       1.167230        31.7620 
 404   0.0000       1.174472        31.9590 
 405   0.0000       1.181693        32.1555 
 406   0.0000       1.184005        32.2184 
 407   0.0000       1.194998        32.5175 
[...]
   114a -> 123a  :     0.015623 
   115a -> 121a  :     0.051522 
   116a -> 120a  :     0.023223 
   116a -> 122a  :     0.026250 
   116a -> 123a  :     0.010528 
   117a -> 120a  :     0.222580 
   117a -> 121a  :     0.140911 
   117a -> 122a  :     0.027805 
   117a -> 123a  :     0.051460 
   117a -> 127a  :     0.015617 

STATE 17:  E=   0.227741 au      6.197 eV    49983.4 cm**-1 <S**2> =   0.000000
   110a -> 119a  :     0.011325 
   113a -> 120a  :     0.248709 
   113a -> 121a  :     0.068702 
   113a -> 123a  :     0.011759 
   114a -> 119a  :     0.122721 
   114a -> 120a  :     0.022733 
   115a -> 120a  :     0.065651 
   115a -> 121a  :     0.030856 
   115a -> 123a  :     0.050676 
   116a -> 119a  :     0.014472 
   116a -> 120a  :     0.031895 
   117a -> 120a  :     0.067756 
   117a -> 121a  :     0.038373 
   117a -> 122a  :     0.035296 
   117a -> 123a  :     0.052204 

STATE 18:  E=   0.225897 au      6.147 eV    49578.6 cm**-1 <S**2> =   0.000000
   112a -> 122a  :     0.028797 
   112a -> 123a  :     0.015836 
   113a -> 119a  :     0.062594 
   113a -> 120a  :     0.063701 
   114a -> 118a  :     0.010862 
   114a -> 120a  :     0.217801 
   114a -> 121a  :     0.055564 
   114a -> 123a  :     0.026641 
   115a -> 120a  :     0.039691 
   115a -> 123a  :     0.045392 
   116a -> 119a  :     0.080095 
   116a -> 120a  :     0.021807 
   116a -> 123a  :     0.070486 
   117a -> 120a  :     0.050723 
   117a -> 121a  :     0.065721 
   117a -> 122a  :     0.012147 
   117a -> 123a  :     0.010399 

STATE 19:  E=   0.226937 au      6.175 eV    49807.0 cm**-1 <S**2> =   0.000000
   107a -> 118a  :     0.014141 
   109a -> 118a  :     0.045331 
   112a -> 119a  :     0.010060 
   112a -> 120a  :     0.023027 
   112a -> 122a  :     0.045775 
   113a -> 120a  :     0.035148 
   113a -> 121a  :     0.016885 
   113a -> 123a  :     0.021010 
   114a -> 120a  :     0.084704 
   114a -> 121a  :     0.022184 
   114a -> 122a  :     0.012083 
   115a -> 119a  :     0.239376 
   115a -> 120a  :     0.113795 
   115a -> 123a  :     0.060217 
   116a -> 119a  :     0.013254 
   116a -> 120a  :     0.010761 
   116a -> 123a  :     0.060751 
   117a -> 120a  :     0.017251 

STATE 20:  E=   0.218364 au      5.942 eV    47925.3 cm**-1 <S**2> =   0.000000
    89a -> 118a  :     0.019759 
    96a -> 118a  :     0.017257 
    97a -> 118a  :     0.015453 
   100a -> 118a  :     0.013577 
   101a -> 118a  :     0.039531 
   103a -> 118a  :     0.017146 
   104a -> 118a  :     0.293925 
   106a -> 118a  :     0.104330 
   108a -> 118a  :     0.245499 
   110a -> 118a  :     0.029140 
   114a -> 120a  :     0.039542 
   115a -> 119a  :     0.018214 

STATE 21:  E=   0.208281 au      5.668 eV    45712.4 cm**-1 <S**2> =   0.000000
    94a -> 118a  :     0.012840 
   109a -> 122a  :     0.011793 
   111a -> 118a  :     0.475335 
   112a -> 118a  :     0.023208 
   112a -> 119a  :     0.010064 
   112a -> 120a  :     0.010306 
   112a -> 123a  :     0.020432 
   115a -> 121a  :     0.016034 
   115a -> 122a  :     0.029640 
   116a -> 120a  :     0.016660 
   116a -> 121a  :     0.127551 
   116a -> 122a  :     0.040777 
   117a -> 123a  :     0.063589 
   117a -> 127a  :     0.010523 

STATE 22:  E=   0.226629 au      6.167 eV    49739.3 cm**-1 <S**2> =   0.000000
   109a -> 118a  :     0.023945 
   109a -> 119a  :     0.015553 
   111a -> 122a  :     0.011399 
   113a -> 119a  :     0.064843 
   114a -> 119a  :     0.021837 
   115a -> 119a  :     0.017490 
   115a -> 121a  :     0.035711 
   116a -> 119a  :     0.275109 
   116a -> 122a  :     0.020864 
   116a -> 125a  :     0.014334 
   117a -> 122a  :     0.014891 
   117a -> 124a  :     0.199569 
   117a -> 128a  :     0.037917 
   117a -> 130a  :     0.019961 

STATE 23:  E=   0.236776 au      6.443 eV    51966.3 cm**-1 <S**2> =   0.000000
   113a -> 119a  :     0.035858 
   114a -> 119a  :     0.012646 
   115a -> 119a  :     0.010145 
   115a -> 121a  :     0.027652 
   116a -> 119a  :     0.145130 
   116a -> 122a  :     0.018704 
   116a -> 125a  :     0.025013 
   116a -> 136a  :     0.012152 
   117a -> 122a  :     0.010599 
   117a -> 124a  :     0.334852 
   117a -> 126a  :     0.024861 
   117a -> 127a  :     0.017073 
   117a -> 128a  :     0.060985 
   117a -> 129a  :     0.010090 
   117a -> 130a  :     0.025447 
   117a -> 132a  :     0.020051 
   117a -> 139a  :     0.011638 

STATE 24:  E=   0.224439 au      6.107 eV    49258.7 cm**-1 <S**2> =   0.000000
   109a -> 118a  :     0.025631 
   111a -> 118a  :     0.041087 
   111a -> 123a  :     0.018425 
   112a -> 118a  :     0.017095 
   112a -> 119a  :     0.017828 
   112a -> 123a  :     0.011790 
   112a -> 127a  :     0.010624 
   113a -> 119a  :     0.031453 
   113a -> 120a  :     0.034561 
   114a -> 119a  :     0.016816 
   114a -> 121a  :     0.010563 
   115a -> 119a  :     0.013414 
   115a -> 120a  :     0.035750 
   115a -> 121a  :     0.189980 
   115a -> 122a  :     0.059335 
   116a -> 119a  :     0.016868 
   116a -> 120a  :     0.108315 
   116a -> 122a  :     0.049248 
   116a -> 123a  :     0.046305 
   117a -> 122a  :     0.011165 
   117a -> 123a  :     0.036342 
   117a -> 127a  :     0.031913 
   117a -> 135a  :     0.010684 

STATE 25:  E=   0.231260 au      6.293 eV    50755.8 cm**-1 <S**2> =   0.000000
    96a -> 118a  :     0.013022 
   107a -> 118a  :     0.054520 
   109a -> 118a  :     0.172659 
   109a -> 119a  :     0.018616 
   111a -> 122a  :     0.011437 
   112a -> 120a  :     0.014276 
   112a -> 121a  :     0.023182 
   112a -> 122a  :     0.011178 
   113a -> 119a  :     0.083287 
   114a -> 119a  :     0.021236 
   115a -> 119a  :     0.289769 
   115a -> 122a  :     0.014778 
   115a -> 123a  :     0.051165 
   116a -> 119a  :     0.033574 
   116a -> 122a  :     0.023395 

STATE 26:  E=   0.233374 au      6.350 eV    51219.7 cm**-1 <S**2> =   0.000000
    96a -> 118a  :     0.018703 
   100a -> 118a  :     0.021709 
   107a -> 118a  :     0.081129 
   109a -> 118a  :     0.202987 
   110a -> 118a  :     0.014117 
   112a -> 119a  :     0.023548 
   112a -> 120a  :     0.041520 
   112a -> 121a  :     0.091644 
   115a -> 122a  :     0.024164 
   115a -> 123a  :     0.022782 
   116a -> 118a  :     0.010120 
   116a -> 119a  :     0.132046 
   116a -> 122a  :     0.033239 
   116a -> 123a  :     0.054829 
   117a -> 122a  :     0.027096 

STATE 27:  E=   0.257476 au      7.006 eV    56509.6 cm**-1 <S**2> =   0.000000
   115a -> 124a  :     0.018846 
   116a -> 124a  :     0.155204 
   116a -> 128a  :     0.020809 
   116a -> 139a  :     0.013478 
   117a -> 125a  :     0.449960 
   117a -> 131a  :     0.042667 
   117a -> 134a  :     0.032193 
   117a -> 136a  :     0.074318 
   117a -> 138a  :     0.012368 

STATE 28:  E=   0.242025 au      6.586 eV    53118.4 cm**-1 <S**2> =   0.000000
    88a -> 118a  :     0.011196 
    90a -> 118a  :     0.024460 
    95a -> 118a  :     0.048586 
    96a -> 118a  :     0.067496 
    97a -> 118a  :     0.068149 
    99a -> 118a  :     0.042281 
   102a -> 118a  :     0.230283 
   107a -> 118a  :     0.202608 
   108a -> 122a  :     0.029410 
   109a -> 118a  :     0.087766 

STATE 29:  E=   0.239187 au      6.509 eV    52495.5 cm**-1 <S**2> =   0.000000
   111a -> 122a  :     0.023030 
   112a -> 119a  :     0.019775 
   112a -> 120a  :     0.102026 
   112a -> 121a  :     0.214728 
   112a -> 122a  :     0.057450 
   114a -> 121a  :     0.020044 
   115a -> 119a  :     0.024620 
   115a -> 127a  :     0.023043 
   115a -> 135a  :     0.011431 
   116a -> 119a  :     0.095182 
   116a -> 121a  :     0.035661 
   116a -> 122a  :     0.058348 
   116a -> 123a  :     0.080505 
   116a -> 127a  :     0.034718 

STATE 30:  E=   0.261548 au      7.117 eV    57403.1 cm**-1 <S**2> =   0.000000
   115a -> 125a  :     0.017916 
   116a -> 125a  :     0.085388 
   116a -> 138a  :     0.016765 
   117a -> 124a  :     0.133513 
   117a -> 125a  :     0.016996 
   117a -> 126a  :     0.235287 
   117a -> 127a  :     0.027382 
   117a -> 128a  :     0.134120 
   117a -> 129a  :     0.050848 
   117a -> 130a  :     0.024143 
   117a -> 134a  :     0.035003 


-------------------------
TD-DFT-EXCITATION SPECTRA
-------------------------

Center of mass = ( -0.1247, -0.0222, -0.2555)
Calculating the Dipole integrals                  ... done
Transforming integrals                            ... done
Calculating the Linear Momentum integrals         ... done
Transforming integrals                            ... done
Calculating angular momentum integrals            ... done
Transforming integrals                            ... done

-----------------------------------------------------------------------------
         ABSORPTION SPECTRUM VIA TRANSITION ELECTRIC DIPOLE MOMENTS
-----------------------------------------------------------------------------
State   Energy    Wavelength  fosc         T2        TX        TY        TZ  
        (cm-1)      (nm)                 (au**2)    (au)      (au)      (au) 
-----------------------------------------------------------------------------
   1   19426.7    514.8   1.088453161  18.44536  -4.26251   0.41599   0.32146
   2   26905.6    371.7   0.008561921   0.10476   0.05179   0.31549  -0.05049
   3   32772.9    305.1   0.481795203   4.83975  -0.34478  -2.15875   0.24631
   4   35723.0    279.9   0.004435784   0.04088  -0.12255   0.13847  -0.08178
   5   36249.1    275.9   0.130464927   1.18487  -0.36313  -0.99874   0.23563
   6   38463.6    260.0   0.060741341   0.51989   0.15589   0.60620   0.35792
   7   38298.3    261.1   0.194077098   1.66828  -0.12593  -1.19696   0.46874
   8   37576.8    266.1   0.088404845   0.77452   0.47341  -0.72143   0.17305
   9   42947.4    232.8   0.082010755   0.62865  -0.26242  -0.00669  -0.74816
  10   40027.0    249.8   0.022276524   0.18322  -0.12789  -0.40253  -0.06954
  11   40578.9    246.4   0.083237003   0.67529   0.57003  -0.59084   0.03560
  12   40146.2    249.1   0.014823907   0.12156  -0.10066   0.31979  -0.09571
  13   44790.0    223.3   0.003406325   0.02504   0.12007  -0.09744   0.03355
  14   44159.3    226.5   1.015352534   7.56956  -2.74088   0.20538   0.12230
  15   48131.4    207.8   0.278833135   1.90718  -1.32483   0.35856  -0.15313
  16   46790.1    213.7   0.157628125   1.10906  -0.11649   0.00707  -1.04663
  17   49983.4    200.1   0.571353211   3.76318  -0.19912   1.45336  -1.26936
  18   49578.6    201.7   0.590851312   3.92337  -0.71395  -1.78417  -0.47997
  19   49807.0    200.8   0.011342217   0.07497   0.19754   0.16130  -0.09964
  20   47925.3    208.7   0.039020035   0.26804  -0.16855  -0.07834  -0.48321
  21   45712.4    218.8   0.098350224   0.70830   0.81807  -0.06048   0.18814
  22   49739.3    201.0   0.024619770   0.16295   0.00783   0.40256   0.02889
  23   51966.3    192.4   0.006696345   0.04242  -0.02412   0.18230   0.09277
  24   49258.7    203.0   0.002748372   0.01837   0.10181   0.03328   0.08305
  25   50755.8    197.0   0.018021931   0.11689   0.28206   0.06680   0.18131
  26   51219.7    195.2   0.017502016   0.11249  -0.01634   0.33498  -0.00352
  27   56509.6    177.0   0.069066643   0.40237  -0.14366   0.11053   0.60788
  28   53118.4    188.3   0.000444474   0.00275  -0.00806  -0.03956  -0.03353
  29   52495.5    190.5   0.032282043   0.20245   0.10018  -0.43758   0.03060
  30   57403.1    174.2   0.014425914   0.08273   0.05530   0.28009  -0.03500

-----------------------------------------------------------------------------
         ABSORPTION SPECTRUM VIA TRANSITION VELOCITY DIPOLE MOMENTS
-----------------------------------------------------------------------------
State   Energy    Wavelength   fosc        P2         PX        PY        PZ  
        (cm-1)      (nm)                 (au**2)     (au)      (au)      (au) 
-----------------------------------------------------------------------------
   1   19426.7    514.8   1.735488738   0.23042   0.47641  -0.04651  -0.03595
   2   26905.6    371.7   0.012951363   0.00238  -0.00786  -0.04756   0.00759
   3   32772.9    305.1   0.661477247   0.14816   0.06036   0.37769  -0.04322
   4   35723.0    279.9   0.005849803   0.00143   0.02272  -0.02606   0.01526
   5   36249.1    275.9   0.181620466   0.04500   0.06995   0.19498  -0.04568
   6   38463.6    260.0   0.077268875   0.02031  -0.03135  -0.11997  -0.07026
   7   38298.3    261.1   0.255361960   0.06684   0.02522   0.23968  -0.09358
   8   37576.8    266.1   0.128485753   0.03300  -0.09748   0.14917  -0.03529
   9   42947.4    232.8   0.096261945   0.02826   0.05667   0.00112   0.15825
  10   40027.0    249.8   0.031036071   0.00849   0.02708   0.08680   0.01492
  11   40578.9    246.4   0.118627742   0.03290  -0.12427   0.13193  -0.00707
  12   40146.2    249.1   0.021444708   0.00588   0.02184  -0.07037   0.02134
  13   44790.0    223.3   0.003528518   0.00108  -0.02456   0.02008  -0.00861
  14   44159.3    226.5   1.358379580   0.40997   0.63791  -0.04721  -0.02842
  15   48131.4    207.8   0.342485122   0.11266   0.32190  -0.08760   0.03705
  16   46790.1    213.7   0.210957516   0.06746   0.02771  -0.00224   0.25824
  17   49983.4    200.1   0.691240126   0.23614   0.05012  -0.36371   0.31834
  18   49578.6    201.7   0.743184863   0.25182   0.18088   0.45228   0.12064
  19   49807.0    200.8   0.013518062   0.00460  -0.04963  -0.03897   0.02491
  20   47925.3    208.7   0.053841050   0.01764   0.04322   0.02071   0.12385
  21   45712.4    218.8   0.155709689   0.04865  -0.21429   0.01579  -0.04977
  22   49739.3    201.0   0.034977442   0.01189  -0.00359  -0.10863  -0.00871
  23   51966.3    192.4   0.008449798   0.00300   0.00613  -0.04865  -0.02443
  24   49258.7    203.0   0.003794813   0.00128  -0.02564  -0.01004  -0.02279
  25   50755.8    197.0   0.025192193   0.00874  -0.07710  -0.01891  -0.04937
  26   51219.7    195.2   0.024482629   0.00857   0.00493  -0.09244  -0.00040
  27   56509.6    177.0   0.066886225   0.02583   0.03965  -0.02872  -0.15309
  28   53118.4    188.3   0.000623880   0.00023   0.00218   0.01136   0.00963
  29   52495.5    190.5   0.044761212   0.01606  -0.02853   0.12321  -0.00802
  30   57403.1    174.2   0.016412420   0.00644  -0.01538  -0.07803   0.01067

-------------------------------------------------------------------
                             CD SPECTRUM
-------------------------------------------------------------------
State  Energy     Wavelength     R         MX        MY        MZ   
       (cm-1)       (nm)     (1e40*cgs)   (au)      (au)      (au)  
-------------------------------------------------------------------
   1   19426.7    514.8     20.08313   0.04654   0.20088   0.48964
   2   26905.6    371.7      2.13825   0.02147   0.00988  -0.00609
   3   32772.9    305.1     58.10120  -0.17614  -0.00834   0.18069
   4   35723.0    279.9     24.59463  -0.06379  -0.07423  -0.66804
   5   36249.1    275.9     14.88109  -0.09514  -0.04450  -0.20126
   6   38463.6    260.0    -17.47574   0.29007  -0.01785  -0.19967
   7   38298.3    261.1    -46.29067   0.13674  -0.03359  -0.25852
   8   37576.8    266.1     52.72195   0.10382  -0.01716   0.29068
   9   42947.4    232.8    -56.63710  -0.54937   0.13610   0.35205
  10   40027.0    249.8     -2.97154  -0.11201   0.02652   0.14311
  11   40578.9    246.4    -45.95507  -0.24273  -0.07238  -0.05277
  12   40146.2    249.1      6.00886  -0.11469   0.00987   0.02043
  13   44790.0    223.3      9.33463   0.21324   0.13046   0.20585
  14   44159.3    226.5    156.80450  -0.10436   0.17941   0.07943
  15   48131.4    207.8    106.27558  -0.17175   0.17281   0.41847
  16   46790.1    213.7    -203.36970  -1.08916   0.17506   0.53455
  17   49983.4    200.1    -100.67408  -0.89516   0.12516   0.45195
  18   49578.6    201.7     22.43551  -0.93730   0.19493   0.57047
  19   49807.0    200.8    -25.98526  -0.19321   0.01158   0.18886
  20   47925.3    208.7    -41.08564  -0.42296   0.08441   0.31420
  21   45712.4    218.8    176.17798   0.26724   0.00169   0.82479
  22   49739.3    201.0     21.08370   0.17497   0.12560  -0.24960
  23   51966.3    192.4    -39.81972   0.07147  -0.31790  -0.26717
  24   49258.7    203.0     21.19109   0.16359  -0.02287   0.34987
  25   50755.8    197.0      7.31174   0.13001  -0.02963  -0.10579
  26   51219.7    195.2      9.53107   0.08357   0.06552   0.10382
  27   56509.6    177.0    -99.36126  -0.29111   0.00564  -0.41653
  28   53118.4    188.3     -0.14712  -0.02165   0.04281  -0.03600
  29   52495.5    190.5     -6.78475  -0.08771   0.01162  -0.01690
  30   57403.1    174.2     44.38471   0.00369   0.31803  -0.13900

Total run time:    41604.890 sec

           *** ORCA-CIS/TD-DFT FINISHED WITHOUT ERROR ***

Maximum memory used throughout the entire CIS-calculation: 7629.8 MB

-----------------------
CIS/TD-DFT TOTAL ENERGY
-----------------------

    E(SCF)  =  -1417.267592722 Eh
    DE(CIS) =      0.088514381 Eh (Root  1)
    ----------------------------- ---------
    E(tot)  =  -1417.179078341 Eh


-------------------------   --------------------
FINAL SINGLE POINT ENERGY     -1417.179078341018
-------------------------   --------------------


                            ***************************************
                            *     ORCA property calculations      *
                            ***************************************


  WARNING: The energy has been calculated at the MP2 level but the densities
           used in the property calculations are still SCF densities
           MP2 response densities have not been calculated 
           use %mp2 Density relaxed end
           or  %mp2 Density unrelaxed end

                                    ---------------------
                                    Active property flags
                                    ---------------------
   (+) Dipole Moment


------------------------------------------------------------------------------
                       ORCA ELECTRIC PROPERTIES CALCULATION
------------------------------------------------------------------------------

Dipole Moment Calculation                       ... on
Quadrupole Moment Calculation                   ... off
Polarizability Calculation                      ... off
GBWName                                         ... Rh_B_M06L_def2TZVP_coords.gbw
Electron density                                ... Rh_B_M06L_def2TZVP_coords.scfp
The origin for moment calculation is the CENTER OF MASS  = (-0.124706, -0.022221 -0.255464)

-------------
DIPOLE MOMENT
-------------
                                X             Y             Z
Electronic contribution:      4.32923      26.93595       0.85701
Nuclear contribution   :     -5.50816     -28.80400      -1.77419
                        -----------------------------------------
Total Dipole Moment    :     -1.17894      -1.86805      -0.91718
                        -----------------------------------------
Magnitude (a.u.)       :      2.39180
Magnitude (Debye)      :      6.07948



--------------------
Rotational spectrum 
--------------------
 
Rotational constants in cm-1:     0.004956     0.002893     0.002031 
Rotational constants in MHz :   148.564582    86.741091    60.886448 

 Dipole components along the rotational axes: 
x,y,z [a.u.] :    -1.104894     1.855143    -1.028777 
x,y,z [Debye]:    -2.808418     4.715398    -2.614942 

 

Timings for individual modules:

Sum of individual times         ...    51060.273 sec (= 851.005 min)
GTO integral calculation        ...        5.013 sec (=   0.084 min)   0.0 %
SCF iterations                  ...     3433.721 sec (=  57.229 min)   6.7 %
MP2 module                      ...     6013.072 sec (= 100.218 min)  11.8 %
CIS module                      ...    41608.466 sec (= 693.474 min)  81.5 %
                             ****ORCA TERMINATED NORMALLY****
TOTAL RUN TIME: 0 days 14 hours 11 minutes 6 seconds 153 msec
