
                                 *****************
                                 * O   R   C   A *
                                 *****************

                                            #,                                       
                                            ###                                      
                                            ####                                     
                                            #####                                    
                                            ######                                   
                                           ########,                                 
                                     ,,################,,,,,                         
                               ,,#################################,,                 
                          ,,##########################################,,             
                       ,#########################################, ''#####,          
                    ,#############################################,,   '####,        
                  ,##################################################,,,,####,       
                ,###########''''           ''''###############################       
              ,#####''   ,,,,##########,,,,          '''####'''          '####       
            ,##' ,,,,###########################,,,                        '##       
           ' ,,###''''                  '''############,,,                           
         ,,##''                                '''############,,,,        ,,,,,,###''
      ,#''                                            '''#######################'''  
     '                                                          ''''####''''         
             ,#######,   #######,   ,#######,      ##                                
            ,#'     '#,  ##    ##  ,#'     '#,    #''#        ######   ,####,        
            ##       ##  ##   ,#'  ##            #'  '#       #        #'  '#        
            ##       ##  #######   ##           ,######,      #####,   #    #        
            '#,     ,#'  ##    ##  '#,     ,#' ,#      #,         ##   #,  ,#        
             '#######'   ##     ##  '#######'  #'      '#     #####' # '####'        



                  #######################################################
                  #                        -***-                        #
                  #          Department of theory and spectroscopy      #
                  #    Directorship and core code : Frank Neese         #
                  #        Max Planck Institute fuer Kohlenforschung    #
                  #                Kaiser Wilhelm Platz 1               #
                  #                 D-45470 Muelheim/Ruhr               #
                  #                      Germany                        #
                  #                                                     #
                  #                  All rights reserved                #
                  #                        -***-                        #
                  #######################################################


                         Program Version 5.0.2 -  RELEASE  -


 With contributions from (in alphabetic order):
   Daniel Aravena         : Magnetic Suceptibility
   Michael Atanasov       : Ab Initio Ligand Field Theory (pilot matlab implementation)
   Alexander A. Auer      : GIAO ZORA, VPT2 properties, NMR spectrum
   Ute Becker             : Parallelization
   Giovanni Bistoni       : ED, misc. LED, open-shell LED, HFLD
   Martin Brehm           : Molecular dynamics
   Dmytro Bykov           : SCF Hessian
   Vijay G. Chilkuri      : MRCI spin determinant printing, contributions to CSF-ICE
   Dipayan Datta          : RHF DLPNO-CCSD density
   Achintya Kumar Dutta   : EOM-CC, STEOM-CC
   Dmitry Ganyushin       : Spin-Orbit,Spin-Spin,Magnetic field MRCI
   Miquel Garcia          : C-PCM and meta-GGA Hessian, CC/C-PCM, Gaussian charge scheme
   Yang Guo               : DLPNO-NEVPT2, F12-NEVPT2, CIM, IAO-localization
   Andreas Hansen         : Spin unrestricted coupled pair/coupled cluster methods
   Benjamin Helmich-Paris : MC-RPA, TRAH-SCF, COSX integrals
   Lee Huntington         : MR-EOM, pCC
   Robert Izsak           : Overlap fitted RIJCOSX, COSX-SCS-MP3, EOM
   Marcus Kettner         : VPT2
   Christian Kollmar      : KDIIS, OOCD, Brueckner-CCSD(T), CCSD density, CASPT2, CASPT2-K
   Simone Kossmann        : Meta GGA functionals, TD-DFT gradient, OOMP2, MP2 Hessian
   Martin Krupicka        : Initial AUTO-CI
   Lucas Lang             : DCDCAS
   Marvin Lechner         : AUTO-CI (C++ implementation), FIC-MRCC
   Dagmar Lenk            : GEPOL surface, SMD
   Dimitrios Liakos       : Extrapolation schemes; Compound Job, initial MDCI parallelization
   Dimitrios Manganas     : Further ROCIS development; embedding schemes
   Dimitrios Pantazis     : SARC Basis sets
   Anastasios Papadopoulos: AUTO-CI, single reference methods and gradients
   Taras Petrenko         : DFT Hessian,TD-DFT gradient, ASA, ECA, R-Raman, ABS, FL, XAS/XES, NRVS
   Peter Pinski           : DLPNO-MP2, DLPNO-MP2 Gradient
   Christoph Reimann      : Effective Core Potentials
   Marius Retegan         : Local ZFS, SOC
   Christoph Riplinger    : Optimizer, TS searches, QM/MM, DLPNO-CCSD(T), (RO)-DLPNO pert. Triples
   Tobias Risthaus        : Range-separated hybrids, TD-DFT gradient, RPA, STAB
   Michael Roemelt        : Original ROCIS implementation
   Masaaki Saitow         : Open-shell DLPNO-CCSD energy and density
   Barbara Sandhoefer     : DKH picture change effects
   Avijit Sen             : IP-ROCIS
   Kantharuban Sivalingam : CASSCF convergence, NEVPT2, FIC-MRCI
   Bernardo de Souza      : ESD, SOC TD-DFT
   Georgi Stoychev        : AutoAux, RI-MP2 NMR, DLPNO-MP2 response
   Willem Van den Heuvel  : Paramagnetic NMR
   Boris Wezisla          : Elementary symmetry handling
   Frank Wennmohs         : Technical directorship


 We gratefully acknowledge several colleagues who have allowed us to
 interface, adapt or use parts of their codes:
   Stefan Grimme, W. Hujo, H. Kruse, P. Pracht,  : VdW corrections, initial TS optimization,
                  C. Bannwarth, S. Ehlert          DFT functionals, gCP, sTDA/sTD-DF
   Ed Valeev, F. Pavosevic, A. Kumar             : LibInt (2-el integral package), F12 methods
   Garnet Chan, S. Sharma, J. Yang, R. Olivares  : DMRG
   Ulf Ekstrom                                   : XCFun DFT Library
   Mihaly Kallay                                 : mrcc  (arbitrary order and MRCC methods)
   Jiri Pittner, Ondrej Demel                    : Mk-CCSD
   Frank Weinhold                                : gennbo (NPA and NBO analysis)
   Christopher J. Cramer and Donald G. Truhlar   : smd solvation model
   Lars Goerigk                                  : TD-DFT with DH, B97 family of functionals
   V. Asgeirsson, H. Jonsson                     : NEB implementation
   FAccTs GmbH                                   : IRC, NEB, NEB-TS, DLPNO-Multilevel, CI-OPT
                                                   MM, QMMM, 2- and 3-layer-ONIOM, Crystal-QMMM,
                                                   LR-CPCM, SF, NACMEs, symmetry and pop. for TD-DFT,
                                                   nearIR, NL-DFT gradient (VV10), updates on ESD,
                                                   ML-optimized integration grids
   S Lehtola, MJT Oliveira, MAL Marques          : LibXC Library
   Liviu Ungur et al                             : ANISO software


 Your calculation uses the libint2 library for the computation of 2-el integrals
 For citations please refer to: http://libint.valeyev.net

 Your ORCA version has been built with support for libXC version: 5.1.0
 For citations please refer to: https://tddft.org/programs/libxc/

 This ORCA versions uses:
   CBLAS   interface :  Fast vector & matrix operations
   LAPACKE interface :  Fast linear algebra routines
   SCALAPACK package :  Parallel linear algebra routines
   Shared memory     :  Shared parallel matrices
   BLAS/LAPACK       :  OpenBLAS 0.3.15  USE64BITINT DYNAMIC_ARCH NO_AFFINITY Zen SINGLE_THREADED
        Core in use  :  Zen
   Copyright (c) 2011-2014, The OpenBLAS Project


Your calculation utilizes the atom-pairwise dispersion correction
with the Becke-Johnson damping scheme (D3BJ)
Cite in your paper:
S.Grimme, S.Ehrlich, L.Goerigk, J Comput Chem, (2011), 32, 1456–1465 
S.Grimme, J.Antony, S.Ehrlich and H.Krieg, J.Chem.Phys., 132, (2010), 154104 
   

Your calculation utilizes the SMD solvation module
Please cite in your paper:
A.V. Marenich, C.J. Cramer, D.G. Truhlar J. Phys. Chem. B, 113, (2009), 6378 

================================================================================

----- Orbital basis set information -----
Your calculation utilizes the basis: def2-TZVP
   F. Weigend and R. Ahlrichs, Phys. Chem. Chem. Phys. 7, 3297 (2005).

----- AuxJ basis set information -----
Your calculation utilizes the auxiliary basis: def2/J
   F. Weigend, Phys. Chem. Chem. Phys. 8, 1057 (2006).

----- AuxC basis set information -----
Your calculation utilizes the auxiliary basis: def2-TZVP/C
  H-La, Hf-Rn : A. Hellweg, C. Hattig, S. Hofener and W. Klopper, Theor. Chem. Acc. 117, 587 (2007).
        Ce-Lu : J. Chmela and M. E. Harding, Mol. Phys. (2018).

================================================================================
                                        WARNINGS
                       Please study these warnings very carefully!
================================================================================

INFO   : Checking CIS options ...
  ===> : (D) CORRECTION FOUND - SETTING MODE=3
  ===> : JK MODE FOUND - ACTIVATING RI-MP2 CODE
  ===> : MP2 AND CIS FOUND - CHECKING
WARNING: CIS(D) and MP2 runs must have the same orbital window
  ===> : adjusting orbital windows

WARNING: No MP2 level density has been requested!
         To caclulate MP2 level properties use
         %mp2 Density relaxed end
         or
         %mp2 Density unrelaxed end
         Otherwise for double-hybrid DFT only the energy is correct!

WARNING: The frozen-core approximation is turned on by default for 
         the MP2 part of double-hybrid DFT.

WARNING: CIS/ROCIS methods need fully converged wavefunctions
  ===> : Setting SCFConvForced true
         You can overwrite this default with %scf ConvForced false 


INFO   : the flag for use of the SHARK integral package has been found!

================================================================================
                                       INPUT FILE
================================================================================
NAME = Rh_B_M06L_def2TZVP_coords.inp
|  1> %maxcore 19200
|  2> %pal
|  3>  nprocs= 8
|  4> end
|  5> ! RI-B2PLYP D3BJ def2-TZVP def2/J def2-TZVP/C RIJCOSX CPCM TightSCF
|  6> %TDDFT DCORR 4
|  7>    NROOTS   30
|  8>   TDA      FALSE
|  9> END 
| 10>  
| 11>  %CPCM 
| 12>    SMD          TRUE 
| 13>    SMDsolvent   "ETHANOL"
| 14>  END 
| 15>  
| 16> 
| 17> * xyz 1 1
| 18> C                  -3.84267000   -0.92047200    0.05894500
| 19> C                  -2.63140600   -1.64154100    0.02698200
| 20> C                  -1.44451500   -0.98320300   -0.16527300
| 21> C                  -1.35747000    0.41898600   -0.34874900
| 22> C                  -2.58344000    1.12590400   -0.30249800
| 23> C                  -3.77274200    0.49647600   -0.10979100
| 24> C                  -0.10153800    1.01377800   -0.52398600
| 25> C                   1.04141100    0.20174500   -0.51394500
| 26> C                   0.90082300   -1.19349000   -0.31440700
| 27> C                   1.96520000   -2.05709900   -0.27996900
| 28> H                   1.76164300   -3.10760500   -0.13995700
| 29> C                   3.27758200   -1.56937100   -0.44416300
| 30> C                   3.43762900   -0.16648200   -0.65863700
| 31> C                   2.36564200    0.66915700   -0.69356500
| 32> H                  -2.59955700   -2.70986000    0.17692700
| 33> H                  -2.56812100    2.20095000   -0.42639900
| 34> H                  -4.67721800    1.08529100   -0.09723800
| 35> H                   4.42535200    0.24835000   -0.78882700
| 36> H                   2.52930600    1.72568900   -0.86331100
| 37> O                  -0.32598700   -1.74921200   -0.15541900
| 38> C                   0.00981900    2.46809200   -0.77544500
| 39> C                  -0.44694900    2.94685700   -2.00238800
| 40> C                   0.60787100    3.37133300    0.11850100
| 41> C                  -0.31107700    4.28150800   -2.34586700
| 42> H                  -0.89891900    2.25214100   -2.69946600
| 43> C                   0.75239800    4.70851500   -0.24699800
| 44> C                   0.29374200    5.16693100   -1.46704100
| 45> H                  -0.67428000    4.62614800   -3.30558500
| 46> H                   1.21788400    5.38614300    0.45689800
| 47> H                   0.40406600    6.21073100   -1.72991600
| 48> N                  -5.02463500   -1.53894000    0.24539200
| 49> C                  -6.27907000   -0.80390300    0.39621600
| 50> H                  -6.09494400    0.11515600    0.95088300
| 51> H                  -6.92276200   -1.41377600    1.03077700
| 52> C                  -6.95690100   -0.52106400   -0.92532000
| 53> H                  -7.16734100   -1.44515000   -1.46396100
| 54> H                  -7.90276700   -0.00556200   -0.76303300
| 55> H                  -6.33610900    0.10664900   -1.56454100
| 56> C                   1.09695900    2.99900700    1.46614100
| 57> O                   0.45496900    1.95125100    1.99406900
| 58> O                   1.97054600    3.59992600    2.05443100
| 59> C                  -5.13158100   -2.99329900    0.32504900
| 60> H                  -6.12485000   -3.25533400   -0.04034500
| 61> H                  -4.42483600   -3.44287200   -0.37194400
| 62> C                  -4.92918100   -3.52146600    1.72790700
| 63> H                  -5.04218000   -4.60475800    1.74436800
| 64> H                  -3.93553000   -3.28036300    2.10522500
| 65> H                  -5.66160900   -3.09790100    2.41519400
| 66> C                   4.21334300   -3.81278200   -0.09371200
| 67> H                   3.42748000   -3.94672400    0.64904500
| 68> H                   5.14243500   -4.11559600    0.39029200
| 69> C                   5.70542000   -1.92199500   -0.65616200
| 70> H                   5.68810200   -1.16500500   -1.43905300
| 71> H                   6.25482300   -2.76810400   -1.06939200
| 72> C                   6.39023400   -1.40746700    0.58995800
| 73> H                   7.41129100   -1.10327000    0.36274800
| 74> H                   5.86659200   -0.54658500    1.00562500
| 75> H                   6.43395700   -2.17805400    1.35975400
| 76> C                   3.95721900   -4.65970100   -1.32035700
| 77> H                   4.76331500   -4.55172800   -2.04621000
| 78> H                   3.89253500   -5.71207400   -1.04661200
| 79> H                   3.02432800   -4.38115600   -1.81026300
| 80> N                   4.34439700   -2.39113500   -0.40265000
| 81> H                   0.83803600    1.77002800    2.86802500
| 82> *
| 83> 
| 84> 
| 85> 
| 86> 
| 87> 
| 88>                          ****END OF INPUT****
================================================================================

                       ****************************
                       * Single Point Calculation *
                       ****************************

---------------------------------
CARTESIAN COORDINATES (ANGSTROEM)
---------------------------------
  C     -3.842670   -0.920472    0.058945
  C     -2.631406   -1.641541    0.026982
  C     -1.444515   -0.983203   -0.165273
  C     -1.357470    0.418986   -0.348749
  C     -2.583440    1.125904   -0.302498
  C     -3.772742    0.496476   -0.109791
  C     -0.101538    1.013778   -0.523986
  C      1.041411    0.201745   -0.513945
  C      0.900823   -1.193490   -0.314407
  C      1.965200   -2.057099   -0.279969
  H      1.761643   -3.107605   -0.139957
  C      3.277582   -1.569371   -0.444163
  C      3.437629   -0.166482   -0.658637
  C      2.365642    0.669157   -0.693565
  H     -2.599557   -2.709860    0.176927
  H     -2.568121    2.200950   -0.426399
  H     -4.677218    1.085291   -0.097238
  H      4.425352    0.248350   -0.788827
  H      2.529306    1.725689   -0.863311
  O     -0.325987   -1.749212   -0.155419
  C      0.009819    2.468092   -0.775445
  C     -0.446949    2.946857   -2.002388
  C      0.607871    3.371333    0.118501
  C     -0.311077    4.281508   -2.345867
  H     -0.898919    2.252141   -2.699466
  C      0.752398    4.708515   -0.246998
  C      0.293742    5.166931   -1.467041
  H     -0.674280    4.626148   -3.305585
  H      1.217884    5.386143    0.456898
  H      0.404066    6.210731   -1.729916
  N     -5.024635   -1.538940    0.245392
  C     -6.279070   -0.803903    0.396216
  H     -6.094944    0.115156    0.950883
  H     -6.922762   -1.413776    1.030777
  C     -6.956901   -0.521064   -0.925320
  H     -7.167341   -1.445150   -1.463961
  H     -7.902767   -0.005562   -0.763033
  H     -6.336109    0.106649   -1.564541
  C      1.096959    2.999007    1.466141
  O      0.454969    1.951251    1.994069
  O      1.970546    3.599926    2.054431
  C     -5.131581   -2.993299    0.325049
  H     -6.124850   -3.255334   -0.040345
  H     -4.424836   -3.442872   -0.371944
  C     -4.929181   -3.521466    1.727907
  H     -5.042180   -4.604758    1.744368
  H     -3.935530   -3.280363    2.105225
  H     -5.661609   -3.097901    2.415194
  C      4.213343   -3.812782   -0.093712
  H      3.427480   -3.946724    0.649045
  H      5.142435   -4.115596    0.390292
  C      5.705420   -1.921995   -0.656162
  H      5.688102   -1.165005   -1.439053
  H      6.254823   -2.768104   -1.069392
  C      6.390234   -1.407467    0.589958
  H      7.411291   -1.103270    0.362748
  H      5.866592   -0.546585    1.005625
  H      6.433957   -2.178054    1.359754
  C      3.957219   -4.659701   -1.320357
  H      4.763315   -4.551728   -2.046210
  H      3.892535   -5.712074   -1.046612
  H      3.024328   -4.381156   -1.810263
  N      4.344397   -2.391135   -0.402650
  H      0.838036    1.770028    2.868025

----------------------------
CARTESIAN COORDINATES (A.U.)
----------------------------
  NO LB      ZA    FRAG     MASS         X           Y           Z
   0 C     6.0000    0    12.011   -7.261594   -1.739440    0.111390
   1 C     6.0000    0    12.011   -4.972637   -3.102063    0.050989
   2 C     6.0000    0    12.011   -2.729738   -1.857984   -0.312321
   3 C     6.0000    0    12.011   -2.565247    0.791769   -0.659040
   4 C     6.0000    0    12.011   -4.881994    2.127650   -0.571638
   5 C     6.0000    0    12.011   -7.129449    0.938204   -0.207475
   6 C     6.0000    0    12.011   -0.191879    1.915763   -0.990190
   7 C     6.0000    0    12.011    1.967982    0.381243   -0.971215
   8 C     6.0000    0    12.011    1.702309   -2.255369   -0.594143
   9 C     6.0000    0    12.011    3.713690   -3.887354   -0.529065
  10 H     1.0000    0     1.008    3.329023   -5.872522   -0.264480
  11 C     6.0000    0    12.011    6.193732   -2.965681   -0.839346
  12 C     6.0000    0    12.011    6.496177   -0.314605   -1.244644
  13 C     6.0000    0    12.011    4.470416    1.264523   -1.310648
  14 H     1.0000    0     1.008   -4.912451   -5.120893    0.334344
  15 H     1.0000    0     1.008   -4.853045    4.159193   -0.805777
  16 H     1.0000    0     1.008   -8.838661    2.050903   -0.183753
  17 H     1.0000    0     1.008    8.362703    0.469313   -1.490667
  18 H     1.0000    0     1.008    4.779696    3.261080   -1.631421
  19 O     8.0000    0    15.999   -0.616026   -3.305532   -0.293699
  20 C     6.0000    0    12.011    0.018555    4.664018   -1.465379
  21 C     6.0000    0    12.011   -0.844611    5.568753   -3.783965
  22 C     6.0000    0    12.011    1.148710    6.370896    0.223934
  23 C     6.0000    0    12.011   -0.587850    8.090878   -4.433046
  24 H     1.0000    0     1.008   -1.698711    4.255930   -5.101251
  25 C     6.0000    0    12.011    1.421826    8.897804   -0.466759
  26 C     6.0000    0    12.011    0.555092    9.764085   -2.772306
  27 H     1.0000    0     1.008   -1.274205    8.742153   -6.246650
  28 H     1.0000    0     1.008    2.301467   10.178335    0.863412
  29 H     1.0000    0     1.008    0.763574   11.736581   -3.269067
  30 N     7.0000    0    14.007   -9.495184   -2.908175    0.463724
  31 C     6.0000    0    12.011  -11.865723   -1.519157    0.748740
  32 H     1.0000    0     1.008  -11.517775    0.217613    1.796908
  33 H     1.0000    0     1.008  -13.082124   -2.671649    1.947886
  34 C     6.0000    0    12.011  -13.146638   -0.984668   -1.748601
  35 H     1.0000    0     1.008  -13.544312   -2.730938   -2.766485
  36 H     1.0000    0     1.008  -14.934065   -0.010511   -1.441923
  37 H     1.0000    0     1.008  -11.973511    0.201537   -2.956554
  38 C     6.0000    0    12.011    2.072952    5.667302    2.770605
  39 O     8.0000    0    15.999    0.859767    3.687330    3.768244
  40 O     8.0000    0    15.999    3.723792    6.802874    3.882312
  41 C     6.0000    0    12.011   -9.697283   -5.656515    0.614254
  42 H     1.0000    0     1.008  -11.574289   -6.151690   -0.076241
  43 H     1.0000    0     1.008   -8.361728   -6.506085   -0.702872
  44 C     6.0000    0    12.011   -9.314802   -6.654606    3.265271
  45 H     1.0000    0     1.008   -9.528339   -8.701732    3.296378
  46 H     1.0000    0     1.008   -7.437074   -6.198988    3.978299
  47 H     1.0000    0     1.008  -10.698890   -5.854184    4.564055
  48 C     6.0000    0    12.011    7.962064   -7.205114   -0.177090
  49 H     1.0000    0     1.008    6.476999   -7.458227    1.226517
  50 H     1.0000    0     1.008    9.717794   -7.777349    0.737545
  51 C     6.0000    0    12.011   10.781681   -3.632044   -1.239966
  52 H     1.0000    0     1.008   10.748955   -2.201540   -2.719416
  53 H     1.0000    0     1.008   11.819902   -5.230958   -2.020858
  54 C     6.0000    0    12.011   12.075792   -2.659727    1.114859
  55 H     1.0000    0     1.008   14.005310   -2.084878    0.685494
  56 H     1.0000    0     1.008   11.086252   -1.032896    1.900356
  57 H     1.0000    0     1.008   12.158417   -4.115926    2.569563
  58 C     6.0000    0    12.011    7.478060   -8.805559   -2.495113
  59 H     1.0000    0     1.008    9.001361   -8.601519   -3.866777
  60 H     1.0000    0     1.008    7.355825  -10.794256   -1.977810
  61 H     1.0000    0     1.008    5.715152   -8.279185   -3.420901
  62 N     7.0000    0    14.007    8.209721   -4.518590   -0.760898
  63 H     1.0000    0     1.008    1.583659    3.344868    5.419782

--------------------------------
INTERNAL COORDINATES (ANGSTROEM)
--------------------------------
 C      0   0   0     0.000000000000     0.00000000     0.00000000
 C      1   0   0     1.410008019064     0.00000000     0.00000000
 C      2   1   0     1.370795810159   120.09108215     0.00000000
 C      3   2   1     1.416818360384   123.13801617   359.53512012
 C      4   3   2     1.415935964168   115.89217575     0.94110644
 C      5   4   3     1.359321463907   122.07253040   359.24747064
 C      4   3   2     1.400660814779   119.44294315   179.28237687
 C      7   4   3     1.402080893305   118.95422740     0.03946050
 C      8   7   4     1.416425467299   119.37975505   359.38022794
 C      9   8   7     1.371096232529   123.15672522   180.52569319
 H     10   9   8     1.079167117934   118.03232479   181.05695899
 C     10   9   8     1.409675418507   120.12358123     0.15228229
 C     12  10   9     1.428184751776   117.49546205   359.30107531
 C     13  12  10     1.359657542058   121.27954174     0.46594666
 H      2   1   3     1.079260555930   121.89809555   178.32727850
 H      5   4   3     1.082270775582   118.68086967   179.33614176
 H      6   5   4     1.079322711987   118.83094548   180.83913328
 H     13  12  10     1.079181054806   119.88557379   179.98197007
 H     14  13  12     1.082524584680   118.99062475   180.28621080
 O      3   2   1     1.355718177270   116.23035743   178.71618107
 C      7   4   3     1.480088247614   120.39604792   177.35887591
 C     21   7   4     1.394002172272   117.53867422   290.81523187
 C     21   7   4     1.404510573011   123.76602437   114.21014090
 C     22  21   7     1.384822124183   121.14202512   183.62024656
 H     22  21   7     1.082970424176   118.87924137     2.54815138
 C     23  21   7     1.393747923354   119.61979725   175.40754349
 C     26  23  21     1.381671262363   121.02820260     1.21453095
 H     24  22  21     1.082474844203   119.59260554   179.96528937
 H     26  23  21     1.082278384426   118.34264382   180.12052028
 H     27  26  23     1.082031926794   120.04897636   179.29955258
 N      1   2   3     1.346961919305   121.47628019   179.96887911
 C     31   1   2     1.461723106327   122.44276699   174.64971770
 H     32  31   1     1.089140629233   109.37777695   323.90560034
 H     32  31   1     1.090390815127   106.58324568   209.74185910
 C     32  31   1     1.511922671230   112.86915796    88.38155944
 H     35  32  31     1.090116533164   111.09150629    58.32312431
 H     35  32  31     1.089376827516   110.33901184   177.93004233
 H     35  32  31     1.089958625120   111.40786714   297.91141800
 C     23  21   7     1.481204675803   123.91999317   354.68999759
 O     39  23  21     1.337404863465   113.42634588   333.06710743
 O     39  23  21     1.212577014144   123.69172666   154.79675310
 C     31   1   2     1.460459785631   121.94109035   355.35883374
 H     42  31   1     1.090301986984   106.72391760   208.95200745
 H     42  31   1     1.089680512537   109.17586474   323.22581346
 C     42  31   1     1.512592710565   112.86170716    87.48946971
 H     45  42  31     1.089293943702   110.32778072   178.57858681
 H     45  42  31     1.089881571334   111.45896885   298.58421593
 H     45  42  31     1.090055734712   111.04946872    59.00098208
 C     12  10   9     2.455882217746    91.26384766   177.17030934
 H     49  12  10     1.089591242247    86.25900538   322.54615010
 H     49  12  10     1.090489860144   129.91361989   214.59148892
 C     12  10   9     2.462454997684   151.44713899   183.62504021
 H     52  12  10     1.089152005509    86.94348737   138.27548660
 H     52  12  10     1.090184905963   129.83972755    29.97072666
 C     52  12  10     1.512125765861   109.07715303   249.75961955
 H     55  52  12     1.089365685231   110.34186003   207.15419557
 H     55  52  12     1.089998998613   111.43457337   327.14782833
 H     55  52  12     1.090092613916   111.07423588    87.55978982
 C     49  12  10     1.512458016595   109.34525760    73.73295169
 H     59  49  12     1.090097017496   111.05988636    88.51795146
 H     59  49  12     1.089315967022   110.31712781   208.07498578
 H     59  49  12     1.089899455795   111.49330900   328.07238757
 N     12  10   9     1.347261535519   121.50443223   179.36743513
 H     40  39  23     0.971278122967   108.18224386   179.57576254

---------------------------
INTERNAL COORDINATES (A.U.)
---------------------------
 C      0   0   0     0.000000000000     0.00000000     0.00000000
 C      1   0   0     2.664529002665     0.00000000     0.00000000
 C      2   1   0     2.590428666728   120.09108215     0.00000000
 C      3   2   1     2.677398682638   123.13801617   359.53512012
 C      4   3   2     2.675731195448   115.89217575     0.94110644
 C      5   4   3     2.568745294744   122.07253040   359.24747064
 C      4   3   2     2.646865346447   119.44294315   179.28237687
 C      7   4   3     2.649548905950   118.95422740     0.03946050
 C      8   7   4     2.676656222306   119.37975505   359.38022794
 C      9   8   7     2.590996382730   123.15672522   180.52569319
 H     10   9   8     2.039330305628   118.03232479   181.05695899
 C     10   9   8     2.663900478700   120.12358123     0.15228229
 C     12  10   9     2.698878049499   117.49546205   359.30107531
 C     13  12  10     2.569380390409   121.27954174     0.46594666
 H      2   1   3     2.039506877852   121.89809555   178.32727850
 H      5   4   3     2.045195368596   118.68086967   179.33614176
 H      6   5   4     2.039624335776   118.83094548   180.83913328
 H     13  12  10     2.039356642500   119.88557379   179.98197007
 H     14  13  12     2.045674998282   118.99062475   180.28621080
 O      3   2   1     2.561936069820   116.23035743   178.71618107
 C      7   4   3     2.796961442026   120.39604792   177.35887591
 C     21   7   4     2.634282335685   117.53867422   290.81523187
 C     21   7   4     2.654140335188   123.76602437   114.21014090
 C     22  21   7     2.616934558900   121.14202512   183.62024656
 H     22  21   7     2.046517512829   118.87924137     2.54815138
 C     23  21   7     2.633801874861   119.61979725   175.40754349
 C     26  23  21     2.610980292976   121.02820260     1.21453095
 H     24  22  21     2.045581002403   119.59260554   179.96528937
 H     26  23  21     2.045209747228   118.34264382   180.12052028
 H     27  26  23     2.044744009799   120.04897636   179.29955258
 N      1   2   3     2.545389140308   121.47628019   179.96887911
 C     31   1   2     2.762256354583   122.44276699   174.64971770
 H     32  31   1     2.058177510577   109.37777695   323.90560034
 H     32  31   1     2.060540019534   106.58324568   209.74185910
 C     32  31   1     2.857119784291   112.86915796    88.38155944
 H     35  32  31     2.060021701739   111.09150629    58.32312431
 H     35  32  31     2.058623860645   110.33901184   177.93004233
 H     35  32  31     2.059723298783   111.40786714   297.91141800
 C     23  21   7     2.799071185551   123.91999317   354.68999759
 O     39  23  21     2.527328922123   113.42634588   333.06710743
 O     39  23  21     2.291438473020   123.69172666   154.79675310
 C     31   1   2     2.759869024448   121.94109035   355.35883374
 H     42  31   1     2.060372158671   106.72391760   208.95200745
 H     42  31   1     2.059197742166   109.17586474   323.22581346
 C     42  31   1     2.858385975133   112.86170716    87.48946971
 H     45  42  31     2.058467232936   110.32778072   178.57858681
 H     45  42  31     2.059577688229   111.45896885   298.58421593
 H     45  42  31     2.059906809316   111.04946872    59.00098208
 C     12  10   9     4.640944808708    91.26384766   177.17030934
 H     49  12  10     2.059029045766    86.25900538   322.54615010
 H     49  12  10     2.060727187489   129.91361989   214.59148892
 C     12  10   9     4.653365562729   151.44713899   183.62504021
 H     52  12  10     2.058199008624    86.94348737   138.27548660
 H     52  12  10     2.060150907605   129.83972755    29.97072666
 C     52  12  10     2.857503577523   109.07715303   249.75961955
 H     55  52  12     2.058602804777   110.34186003   207.15419557
 H     55  52  12     2.059799593627   111.43457337   327.14782833
 H     55  52  12     2.059976500911   111.07423588    87.55978982
 C     49  12  10     2.858131440418   109.34525760    73.73295169
 H     59  49  12     2.059984822472   111.05988636    88.51795146
 H     59  49  12     2.058508850980   110.31712781   208.07498578
 H     59  49  12     2.059611484962   111.49330900   328.07238757
 N     12  10   9     2.545955332898   121.50443223   179.36743513
 H     40  39  23     1.835449652276   108.18224386   179.57576254

---------------------
BASIS SET INFORMATION
---------------------
There are 4 groups of distinct atoms

 Group   1 Type C   : 11s6p2d1f contracted to 5s3p2d1f pattern {62111/411/11/1}
 Group   2 Type H   : 5s1p contracted to 3s1p pattern {311/1}
 Group   3 Type O   : 11s6p2d1f contracted to 5s3p2d1f pattern {62111/411/11/1}
 Group   4 Type N   : 11s6p2d1f contracted to 5s3p2d1f pattern {62111/411/11/1}

Atom   0C    basis set group =>   1
Atom   1C    basis set group =>   1
Atom   2C    basis set group =>   1
Atom   3C    basis set group =>   1
Atom   4C    basis set group =>   1
Atom   5C    basis set group =>   1
Atom   6C    basis set group =>   1
Atom   7C    basis set group =>   1
Atom   8C    basis set group =>   1
Atom   9C    basis set group =>   1
Atom  10H    basis set group =>   2
Atom  11C    basis set group =>   1
Atom  12C    basis set group =>   1
Atom  13C    basis set group =>   1
Atom  14H    basis set group =>   2
Atom  15H    basis set group =>   2
Atom  16H    basis set group =>   2
Atom  17H    basis set group =>   2
Atom  18H    basis set group =>   2
Atom  19O    basis set group =>   3
Atom  20C    basis set group =>   1
Atom  21C    basis set group =>   1
Atom  22C    basis set group =>   1
Atom  23C    basis set group =>   1
Atom  24H    basis set group =>   2
Atom  25C    basis set group =>   1
Atom  26C    basis set group =>   1
Atom  27H    basis set group =>   2
Atom  28H    basis set group =>   2
Atom  29H    basis set group =>   2
Atom  30N    basis set group =>   4
Atom  31C    basis set group =>   1
Atom  32H    basis set group =>   2
Atom  33H    basis set group =>   2
Atom  34C    basis set group =>   1
Atom  35H    basis set group =>   2
Atom  36H    basis set group =>   2
Atom  37H    basis set group =>   2
Atom  38C    basis set group =>   1
Atom  39O    basis set group =>   3
Atom  40O    basis set group =>   3
Atom  41C    basis set group =>   1
Atom  42H    basis set group =>   2
Atom  43H    basis set group =>   2
Atom  44C    basis set group =>   1
Atom  45H    basis set group =>   2
Atom  46H    basis set group =>   2
Atom  47H    basis set group =>   2
Atom  48C    basis set group =>   1
Atom  49H    basis set group =>   2
Atom  50H    basis set group =>   2
Atom  51C    basis set group =>   1
Atom  52H    basis set group =>   2
Atom  53H    basis set group =>   2
Atom  54C    basis set group =>   1
Atom  55H    basis set group =>   2
Atom  56H    basis set group =>   2
Atom  57H    basis set group =>   2
Atom  58C    basis set group =>   1
Atom  59H    basis set group =>   2
Atom  60H    basis set group =>   2
Atom  61H    basis set group =>   2
Atom  62N    basis set group =>   4
Atom  63H    basis set group =>   2
---------------------------------
AUXILIARY/J BASIS SET INFORMATION
---------------------------------
There are 4 groups of distinct atoms

 Group   1 Type C   : 12s5p4d2f1g contracted to 6s4p3d1f1g pattern {711111/2111/211/2/1}
 Group   2 Type H   : 5s2p1d contracted to 3s1p1d pattern {311/2/1}
 Group   3 Type O   : 12s5p4d2f1g contracted to 6s4p3d1f1g pattern {711111/2111/211/2/1}
 Group   4 Type N   : 12s5p4d2f1g contracted to 6s4p3d1f1g pattern {711111/2111/211/2/1}

Atom   0C    basis set group =>   1
Atom   1C    basis set group =>   1
Atom   2C    basis set group =>   1
Atom   3C    basis set group =>   1
Atom   4C    basis set group =>   1
Atom   5C    basis set group =>   1
Atom   6C    basis set group =>   1
Atom   7C    basis set group =>   1
Atom   8C    basis set group =>   1
Atom   9C    basis set group =>   1
Atom  10H    basis set group =>   2
Atom  11C    basis set group =>   1
Atom  12C    basis set group =>   1
Atom  13C    basis set group =>   1
Atom  14H    basis set group =>   2
Atom  15H    basis set group =>   2
Atom  16H    basis set group =>   2
Atom  17H    basis set group =>   2
Atom  18H    basis set group =>   2
Atom  19O    basis set group =>   3
Atom  20C    basis set group =>   1
Atom  21C    basis set group =>   1
Atom  22C    basis set group =>   1
Atom  23C    basis set group =>   1
Atom  24H    basis set group =>   2
Atom  25C    basis set group =>   1
Atom  26C    basis set group =>   1
Atom  27H    basis set group =>   2
Atom  28H    basis set group =>   2
Atom  29H    basis set group =>   2
Atom  30N    basis set group =>   4
Atom  31C    basis set group =>   1
Atom  32H    basis set group =>   2
Atom  33H    basis set group =>   2
Atom  34C    basis set group =>   1
Atom  35H    basis set group =>   2
Atom  36H    basis set group =>   2
Atom  37H    basis set group =>   2
Atom  38C    basis set group =>   1
Atom  39O    basis set group =>   3
Atom  40O    basis set group =>   3
Atom  41C    basis set group =>   1
Atom  42H    basis set group =>   2
Atom  43H    basis set group =>   2
Atom  44C    basis set group =>   1
Atom  45H    basis set group =>   2
Atom  46H    basis set group =>   2
Atom  47H    basis set group =>   2
Atom  48C    basis set group =>   1
Atom  49H    basis set group =>   2
Atom  50H    basis set group =>   2
Atom  51C    basis set group =>   1
Atom  52H    basis set group =>   2
Atom  53H    basis set group =>   2
Atom  54C    basis set group =>   1
Atom  55H    basis set group =>   2
Atom  56H    basis set group =>   2
Atom  57H    basis set group =>   2
Atom  58C    basis set group =>   1
Atom  59H    basis set group =>   2
Atom  60H    basis set group =>   2
Atom  61H    basis set group =>   2
Atom  62N    basis set group =>   4
Atom  63H    basis set group =>   2
---------------------------------
AUXILIARY/C BASIS SET INFORMATION
---------------------------------
There are 4 groups of distinct atoms

 Group   1 Type C   : 8s6p5d3f1g contracted to 8s6p4d3f1g pattern {11111111/111111/2111/111/1}
 Group   2 Type H   : 4s3p2d contracted to 4s2p1d pattern {1111/21/2}
 Group   3 Type O   : 8s6p5d3f1g contracted to 8s6p4d3f1g pattern {11111111/111111/2111/111/1}
 Group   4 Type N   : 8s6p5d3f1g contracted to 8s6p4d3f1g pattern {11111111/111111/2111/111/1}

Atom   0C    basis set group =>   1
Atom   1C    basis set group =>   1
Atom   2C    basis set group =>   1
Atom   3C    basis set group =>   1
Atom   4C    basis set group =>   1
Atom   5C    basis set group =>   1
Atom   6C    basis set group =>   1
Atom   7C    basis set group =>   1
Atom   8C    basis set group =>   1
Atom   9C    basis set group =>   1
Atom  10H    basis set group =>   2
Atom  11C    basis set group =>   1
Atom  12C    basis set group =>   1
Atom  13C    basis set group =>   1
Atom  14H    basis set group =>   2
Atom  15H    basis set group =>   2
Atom  16H    basis set group =>   2
Atom  17H    basis set group =>   2
Atom  18H    basis set group =>   2
Atom  19O    basis set group =>   3
Atom  20C    basis set group =>   1
Atom  21C    basis set group =>   1
Atom  22C    basis set group =>   1
Atom  23C    basis set group =>   1
Atom  24H    basis set group =>   2
Atom  25C    basis set group =>   1
Atom  26C    basis set group =>   1
Atom  27H    basis set group =>   2
Atom  28H    basis set group =>   2
Atom  29H    basis set group =>   2
Atom  30N    basis set group =>   4
Atom  31C    basis set group =>   1
Atom  32H    basis set group =>   2
Atom  33H    basis set group =>   2
Atom  34C    basis set group =>   1
Atom  35H    basis set group =>   2
Atom  36H    basis set group =>   2
Atom  37H    basis set group =>   2
Atom  38C    basis set group =>   1
Atom  39O    basis set group =>   3
Atom  40O    basis set group =>   3
Atom  41C    basis set group =>   1
Atom  42H    basis set group =>   2
Atom  43H    basis set group =>   2
Atom  44C    basis set group =>   1
Atom  45H    basis set group =>   2
Atom  46H    basis set group =>   2
Atom  47H    basis set group =>   2
Atom  48C    basis set group =>   1
Atom  49H    basis set group =>   2
Atom  50H    basis set group =>   2
Atom  51C    basis set group =>   1
Atom  52H    basis set group =>   2
Atom  53H    basis set group =>   2
Atom  54C    basis set group =>   1
Atom  55H    basis set group =>   2
Atom  56H    basis set group =>   2
Atom  57H    basis set group =>   2
Atom  58C    basis set group =>   1
Atom  59H    basis set group =>   2
Atom  60H    basis set group =>   2
Atom  61H    basis set group =>   2
Atom  62N    basis set group =>   4
Atom  63H    basis set group =>   2


           ************************************************************
           *        Program running with 8 parallel MPI-processes     *
           *              working on a common directory               *
           ************************************************************
------------------------------------------------------------------------------
                           ORCA GTO INTEGRAL CALCULATION
                           -- RI-GTO INTEGRALS CHOSEN --
------------------------------------------------------------------------------
------------------------------------------------------------------------------
                   ___                                                        
                  /   \      - P O W E R E D   B Y -                         
                 /     \                                                     
                 |  |  |   _    _      __       _____    __    __             
                 |  |  |  | |  | |    /  \     |  _  \  |  |  /  |          
                  \  \/   | |  | |   /    \    | | | |  |  | /  /          
                 / \  \   | |__| |  /  /\  \   | |_| |  |  |/  /          
                |  |  |   |  __  | /  /__\  \  |    /   |      \           
                |  |  |   | |  | | |   __   |  |    \   |  |\   \          
                \     /   | |  | | |  |  |  |  | |\  \  |  | \   \       
                 \___/    |_|  |_| |__|  |__|  |_| \__\ |__|  \__/        
                                                                              
                      - O R C A' S   B I G   F R I E N D -                    
                                      &                                       
                       - I N T E G R A L  F E E D E R -                       
                                                                              
 v1 FN, 2020, v2 2021                                                         
------------------------------------------------------------------------------


Reading SHARK input file Rh_B_M06L_def2TZVP_coords.SHARKINP.tmp ... ok
----------------------
SHARK INTEGRAL PACKAGE
----------------------

Number of atoms                             ...     64
Number of basis functions                   ...   1209
Number of shells                            ...    487
Maximum angular momentum                    ...      3
Integral batch strategy                     ... SHARK/LIBINT Hybrid
RI-J (if used) integral strategy            ... SPLIT-RIJ (Revised 2003 algorithm where possible)
Printlevel                                  ...      1
Contraction scheme used                     ... SEGMENTED contraction
Coulomb Range Separation                    ... NOT USED
Exchange Range Separation                   ... NOT USED
Finite Nucleus Model                        ... NOT USED
Auxiliary Coulomb fitting basis             ... AVAILABLE
   # of basis functions in Aux-J            ...   1958
   # of shells in Aux-J                     ...    650
   Maximum angular momentum in Aux-J        ...      4
Auxiliary J/K fitting basis                 ... NOT available
Auxiliary Correlation fitting basis         ... AVAILABLE
   # of basis functions in Aux-C            ...   2973
   # of shells in Aux-C                     ...    943
   Maximum angular momentum in Aux-C        ...      4
Auxiliary 'external' fitting basis          ... NOT available
Integral threshold                          ...     2.500000e-11
Primitive cut-off                           ...     2.500000e-12
Primitive pair pre-selection threshold      ...     2.500000e-12

Calculating pre-screening integrals         ... done (  0.1 sec) Dimension = 487
Organizing shell pair data                  ... done (  0.4 sec)
Shell pair information
Total number of shell pairs                 ...    118828
Shell pairs after pre-screening             ...     67079
Total number of primitive shell pairs       ...    359100
Primitive shell pairs kept                  ...    130590
          la=0 lb=0:  18001 shell pairs
          la=1 lb=0:  19892 shell pairs
          la=1 lb=1:   5508 shell pairs
          la=2 lb=0:   9191 shell pairs
          la=2 lb=1:   5159 shell pairs
          la=2 lb=2:   1214 shell pairs
          la=3 lb=0:   4292 shell pairs
          la=3 lb=1:   2448 shell pairs
          la=3 lb=2:   1102 shell pairs
          la=3 lb=3:    272 shell pairs

Calculating one electron integrals          ... done (  0.1 sec)
Calculating RI/J V-Matrix + Cholesky decomp.... done (  0.1 sec)
Calculating RI/C V-Matrix + Cholesky decomp.... done (  0.3 sec)
Calculating Nuclear repulsion               ... done (  0.0 sec) ENN=   3335.373366877639 Eh

SHARK setup successfully completed in   1.5 seconds

Maximum memory used throughout the entire GTOINT-calculation: 111.4 MB


           ************************************************************
           *        Program running with 8 parallel MPI-processes     *
           *              working on a common directory               *
           ************************************************************
-------------------------------------------------------------------------------
                                 ORCA SCF
-------------------------------------------------------------------------------

------------
SCF SETTINGS
------------
Hamiltonian:
 Density Functional     Method          .... DFT(GTOs)
 Exchange Functional    Exchange        .... B88
   X-Alpha parameter    XAlpha          ....  0.666667
   Becke's b parameter  XBeta           ....  0.004200
 Correlation Functional Correlation     .... LYP
 LDA part of GGA corr.  LDAOpt          .... VWN-3
 Gradients option       PostSCFGGA      .... off
 Hybrid DFT is turned on
   Fraction HF Exchange ScalHFX         ....  0.530000
   Scaling of DF-GGA-X  ScalDFX         ....  0.470000
   Scaling of DF-GGA-C  ScalDFC         ....  0.730000
   Scaling of DF-LDA-C  ScalLDAC        ....  0.730000
   Perturbative correction              ....  0.270000
   Density functional embedding theory  .... OFF
   NL short-range parameter             ....  7.800000
 RI-approximation to the Coulomb term is turned on
   Number of AuxJ basis functions       .... 1958
   RIJ-COSX (HFX calculated with COS-X)).... on


General Settings:
 Integral files         IntName         .... Rh_B_M06L_def2TZVP_coords
 Hartree-Fock type      HFTyp           .... RHF
 Total Charge           Charge          ....    1
 Multiplicity           Mult            ....    1
 Number of Electrons    NEL             ....  236
 Basis Dimension        Dim             .... 1209
 Nuclear Repulsion      ENuc            ....   3335.3733668776 Eh

Convergence Acceleration:
 DIIS                   CNVDIIS         .... on
   Start iteration      DIISMaxIt       ....    12
   Startup error        DIISStart       ....  0.200000
   # of expansion vecs  DIISMaxEq       ....     5
   Bias factor          DIISBfac        ....   1.050
   Max. coefficient     DIISMaxC        ....  10.000
 Trust-Rad. Augm. Hess. CNVTRAH         .... auto
   Auto Start mean grad. ratio tolernc. ....  1.125000
   Auto Start start iteration           ....    20
   Auto Start num. interpolation iter.  ....    10
   Max. Number of Micro iterations      ....    16
   Max. Number of Macro iterations      .... Maxiter - #DIIS iter
   Number of Davidson start vectors     ....     2
   Converg. threshold I  (grad. norm)   ....   1.000e-05
   Converg. threshold II (energy diff.) ....   1.000e-08
   Grad. Scal. Fac. for Micro threshold ....   0.100
   Minimum threshold for Micro iter.    ....   0.010
   NR start threshold (gradient norm)   ....   0.001
   Initial trust radius                 ....   0.400
   Minimum AH scaling param. (alpha)    ....   1.000
   Maximum AH scaling param. (alpha)    .... 1000.000
   Orbital update algorithm             .... Taylor
   White noise on init. David. guess    .... on
   Maximum white noise                  ....   0.010
   Quad. conv. algorithm                .... NR
 SOSCF                  CNVSOSCF        .... on
   Start iteration      SOSCFMaxIt      ....   150
   Startup grad/error   SOSCFStart      ....  0.003300
 Level Shifting         CNVShift        .... on
   Level shift para.    LevelShift      ....    0.2500
   Turn off err/grad.   ShiftErr        ....    0.0010
 Zerner damping         CNVZerner       .... off
 Static damping         CNVDamp         .... on
   Fraction old density DampFac         ....    0.7000
   Max. Damping (<1)    DampMax         ....    0.9800
   Min. Damping (>=0)   DampMin         ....    0.0000
   Turn off err/grad.   DampErr         ....    0.1000
 Fernandez-Rico         CNVRico         .... off

SCF Procedure:
 Maximum # iterations   MaxIter         ....   125
 SCF integral mode      SCFMode         .... Direct
   Integral package                     .... SHARK and LIBINT hybrid scheme
 Reset frequency        DirectResetFreq ....    20
 Integral Threshold     Thresh          ....  2.500e-11 Eh
 Primitive CutOff       TCut            ....  2.500e-12 Eh

Convergence Tolerance:
 Convergence Check Mode ConvCheckMode   .... Total+1el-Energy
 Convergence forced     ConvForced      .... 1
 Energy Change          TolE            ....  1.000e-08 Eh
 1-El. energy change                    ....  1.000e-05 Eh
 Orbital Gradient       TolG            ....  1.000e-05
 Orbital Rotation angle TolX            ....  1.000e-05
 DIIS Error             TolErr          ....  5.000e-07


Diagonalization of the overlap matrix:
Smallest eigenvalue                        ... 4.276e-06
Time for diagonalization                   ...    0.189 sec
Threshold for overlap eigenvalues          ... 1.000e-08
Number of eigenvalues below threshold      ... 0
Time for construction of square roots      ...    0.122 sec
Total time needed                          ...    0.315 sec

Time for model grid setup =    0.414 sec

------------------------------
INITIAL GUESS: MODEL POTENTIAL
------------------------------
Loading Hartree-Fock densities                     ... done
Calculating cut-offs                               ... done
Initializing the effective Hamiltonian             ... done
Setting up the integral package (SHARK)            ... done
Starting the Coulomb interaction                   ... done (   1.0 sec)
Reading the grid                                   ... done
Mapping shells                                     ... done
Starting the XC term evaluation                    ... done (   0.4 sec)
  promolecular density results
     # of electrons  =    236.994652319
     EX              =   -191.197396180
     EC              =     -2.696971805
     EX+EC           =   -193.894367985
Transforming the Hamiltonian                       ... done (   0.1 sec)
Diagonalizing the Hamiltonian                      ... done (   0.1 sec)
Back transforming the eigenvectors                 ... done (   0.0 sec)
Now organizing SCF variables                       ... done
                      ------------------
                      INITIAL GUESS DONE (   2.0 sec)
                      ------------------
-------------------
DFT GRID GENERATION
-------------------

General Integration Accuracy     IntAcc      ... 4.388
Radial Grid Type                 RadialGrid  ... OptM3 with GC (2021)
Angular Grid (max. ang.)         AngularGrid ... 4 (Lebedev-302)
Angular grid pruning method      GridPruning ... 4 (adaptive)
Weight generation scheme         WeightScheme... Becke
Basis function cutoff            BFCut       ... 1.0000e-11
Integration weight cutoff        WCut        ... 1.0000e-14
Angular grids for H and He will be reduced by one unit
Partially contracted basis set               ... off
Rotationally invariant grid construction     ... off

Total number of grid points                  ...   294392
Total number of batches                      ...     4630
Average number of points per batch           ...       63
Average number of grid points per atom       ...     4600
Time for grid setup =    1.752 sec

--------------------
COSX GRID GENERATION
--------------------

GRIDX 1
-------
General Integration Accuracy     IntAcc      ... 3.816
Radial Grid Type                 RadialGrid  ... OptM3 with GC (2021)
Angular Grid (max. ang.)         AngularGrid ... 1 (Lebedev-50)
Angular grid pruning method      GridPruning ... 4 (adaptive)
Weight generation scheme         WeightScheme... Becke
Basis function cutoff            BFCut       ... 1.0000e-11
Integration weight cutoff        WCut        ... 1.0000e-14
Angular grids for H and He will be reduced by one unit
Partially contracted basis set               ... on
Rotationally invariant grid construction     ... off

Total number of grid points                  ...    37411
Total number of batches                      ...      620
Average number of points per batch           ...       60
Average number of grid points per atom       ...      585
UseSFitting                                  ... on

GRIDX 2
-------
General Integration Accuracy     IntAcc      ... 4.020
Radial Grid Type                 RadialGrid  ... OptM3 with GC (2021)
Angular Grid (max. ang.)         AngularGrid ... 2 (Lebedev-110)
Angular grid pruning method      GridPruning ... 4 (adaptive)
Weight generation scheme         WeightScheme... Becke
Basis function cutoff            BFCut       ... 1.0000e-11
Integration weight cutoff        WCut        ... 1.0000e-14
Angular grids for H and He will be reduced by one unit
Partially contracted basis set               ... on
Rotationally invariant grid construction     ... off

Total number of grid points                  ...    79674
Total number of batches                      ...     1277
Average number of points per batch           ...       62
Average number of grid points per atom       ...     1245
UseSFitting                                  ... on

GRIDX 3
-------
General Integration Accuracy     IntAcc      ... 4.338
Radial Grid Type                 RadialGrid  ... OptM3 with GC (2021)
Angular Grid (max. ang.)         AngularGrid ... 3 (Lebedev-194)
Angular grid pruning method      GridPruning ... 4 (adaptive)
Weight generation scheme         WeightScheme... Becke
Basis function cutoff            BFCut       ... 1.0000e-11
Integration weight cutoff        WCut        ... 1.0000e-14
Angular grids for H and He will be reduced by one unit
Partially contracted basis set               ... on
Rotationally invariant grid construction     ... off

Total number of grid points                  ...   173677
Total number of batches                      ...     2747
Average number of points per batch           ...       63
Average number of grid points per atom       ...     2714
UseSFitting                                  ... on

Time for X-Grid setup             =    2.340 sec


--------------------
CPCM SOLVATION MODEL
--------------------
CPCM parameters:
  Epsilon                                         ...      24.8520
  Refrac                                          ...       1.3611
  Rsolv                                           ...       1.3000
  Surface type                                    ... GAUSSIAN VDW
  Epsilon function type                           ...         CPCM
Solvent:                                     ... ETHANOL
SMD-CDS solvent descriptors:
  Soln                                       ...    1.3611
  Soln25                                     ...    1.3593
  Sola                                       ...    0.3700
  Solb                                       ...    0.4800
  Solg                                       ...   31.6200
  Solc                                       ...    0.0000
  Solh                                       ...    0.0000
Radii:
 Radius for C  used is    3.4960 Bohr (=   1.8500 Ang.)
 Radius for H  used is    2.2677 Bohr (=   1.2000 Ang.)
 Radius for O  used is    3.0765 Bohr (=   1.6280 Ang.)
 Radius for N  used is    3.5716 Bohr (=   1.8900 Ang.)
Calculating surface                               ...        done! (  0.0s)
GEPOL surface points                              ...         3653
GEPOL Volume                                      ...    3080.5856
GEPOL Surface-area                                ...    1709.2145
Calculating surface distance matrix               ...        done! (  0.1s)
Performing Cholesky decomposition & store         ...        done! (  0.4s)
Overall time for CPCM initialization              ...                 0.4s
--------------
SCF ITERATIONS
--------------
ITER       Energy         Delta-E        Max-DP      RMS-DP      [F,P]     Damp
               ***  Starting incremental Fock matrix formation  ***
  0  -1417.3320181259   0.000000000000 0.04636071  0.00053020  0.2770048 0.7000
  1  -1417.6885468058  -0.356528679852 0.04706813  0.00043945  0.1339950 0.7000
                               ***Turning on DIIS***
  2  -1417.8728857079  -0.184338902067 0.07789801  0.00091363  0.0560516 0.0000
  3  -1418.1819068978  -0.309021189889 0.06589997  0.00032857  0.0634592 0.0000
  4  -1418.2233460094  -0.041439111660 0.01438155  0.00011897  0.0113932 0.0000
  5  -1418.2246841363  -0.001338126904 0.00806914  0.00005309  0.0102560 0.0000
                      *** Initiating the SOSCF procedure ***
                           *** Shutting down DIIS ***
                      *** Re-Reading the Fockian *** 
                      *** Removing any level shift *** 
ITER      Energy       Delta-E        Grad      Rot      Max-DP    RMS-DP
  6  -1418.22496859  -0.0002844502  0.001217  0.001217  0.003025  0.000021
               *** Restarting incremental Fock matrix formation ***
  7  -1418.22502744  -0.0000588570  0.000773  0.003290  0.019122  0.000160
  8  -1418.22504973  -0.0000222887  0.000279  0.002770  0.008697  0.000074
  9  -1418.22505338  -0.0000036492  0.000219  0.000694  0.007752  0.000065
 10  -1418.22505576  -0.0000023766  0.000026  0.000121  0.000909  0.000008
 11  -1418.22505585  -0.0000000891  0.000016  0.000050  0.000374  0.000003
 12  -1418.22505589  -0.0000000405  0.000003  0.000015  0.000287  0.000002
 13  -1418.22505591  -0.0000000196  0.000003  0.000007  0.000339  0.000001
                  ***Gradient check signals convergence***
              ***Rediagonalizing the Fockian in SOSCF/NRSCF***

               *****************************************************
               *                     SUCCESS                       *
               *           SCF CONVERGED AFTER  14 CYCLES          *
               *****************************************************

Old exchange energy                            =   -103.049039092 Eh
New exchange energy                            =   -103.048990023 Eh
Exchange energy change after final integration =      0.000049069 Eh
Total energy after final integration           =  -1418.225006908 Eh
Final COS-X integration done in                =    49.755 sec

SMD CDS free energy correction energy :                -1.41803     Kcal/mol
Total Energy after SMD CDS correction =             -1418.227266686 Eh

----------------
TOTAL SCF ENERGY
----------------

Total Energy       :        -1418.22726669 Eh          -38591.92590 eV

Components:
Nuclear Repulsion  :         3335.37336688 Eh           90760.12347 eV
Electronic Energy  :        -4753.60063356 Eh         -129352.04937 eV
One Electron Energy:        -8534.32060676 Eh         -232230.67009 eV
Two Electron Energy:         3780.71997319 Eh          102878.62072 eV
Max COSX asymmetry :            0.00000546 Eh               0.00015 eV
CPCM Dielectric    :           -0.08478274 Eh              -2.30706 eV
SMD CDS (Gcds)     :           -0.00225978 Eh              -0.06149 eV

Virial components:
Potential Energy   :        -2831.88640986 Eh          -77059.54684 eV
Kinetic Energy     :         1413.65914318 Eh           38467.62094 eV
Virial Ratio       :            2.00323142


DFT components:
N(Alpha)           :      117.999998693528 electrons
N(Beta)            :      117.999998693528 electrons
N(Total)           :      235.999997387056 electrons
E(X)               :      -91.545081990157 Eh       
E(C)               :       -5.864207374757 Eh       
E(XC)              :      -97.409289364914 Eh       
DFET-embed. en.    :        0.000000000000 Eh       
CPCM Solvation Model Properties:
Surface-charge          :           -1.07799340
Charge-correction       :            0.00693014 Eh               0.18858 eV
Free-energy (cav+disp)  :           -0.00225978 Eh              -0.06149 eV

---------------
SCF CONVERGENCE
---------------

  Last Energy change         ...   -6.9871e-08  Tolerance :   1.0000e-08
  Last MAX-Density change    ...    1.9984e-15  Tolerance :   1.0000e-07
  Last RMS-Density change    ...    1.1617e-17  Tolerance :   5.0000e-09
  Last Orbital Gradient      ...    7.9550e-07  Tolerance :   1.0000e-05
  Last Orbital Rotation      ...    4.1637e-06  Tolerance :   1.0000e-05

             **** THE GBW FILE WAS UPDATED (Rh_B_M06L_def2TZVP_coords.gbw) ****
             **** DENSITY Rh_B_M06L_def2TZVP_coords.scfp WAS UPDATED ****
             **** ENERGY FILE WAS UPDATED (Rh_B_M06L_def2TZVP_coords.en.tmp) ****
             **** THE GBW FILE WAS UPDATED (Rh_B_M06L_def2TZVP_coords.gbw) ****
             **** DENSITY Rh_B_M06L_def2TZVP_coords.scfp WAS UPDATED ****
----------------
ORBITAL ENERGIES
----------------

  NO   OCC          E(Eh)            E(eV) 
   0   2.0000     -19.813654      -539.1569 
   1   2.0000     -19.783976      -538.3493 
   2   2.0000     -19.729120      -536.8567 
   3   2.0000     -14.874984      -404.7689 
   4   2.0000     -14.874490      -404.7554 
   5   2.0000     -10.777072      -293.2590 
   6   2.0000     -10.718464      -291.6642 
   7   2.0000     -10.718185      -291.6566 
   8   2.0000     -10.695212      -291.0315 
   9   2.0000     -10.694720      -291.0181 
  10   2.0000     -10.691378      -290.9272 
  11   2.0000     -10.660562      -290.0886 
  12   2.0000     -10.652922      -289.8807 
  13   2.0000     -10.645346      -289.6746 
  14   2.0000     -10.645095      -289.6678 
  15   2.0000     -10.645018      -289.6657 
  16   2.0000     -10.644895      -289.6623 
  17   2.0000     -10.644760      -289.6586 
  18   2.0000     -10.644743      -289.6582 
  19   2.0000     -10.643041      -289.6119 
  20   2.0000     -10.642915      -289.6084 
  21   2.0000     -10.637013      -289.4478 
  22   2.0000     -10.635592      -289.4092 
  23   2.0000     -10.634541      -289.3806 
  24   2.0000     -10.630163      -289.2614 
  25   2.0000     -10.626214      -289.1540 
  26   2.0000     -10.626151      -289.1523 
  27   2.0000     -10.621052      -289.0135 
  28   2.0000     -10.620972      -289.0113 
  29   2.0000     -10.598265      -288.3934 
  30   2.0000     -10.598185      -288.3913 
  31   2.0000     -10.598171      -288.3909 
  32   2.0000     -10.597948      -288.3848 
  33   2.0000      -1.280223       -34.8366 
  34   2.0000      -1.272245       -34.6195 
  35   2.0000      -1.175710       -31.9927 
  36   2.0000      -1.106273       -30.1032 
  37   2.0000      -1.105673       -30.0869 
  38   2.0000      -1.030786       -28.0491 
  39   2.0000      -1.006078       -27.3768 
  40   2.0000      -0.998908       -27.1817 
  41   2.0000      -0.948339       -25.8056 
  42   2.0000      -0.912746       -24.8371 
  43   2.0000      -0.901052       -24.5189 
  44   2.0000      -0.893945       -24.3255 
  45   2.0000      -0.891795       -24.2670 
  46   2.0000      -0.886491       -24.1227 
  47   2.0000      -0.884930       -24.0802 
  48   2.0000      -0.865831       -23.5605 
  49   2.0000      -0.850768       -23.1506 
  50   2.0000      -0.829920       -22.5833 
  51   2.0000      -0.790288       -21.5048 
  52   2.0000      -0.773992       -21.0614 
  53   2.0000      -0.770892       -20.9770 
  54   2.0000      -0.753187       -20.4953 
  55   2.0000      -0.743974       -20.2446 
  56   2.0000      -0.737754       -20.0753 
  57   2.0000      -0.722191       -19.6518 
  58   2.0000      -0.708323       -19.2745 
  59   2.0000      -0.700636       -19.0653 
  60   2.0000      -0.693459       -18.8700 
  61   2.0000      -0.688466       -18.7341 
  62   2.0000      -0.639543       -17.4028 
  63   2.0000      -0.638155       -17.3651 
  64   2.0000      -0.629058       -17.1175 
  65   2.0000      -0.612143       -16.6573 
  66   2.0000      -0.600585       -16.3428 
  67   2.0000      -0.598478       -16.2854 
  68   2.0000      -0.590542       -16.0695 
  69   2.0000      -0.584519       -15.9056 
  70   2.0000      -0.573706       -15.6113 
  71   2.0000      -0.571005       -15.5378 
  72   2.0000      -0.567753       -15.4493 
  73   2.0000      -0.556385       -15.1400 
  74   2.0000      -0.551602       -15.0099 
  75   2.0000      -0.540849       -14.7173 
  76   2.0000      -0.532872       -14.5002 
  77   2.0000      -0.531975       -14.4758 
  78   2.0000      -0.531238       -14.4557 
  79   2.0000      -0.527924       -14.3655 
  80   2.0000      -0.516082       -14.0433 
  81   2.0000      -0.512361       -13.9420 
  82   2.0000      -0.504807       -13.7365 
  83   2.0000      -0.504385       -13.7250 
  84   2.0000      -0.501731       -13.6528 
  85   2.0000      -0.500317       -13.6143 
  86   2.0000      -0.496762       -13.5176 
  87   2.0000      -0.494119       -13.4457 
  88   2.0000      -0.489394       -13.3171 
  89   2.0000      -0.470199       -12.7948 
  90   2.0000      -0.469896       -12.7865 
  91   2.0000      -0.457682       -12.4542 
  92   2.0000      -0.454610       -12.3706 
  93   2.0000      -0.453634       -12.3440 
  94   2.0000      -0.450619       -12.2620 
  95   2.0000      -0.447466       -12.1762 
  96   2.0000      -0.442004       -12.0275 
  97   2.0000      -0.439024       -11.9465 
  98   2.0000      -0.438191       -11.9238 
  99   2.0000      -0.436267       -11.8714 
 100   2.0000      -0.431542       -11.7429 
 101   2.0000      -0.425594       -11.5810 
 102   2.0000      -0.419139       -11.4054 
 103   2.0000      -0.412697       -11.2301 
 104   2.0000      -0.410602       -11.1730 
 105   2.0000      -0.409463       -11.1420 
 106   2.0000      -0.408140       -11.1061 
 107   2.0000      -0.400665       -10.9027 
 108   2.0000      -0.397967       -10.8292 
 109   2.0000      -0.388427       -10.5696 
 110   2.0000      -0.376480       -10.2445 
 111   2.0000      -0.360036        -9.7971 
 112   2.0000      -0.327293        -8.9061 
 113   2.0000      -0.315972        -8.5980 
 114   2.0000      -0.312599        -8.5063 
 115   2.0000      -0.295973        -8.0538 
 116   2.0000      -0.276022        -7.5109 
 117   2.0000      -0.235000        -6.3947 
 118   0.0000      -0.060648        -1.6503 
 119   0.0000      -0.011105        -0.3022 
 120   0.0000       0.019484         0.5302 
 121   0.0000       0.030508         0.8302 
 122   0.0000       0.043158         1.1744 
 123   0.0000       0.046861         1.2752 
 124   0.0000       0.076952         2.0940 
 125   0.0000       0.081286         2.2119 
 126   0.0000       0.087488         2.3807 
 127   0.0000       0.092149         2.5075 
 128   0.0000       0.096081         2.6145 
 129   0.0000       0.101293         2.7563 
 130   0.0000       0.105032         2.8581 
 131   0.0000       0.107769         2.9325 
 132   0.0000       0.111800         3.0422 
 133   0.0000       0.113337         3.0841 
 134   0.0000       0.118627         3.2280 
 135   0.0000       0.120318         3.2740 
 136   0.0000       0.123477         3.3600 
 137   0.0000       0.127313         3.4644 
 138   0.0000       0.130130         3.5410 
 139   0.0000       0.136031         3.7016 
 140   0.0000       0.140923         3.8347 
 141   0.0000       0.141624         3.8538 
 142   0.0000       0.145899         3.9701 
 143   0.0000       0.146542         3.9876 
 144   0.0000       0.150992         4.1087 
 145   0.0000       0.152703         4.1553 
 146   0.0000       0.157495         4.2856 
 147   0.0000       0.162697         4.4272 
 148   0.0000       0.165411         4.5011 
 149   0.0000       0.166839         4.5399 
 150   0.0000       0.175484         4.7752 
 151   0.0000       0.178337         4.8528 
 152   0.0000       0.183522         4.9939 
 153   0.0000       0.183971         5.0061 
 154   0.0000       0.187383         5.0989 
 155   0.0000       0.191247         5.2041 
 156   0.0000       0.191711         5.2167 
 157   0.0000       0.195175         5.3110 
 158   0.0000       0.197379         5.3710 
 159   0.0000       0.199152         5.4192 
 160   0.0000       0.202076         5.4988 
 161   0.0000       0.203718         5.5435 
 162   0.0000       0.205453         5.5907 
 163   0.0000       0.210684         5.7330 
 164   0.0000       0.215576         5.8661 
 165   0.0000       0.217415         5.9162 
 166   0.0000       0.217820         5.9272 
 167   0.0000       0.221636         6.0310 
 168   0.0000       0.225951         6.1484 
 169   0.0000       0.230602         6.2750 
 170   0.0000       0.234236         6.3739 
 171   0.0000       0.237915         6.4740 
 172   0.0000       0.246625         6.7110 
 173   0.0000       0.247867         6.7448 
 174   0.0000       0.250126         6.8063 
 175   0.0000       0.253952         6.9104 
 176   0.0000       0.255256         6.9459 
 177   0.0000       0.257154         6.9975 
 178   0.0000       0.260420         7.0864 
 179   0.0000       0.262682         7.1480 
 180   0.0000       0.263764         7.1774 
 181   0.0000       0.272613         7.4182 
 182   0.0000       0.273721         7.4483 
 183   0.0000       0.280590         7.6352 
 184   0.0000       0.285553         7.7703 
 185   0.0000       0.287772         7.8307 
 186   0.0000       0.289038         7.8651 
 187   0.0000       0.294505         8.0139 
 188   0.0000       0.296079         8.0567 
 189   0.0000       0.300698         8.1824 
 190   0.0000       0.304086         8.2746 
 191   0.0000       0.306602         8.3431 
 192   0.0000       0.308891         8.4053 
 193   0.0000       0.309735         8.4283 
 194   0.0000       0.312065         8.4917 
 195   0.0000       0.313884         8.5412 
 196   0.0000       0.316723         8.6185 
 197   0.0000       0.319598         8.6967 
 198   0.0000       0.322089         8.7645 
 199   0.0000       0.326089         8.8733 
 200   0.0000       0.337763         9.1910 
 201   0.0000       0.339230         9.2309 
 202   0.0000       0.344445         9.3728 
 203   0.0000       0.346561         9.4304 
 204   0.0000       0.350714         9.5434 
 205   0.0000       0.352052         9.5798 
 206   0.0000       0.352971         9.6048 
 207   0.0000       0.355723         9.6797 
 208   0.0000       0.357663         9.7325 
 209   0.0000       0.359951         9.7948 
 210   0.0000       0.361193         9.8285 
 211   0.0000       0.371051        10.0968 
 212   0.0000       0.373246        10.1565 
 213   0.0000       0.377347        10.2681 
 214   0.0000       0.379302        10.3213 
 215   0.0000       0.383666        10.4401 
 216   0.0000       0.387385        10.5413 
 217   0.0000       0.391975        10.6662 
 218   0.0000       0.395111        10.7515 
 219   0.0000       0.399751        10.8778 
 220   0.0000       0.404867        11.0170 
 221   0.0000       0.408281        11.1099 
 222   0.0000       0.410741        11.1768 
 223   0.0000       0.413690        11.2571 
 224   0.0000       0.418997        11.4015 
 225   0.0000       0.419685        11.4202 
 226   0.0000       0.424717        11.5571 
 227   0.0000       0.428066        11.6483 
 228   0.0000       0.436287        11.8720 
 229   0.0000       0.439155        11.9500 
 230   0.0000       0.440441        11.9850 
 231   0.0000       0.445004        12.1092 
 232   0.0000       0.445932        12.1344 
 233   0.0000       0.450726        12.2649 
 234   0.0000       0.452234        12.3059 
 235   0.0000       0.453650        12.3445 
 236   0.0000       0.456210        12.4141 
 237   0.0000       0.459538        12.5047 
 238   0.0000       0.461363        12.5543 
 239   0.0000       0.466438        12.6924 
 240   0.0000       0.468403        12.7459 
 241   0.0000       0.472426        12.8554 
 242   0.0000       0.477533        12.9943 
 243   0.0000       0.479332        13.0433 
 244   0.0000       0.482645        13.1334 
 245   0.0000       0.485813        13.2197 
 246   0.0000       0.486854        13.2480 
 247   0.0000       0.488281        13.2868 
 248   0.0000       0.493575        13.4309 
 249   0.0000       0.494987        13.4693 
 250   0.0000       0.496513        13.5108 
 251   0.0000       0.499530        13.5929 
 252   0.0000       0.501144        13.6368 
 253   0.0000       0.504592        13.7307 
 254   0.0000       0.504987        13.7414 
 255   0.0000       0.507530        13.8106 
 256   0.0000       0.510781        13.8991 
 257   0.0000       0.511729        13.9249 
 258   0.0000       0.513383        13.9699 
 259   0.0000       0.515179        14.0187 
 260   0.0000       0.517539        14.0829 
 261   0.0000       0.519320        14.1314 
 262   0.0000       0.520272        14.1573 
 263   0.0000       0.521160        14.1815 
 264   0.0000       0.522759        14.2250 
 265   0.0000       0.527394        14.3511 
 266   0.0000       0.529055        14.3963 
 267   0.0000       0.531862        14.4727 
 268   0.0000       0.533247        14.5104 
 269   0.0000       0.536629        14.6024 
 270   0.0000       0.537410        14.6237 
 271   0.0000       0.540891        14.7184 
 272   0.0000       0.544412        14.8142 
 273   0.0000       0.547692        14.9035 
 274   0.0000       0.549914        14.9639 
 275   0.0000       0.553102        15.0507 
 276   0.0000       0.554774        15.0962 
 277   0.0000       0.561419        15.2770 
 278   0.0000       0.562508        15.3066 
 279   0.0000       0.568790        15.4776 
 280   0.0000       0.570544        15.5253 
 281   0.0000       0.575053        15.6480 
 282   0.0000       0.575898        15.6710 
 283   0.0000       0.581754        15.8303 
 284   0.0000       0.584076        15.8935 
 285   0.0000       0.588629        16.0174 
 286   0.0000       0.590630        16.0719 
 287   0.0000       0.594214        16.1694 
 288   0.0000       0.601467        16.3668 
 289   0.0000       0.607453        16.5296 
 290   0.0000       0.607601        16.5337 
 291   0.0000       0.616568        16.7777 
 292   0.0000       0.621509        16.9121 
 293   0.0000       0.623343        16.9620 
 294   0.0000       0.628433        17.1005 
 295   0.0000       0.632687        17.2163 
 296   0.0000       0.634140        17.2558 
 297   0.0000       0.648432        17.6447 
 298   0.0000       0.649641        17.6776 
 299   0.0000       0.657380        17.8882 
 300   0.0000       0.659286        17.9401 
 301   0.0000       0.660582        17.9753 
 302   0.0000       0.666253        18.1297 
 303   0.0000       0.667594        18.1662 
 304   0.0000       0.670684        18.2503 
 305   0.0000       0.672617        18.3028 
 306   0.0000       0.677616        18.4389 
 307   0.0000       0.681653        18.5487 
 308   0.0000       0.685961        18.6659 
 309   0.0000       0.686835        18.6897 
 310   0.0000       0.688829        18.7440 
 311   0.0000       0.689981        18.7753 
 312   0.0000       0.696809        18.9611 
 313   0.0000       0.702733        19.1223 
 314   0.0000       0.710633        19.3373 
 315   0.0000       0.713139        19.4055 
 316   0.0000       0.718116        19.5409 
 317   0.0000       0.722612        19.6633 
 318   0.0000       0.724778        19.7222 
 319   0.0000       0.726188        19.7606 
 320   0.0000       0.731503        19.9052 
 321   0.0000       0.735346        20.0098 
 322   0.0000       0.743641        20.2355 
 323   0.0000       0.745466        20.2852 
 324   0.0000       0.748682        20.3727 
 325   0.0000       0.751342        20.4450 
 326   0.0000       0.756080        20.5740 
 327   0.0000       0.762597        20.7513 
 328   0.0000       0.763562        20.7776 
 329   0.0000       0.770666        20.9709 
 330   0.0000       0.775927        21.1141 
 331   0.0000       0.776895        21.1404 
 332   0.0000       0.780301        21.2331 
 333   0.0000       0.782801        21.3011 
 334   0.0000       0.788000        21.4426 
 335   0.0000       0.791230        21.5305 
 336   0.0000       0.794443        21.6179 
 337   0.0000       0.796520        21.6744 
 338   0.0000       0.800952        21.7950 
 339   0.0000       0.801580        21.8121 
 340   0.0000       0.806744        21.9526 
 341   0.0000       0.809489        22.0273 
 342   0.0000       0.811944        22.0941 
 343   0.0000       0.819661        22.3041 
 344   0.0000       0.825287        22.4572 
 345   0.0000       0.828422        22.5425 
 346   0.0000       0.835937        22.7470 
 347   0.0000       0.836809        22.7707 
 348   0.0000       0.846900        23.0453 
 349   0.0000       0.851331        23.1659 
 350   0.0000       0.856142        23.2968 
 351   0.0000       0.857915        23.3451 
 352   0.0000       0.863506        23.4972 
 353   0.0000       0.866061        23.5667 
 354   0.0000       0.869213        23.6525 
 355   0.0000       0.877081        23.8666 
 356   0.0000       0.879756        23.9394 
 357   0.0000       0.886426        24.1209 
 358   0.0000       0.889372        24.2010 
 359   0.0000       0.895928        24.3794 
 360   0.0000       0.899078        24.4651 
 361   0.0000       0.902335        24.5538 
 362   0.0000       0.906972        24.6800 
 363   0.0000       0.909974        24.7616 
 364   0.0000       0.911671        24.8078 
 365   0.0000       0.915324        24.9072 
 366   0.0000       0.921332        25.0707 
 367   0.0000       0.925945        25.1962 
 368   0.0000       0.926929        25.2230 
 369   0.0000       0.929296        25.2874 
 370   0.0000       0.931237        25.3402 
 371   0.0000       0.935960        25.4688 
 372   0.0000       0.939895        25.5758 
 373   0.0000       0.947985        25.7960 
 374   0.0000       0.949544        25.8384 
 375   0.0000       0.953291        25.9404 
 376   0.0000       0.963403        26.2155 
 377   0.0000       0.968096        26.3432 
 378   0.0000       0.971435        26.4341 
 379   0.0000       0.975628        26.5482 
 380   0.0000       0.982215        26.7274 
 381   0.0000       0.987675        26.8760 
 382   0.0000       0.992094        26.9962 
 383   0.0000       0.995128        27.0788 
 384   0.0000       1.005900        27.3719 
 385   0.0000       1.009527        27.4706 
 386   0.0000       1.011726        27.5305 
 387   0.0000       1.022688        27.8288 
 388   0.0000       1.029085        28.0028 
 389   0.0000       1.032052        28.0836 
 390   0.0000       1.033984        28.1361 
 391   0.0000       1.038046        28.2467 
 392   0.0000       1.039361        28.2825 
 393   0.0000       1.045575        28.4516 
 394   0.0000       1.052223        28.6325 
 395   0.0000       1.059987        28.8437 
 396   0.0000       1.065707        28.9994 
 397   0.0000       1.069609        29.1055 
 398   0.0000       1.073020        29.1984 
 399   0.0000       1.076739        29.2996 
 400   0.0000       1.089053        29.6347 
 401   0.0000       1.091635        29.7049 
 402   0.0000       1.104667        30.0595 
 403   0.0000       1.111329        30.2408 
 404   0.0000       1.119110        30.4525 
 405   0.0000       1.126245        30.6467 
 406   0.0000       1.127846        30.6903 
 407   0.0000       1.137584        30.9552 
 408   0.0000       1.139130        30.9973 
 409   0.0000       1.143742        31.1228 
[...]
   113a -> 120a  :     0.016609 
   114a -> 119a  :     0.053442 
   114a -> 120a  :     0.018114 
   115a -> 119a  :     0.020571 
   115a -> 121a  :     0.010634 
   116a -> 120a  :     0.013903 
   117a -> 123a  :     0.015954 

STATE 16:  E=   0.183542 au      4.994 eV    40282.9 cm**-1 <S**2> =   0.000000
   111a -> 118a  :     0.184583 
   115a -> 119a  :     0.017142 
   115a -> 120a  :     0.020045 
   115a -> 121a  :     0.012468 
   116a -> 119a  :     0.237249 
   116a -> 120a  :     0.124970 
   116a -> 121a  :     0.192420 
   116a -> 122a  :     0.050201 
   117a -> 123a  :     0.051336 
   117a -> 127a  :     0.017981 

STATE 17:  E=   0.193373 au      5.262 eV    42440.5 cm**-1 <S**2> =   0.000000
   109a -> 119a  :     0.018418 
   113a -> 119a  :     0.221329 
   114a -> 119a  :     0.047252 
   114a -> 120a  :     0.038533 
   114a -> 121a  :     0.013325 
   115a -> 119a  :     0.502864 
   115a -> 121a  :     0.017215 
   116a -> 119a  :     0.036879 
   116a -> 122a  :     0.014710 

STATE 18:  E=   0.188122 au      5.119 eV    41288.0 cm**-1 <S**2> =   0.000000
   111a -> 118a  :     0.544810 
   115a -> 120a  :     0.018351 
   115a -> 121a  :     0.017991 
   116a -> 120a  :     0.170510 
   116a -> 121a  :     0.058427 
   116a -> 122a  :     0.022932 
   116a -> 123a  :     0.010545 
   117a -> 123a  :     0.073183 

STATE 19:  E=   0.203961 au      5.550 eV    44764.3 cm**-1 <S**2> =   0.000000
   111a -> 118a  :     0.100547 
   112a -> 123a  :     0.045222 
   113a -> 119a  :     0.013044 
   115a -> 119a  :     0.024048 
   115a -> 120a  :     0.208591 
   115a -> 121a  :     0.061136 
   115a -> 122a  :     0.013631 
   116a -> 120a  :     0.013416 
   116a -> 121a  :     0.050208 
   116a -> 122a  :     0.213269 
   116a -> 123a  :     0.031446 
   117a -> 127a  :     0.078437 
   117a -> 133a  :     0.012290 
   117a -> 134a  :     0.018160 

STATE 20:  E=   0.211387 au      5.752 eV    46394.1 cm**-1 <S**2> =   0.000000
   101a -> 118a  :     0.012071 
   103a -> 118a  :     0.092834 
   105a -> 118a  :     0.084091 
   106a -> 118a  :     0.014222 
   108a -> 118a  :     0.196047 
   110a -> 118a  :     0.017185 
   110a -> 119a  :     0.013273 
   111a -> 118a  :     0.016986 
   113a -> 119a  :     0.012592 
   113a -> 120a  :     0.055817 
   113a -> 121a  :     0.016218 
   114a -> 119a  :     0.048909 
   114a -> 120a  :     0.044156 
   114a -> 121a  :     0.010249 
   115a -> 120a  :     0.117605 
   116a -> 120a  :     0.068720 
   116a -> 121a  :     0.053075 
   116a -> 123a  :     0.017473 

STATE 21:  E=   0.208330 au      5.669 eV    45723.2 cm**-1 <S**2> =   0.000000
   103a -> 118a  :     0.082552 
   105a -> 118a  :     0.075700 
   106a -> 118a  :     0.015377 
   108a -> 118a  :     0.179115 
   109a -> 118a  :     0.028580 
   110a -> 118a  :     0.027736 
   113a -> 120a  :     0.072380 
   113a -> 121a  :     0.022743 
   114a -> 119a  :     0.044915 
   115a -> 120a  :     0.096603 
   116a -> 120a  :     0.100973 
   116a -> 121a  :     0.055635 
   116a -> 123a  :     0.047203 

STATE 22:  E=   0.223799 au      6.090 eV    49118.3 cm**-1 <S**2> =   0.000000
   103a -> 118a  :     0.011897 
   105a -> 118a  :     0.011346 
   108a -> 118a  :     0.035600 
   112a -> 122a  :     0.013587 
   113a -> 119a  :     0.090235 
   114a -> 120a  :     0.325701 
   114a -> 121a  :     0.036533 
   114a -> 123a  :     0.019932 
   115a -> 119a  :     0.010382 
   115a -> 120a  :     0.065501 
   115a -> 121a  :     0.129124 
   115a -> 123a  :     0.011889 
   116a -> 122a  :     0.018760 
   116a -> 123a  :     0.085749 
   117a -> 127a  :     0.011594 

STATE 23:  E=   0.224521 au      6.110 eV    49276.6 cm**-1 <S**2> =   0.000000
   113a -> 120a  :     0.014836 
   115a -> 121a  :     0.019842 
   116a -> 122a  :     0.033605 
   116a -> 125a  :     0.036272 
   117a -> 124a  :     0.698745 
   117a -> 128a  :     0.019694 
   117a -> 132a  :     0.027768 

STATE 24:  E=   0.213653 au      5.814 eV    46891.5 cm**-1 <S**2> =   0.000000
   111a -> 118a  :     0.011492 
   111a -> 123a  :     0.011092 
   112a -> 119a  :     0.043298 
   113a -> 120a  :     0.120869 
   114a -> 119a  :     0.026149 
   115a -> 120a  :     0.049771 
   115a -> 121a  :     0.246184 
   115a -> 122a  :     0.032668 
   116a -> 120a  :     0.054733 
   116a -> 122a  :     0.174838 
   117a -> 124a  :     0.082596 
   117a -> 127a  :     0.014785 

STATE 25:  E=   0.217258 au      5.912 eV    47682.7 cm**-1 <S**2> =   0.000000
   109a -> 118a  :     0.101542 
   112a -> 122a  :     0.020901 
   113a -> 119a  :     0.062066 
   113a -> 120a  :     0.070287 
   113a -> 121a  :     0.013229 
   114a -> 119a  :     0.042755 
   114a -> 120a  :     0.116730 
   114a -> 121a  :     0.018340 
   115a -> 120a  :     0.035702 
   115a -> 121a  :     0.016548 
   115a -> 122a  :     0.016259 
   115a -> 123a  :     0.024023 
   116a -> 120a  :     0.031961 
   116a -> 121a  :     0.062074 
   116a -> 122a  :     0.108110 
   116a -> 123a  :     0.114246 
   117a -> 122a  :     0.024596 

STATE 26:  E=   0.231979 au      6.312 eV    50913.6 cm**-1 <S**2> =   0.000000
   109a -> 118a  :     0.010470 
   115a -> 124a  :     0.015160 
   116a -> 124a  :     0.104646 
   116a -> 125a  :     0.010361 
   117a -> 125a  :     0.721135 
   117a -> 136a  :     0.016802 

STATE 27:  E=   0.218836 au      5.955 eV    48028.9 cm**-1 <S**2> =   0.000000
   107a -> 118a  :     0.038366 
   109a -> 118a  :     0.511655 
   111a -> 122a  :     0.018403 
   112a -> 119a  :     0.046707 
   112a -> 121a  :     0.011105 
   113a -> 120a  :     0.052251 
   113a -> 121a  :     0.011452 
   114a -> 119a  :     0.017977 
   115a -> 120a  :     0.013026 
   115a -> 123a  :     0.036845 
   116a -> 121a  :     0.014574 
   116a -> 122a  :     0.050066 
   116a -> 123a  :     0.029570 
   117a -> 125a  :     0.015154 

STATE 28:  E=   0.188201 au      5.121 eV    41305.3 cm**-1 <S**2> =   0.000000
   108a -> 118a  :     0.030084 
   110a -> 118a  :     0.857121 
   110a -> 119a  :     0.022530 
   112a -> 119a  :     0.018988 

STATE 29:  E=   0.219000 au      5.959 eV    48064.9 cm**-1 <S**2> =   0.000000
   109a -> 118a  :     0.022351 
   110a -> 118a  :     0.028173 
   112a -> 119a  :     0.562570 
   113a -> 120a  :     0.085305 
   113a -> 121a  :     0.016507 
   114a -> 120a  :     0.013274 
   115a -> 122a  :     0.061602 
   115a -> 123a  :     0.013851 
   116a -> 122a  :     0.040552 
   117a -> 123a  :     0.018313 
   117a -> 127a  :     0.032854 

STATE 30:  E=   0.215045 au      5.852 eV    47196.9 cm**-1 <S**2> =   0.000000
   109a -> 118a  :     0.031907 
   112a -> 120a  :     0.035650 
   113a -> 119a  :     0.010737 
   114a -> 120a  :     0.019827 
   114a -> 121a  :     0.014733 
   115a -> 121a  :     0.018407 
   115a -> 123a  :     0.065625 
   116a -> 120a  :     0.203156 
   116a -> 121a  :     0.157274 
   116a -> 122a  :     0.027422 
   116a -> 123a  :     0.267282 
   117a -> 126a  :     0.023627 


-------------------------
TD-DFT-EXCITATION SPECTRA
-------------------------

Center of mass = ( -0.1247, -0.0222, -0.2555)
Calculating the Dipole integrals                  ... done
Transforming integrals                            ... done
Calculating the Linear Momentum integrals         ... done
Transforming integrals                            ... done
Calculating angular momentum integrals            ... done
Transforming integrals                            ... done

-----------------------------------------------------------------------------
         ABSORPTION SPECTRUM VIA TRANSITION ELECTRIC DIPOLE MOMENTS
-----------------------------------------------------------------------------
State   Energy    Wavelength  fosc         T2        TX        TY        TZ  
        (cm-1)      (nm)                 (au**2)    (au)      (au)      (au) 
-----------------------------------------------------------------------------
   1   19075.2    524.2   1.045263068  18.03982  -4.21458   0.41935   0.31822
   2   24577.6    406.9   0.013827138   0.18521   0.07547   0.41904  -0.06260
   3   30099.2    332.2   0.314699250   3.44205   0.27633   1.82213  -0.21334
   4   30125.5    331.9   0.064975939   0.71006   0.46197   0.68228  -0.17646
   5   34119.3    293.1   0.026155088   0.25237   0.21145   0.45569  -0.00034
   6   33652.1    297.2   0.015401097   0.15067   0.04209   0.38487  -0.02769
   7   35320.3    283.1   0.015103860   0.14078   0.06022   0.05933  -0.36556
   8   34918.1    286.4   0.285420066   2.69097   0.04639  -1.62832   0.19341
   9   36949.1    270.6   0.028482064   0.25377  -0.08959   0.49459   0.03356
  10   38477.0    259.9   0.008297170   0.07099   0.05555   0.12472   0.22880
  11   37812.7    264.5   0.014578029   0.12692   0.24793   0.24300  -0.08002
  12   42113.4    237.5   0.143480059   1.12162  -0.55923   0.32583  -0.83829
  13   38259.7    261.4   0.093441904   0.80404  -0.86202  -0.00346   0.24687
  14   38668.4    258.6   0.341504173   2.90747   1.59744  -0.59420  -0.05072
  15   43275.6    231.1   0.088066841   0.66995  -0.72425   0.24966  -0.28824
  16   40282.9    248.2   0.405599191   3.31476  -1.77959  -0.31835   0.21558
  17   42440.5    235.6   0.018356947   0.14240  -0.29535   0.19622   0.12906
  18   41288.0    242.2   0.235330993   1.87642  -1.32656  -0.21809   0.26287
  19   44764.3    223.4   0.056028469   0.41205  -0.61329  -0.15232  -0.11279
  20   46394.1    215.5   0.294740766   2.09148  -0.66485   0.86757  -0.94698
  21   45723.2    218.7   0.307794976   2.21616  -0.47078   1.30792  -0.53279
  22   49118.3    203.6   0.409310093   2.74337   0.50823   1.21078   1.00949
  23   49276.6    202.9   0.008385285   0.05602  -0.13400  -0.19134   0.03813
  24   46891.5    213.3   0.183942705   1.29141  -0.49883  -0.97772   0.29436
  25   47682.7    209.7   0.051546345   0.35589  -0.46526  -0.22485  -0.29810
  26   50913.6    196.4   0.048871814   0.31601  -0.21841   0.00073   0.51798
  27   48028.9    208.2   0.020189673   0.13839  -0.16410   0.31361  -0.11451
  28   41305.3    242.1   0.000440610   0.00351   0.02905   0.00949  -0.05077
  29   48064.9    208.1   0.056186155   0.38484   0.23435   0.26271  -0.51078
  30   47196.9    211.9   0.057356895   0.40008   0.08966   0.54346  -0.31096

-----------------------------------------------------------------------------
         ABSORPTION SPECTRUM VIA TRANSITION VELOCITY DIPOLE MOMENTS
-----------------------------------------------------------------------------
State   Energy    Wavelength   fosc        P2         PX        PY        PZ  
        (cm-1)      (nm)                 (au**2)     (au)      (au)      (au) 
-----------------------------------------------------------------------------
   1   19075.2    524.2   1.532843678   0.19984   0.44359  -0.04411  -0.03350
   2   24577.6    406.9   0.020578969   0.00346  -0.01033  -0.05725   0.00855
   3   30099.2    332.2   0.424032799   0.08723  -0.04402  -0.29005   0.03405
   4   30125.5    331.9   0.094992264   0.01956  -0.07650  -0.11332   0.02941
   5   34119.3    293.1   0.033454263   0.00780  -0.03763  -0.07991   0.00017
   6   33652.1    297.2   0.020914250   0.00481  -0.00714  -0.06881   0.00495
   7   35320.3    283.1   0.019401746   0.00468  -0.01009  -0.01120   0.06676
   8   34918.1    286.4   0.387226410   0.09241  -0.00871   0.30175  -0.03579
   9   36949.1    270.6   0.038760208   0.00979   0.01622  -0.09735  -0.00696
  10   38477.0    259.9   0.010598488   0.00279  -0.01104  -0.02494  -0.04520
  11   37812.7    264.5   0.019532859   0.00505  -0.04919  -0.04871   0.01599
  12   42113.4    237.5   0.161200421   0.04640   0.11419  -0.06783   0.16958
  13   38259.7    261.4   0.132763815   0.03472   0.17900   0.00181  -0.05170
  14   38668.4    258.6   0.507469077   0.13411  -0.34293   0.12807   0.01064
  15   43275.6    231.1   0.103675654   0.03066   0.15461  -0.05226   0.06346
  16   40282.9    248.2   0.573687068   0.15794   0.38840   0.06959  -0.04737
  17   42440.5    235.6   0.025411220   0.00737   0.06735  -0.04441  -0.02936
  18   41288.0    242.2   0.350989111   0.09904   0.30482   0.04985  -0.06033
  19   44764.3    223.4   0.074564455   0.02281   0.14454   0.03519   0.02615
  20   46394.1    215.5   0.371515380   0.11780   0.15742  -0.20588   0.22502
  21   45723.2    218.7   0.403584484   0.12612   0.11146  -0.31218   0.12742
  22   49118.3    203.6   0.483484984   0.16231  -0.12391  -0.29432  -0.24561
  23   49276.6    202.9   0.009796371   0.00330   0.03195   0.04656  -0.01050
  24   46891.5    213.3   0.241445925   0.07738   0.12117   0.23977  -0.07217
  25   47682.7    209.7   0.066923699   0.02181   0.11487   0.05766   0.07273
  26   50913.6    196.4   0.051203427   0.01782   0.05406   0.00130  -0.12204
  27   48028.9    208.2   0.027208696   0.00893   0.04094  -0.07948   0.03062
  28   41305.3    242.1   0.000768881   0.00022  -0.00763  -0.00226   0.01240
  29   48064.9    208.1   0.077177968   0.02535  -0.06028  -0.06762   0.13095
  30   47196.9    211.9   0.081184036   0.02619  -0.02307  -0.13815   0.08105

-------------------------------------------------------------------
                             CD SPECTRUM
-------------------------------------------------------------------
State  Energy     Wavelength     R         MX        MY        MZ   
       (cm-1)       (nm)     (1e40*cgs)   (au)      (au)      (au)  
-------------------------------------------------------------------
   1   19075.2    524.2     20.20138   0.04442   0.18987   0.47277
   2   24577.6    406.9      2.54156   0.02499   0.00625  -0.01415
   3   30099.2    332.2     40.72237   0.13214   0.01152  -0.13538
   4   30125.5    331.9      9.50993   0.02238  -0.03279  -0.18248
   5   34119.3    293.1     26.41926   0.12460   0.06558   0.56901
   6   33652.1    297.2      8.00592   0.07279   0.03518  -0.01372
   7   35320.3    283.1    -44.99747  -0.21830   0.02548   0.22926
   8   34918.1    286.4     21.10099  -0.07069  -0.01200   0.14734
   9   36949.1    270.6    -10.13264   0.18542  -0.00652  -0.04942
  10   38477.0    259.9    -10.01860   0.29208  -0.03997  -0.14200
  11   37812.7    264.5     -2.86313  -0.00554  -0.01212   0.02194
  12   42113.4    237.5    -17.95219  -0.43381   0.14938   0.39288
  13   38259.7    261.4    -85.83829   0.14110  -0.02636  -0.24519
  14   38668.4    258.6      9.49136  -0.03859  -0.13472  -0.03405
  15   43275.6    231.1    158.29834  -0.45185  -0.04268  -0.06652
  16   40282.9    248.2     -6.85372  -0.03210   0.08098  -0.21281
  17   42440.5    235.6      4.61110   0.06477   0.02378   0.18784
  18   41288.0    242.2    -123.04309   0.12861   0.03944  -0.31110
  19   44764.3    223.4    -14.25376  -0.09794   0.14295   0.60753
  20   46394.1    215.5    192.04589  -0.83076   0.17645   0.31475
  21   45723.2    218.7     87.04105  -0.16906   0.08475   0.01091
  22   49118.3    203.6    -217.76345   1.26289  -0.23853  -0.80727
  23   49276.6    202.9    -27.05304   0.04724   0.25242  -0.07225
  24   46891.5    213.3     -0.28593  -0.01964  -0.07360  -0.27981
  25   47682.7    209.7     35.62664  -0.40446   0.13467   0.27617
  26   50913.6    196.4    -102.81236  -0.12115   0.01870  -0.47212
  27   48028.9    208.2      3.23716  -0.09293  -0.03262  -0.01612
  28   41305.3    242.1      0.51154  -0.10703  -0.02949  -0.08814
  29   48064.9    208.1     62.53799  -0.39099  -0.04797  -0.46376
  30   47196.9    211.9      6.56841  -0.27335   0.03749  -0.05811

Total run time:     8491.980 sec

           *** ORCA-CIS/TD-DFT FINISHED WITHOUT ERROR ***

Maximum memory used throughout the entire CIS-calculation: 6625.3 MB

-----------------------
CIS/TD-DFT TOTAL ENERGY
-----------------------

    E(SCF)  =  -1418.227266686 Eh
    DE(CIS) =      0.086912996 Eh (Root  1)
    ----------------------------- ---------
    E(tot)  =  -1418.140353690 Eh



-------------------------------------------------------------------------------
                          DFT DISPERSION CORRECTION                            
                                                                               
                              DFTD3 V3.1  Rev 1                                
                          USING Becke-Johnson damping                          
-------------------------------------------------------------------------------
The B2PLYP functional is recognized
Active option DFTDOPT                   ...         4   

molecular C6(AA) [au] = 42417.103282 


            DFT-D V3
 parameters
 s6 scaling factor         :     0.6400 
 a1 scaling factor         :     0.3065 
 s8 scaling factor         :     0.9147 
 a2 scaling factor         :     5.0570 
 ad hoc parameters k1-k3   :    16.0000     1.3333    -4.0000 

 Edisp/kcal,au: -43.681557097233  -0.069610984763 
 E6   /kcal   : -24.962620364 
 E8   /kcal   : -18.718936734 
 % E8         :  42.853181017 

-------------------------   ----------------
Dispersion correction           -0.069610985
-------------------------   ----------------


-------------------------   --------------------
FINAL SINGLE POINT ENERGY     -1418.209964675156
-------------------------   --------------------


                            ***************************************
                            *     ORCA property calculations      *
                            ***************************************


  WARNING: The energy has been calculated at the MP2 level but the densities
           used in the property calculations are still SCF densities
           MP2 response densities have not been calculated 
           use %mp2 Density relaxed end
           or  %mp2 Density unrelaxed end

                                    ---------------------
                                    Active property flags
                                    ---------------------
   (+) Dipole Moment


------------------------------------------------------------------------------
                       ORCA ELECTRIC PROPERTIES CALCULATION
------------------------------------------------------------------------------

Dipole Moment Calculation                       ... on
Quadrupole Moment Calculation                   ... off
Polarizability Calculation                      ... off
GBWName                                         ... Rh_B_M06L_def2TZVP_coords.gbw
Electron density                                ... Rh_B_M06L_def2TZVP_coords.scfp
The origin for moment calculation is the CENTER OF MASS  = (-0.124706, -0.022221 -0.255464)

-------------
DIPOLE MOMENT
-------------
                                X             Y             Z
Electronic contribution:      4.33143      26.76526       0.89712
Nuclear contribution   :     -5.50816     -28.80400      -1.77419
                        -----------------------------------------
Total Dipole Moment    :     -1.17674      -2.03874      -0.87707
                        -----------------------------------------
Magnitude (a.u.)       :      2.51205
Magnitude (Debye)      :      6.38513



--------------------
Rotational spectrum 
--------------------
 
Rotational constants in cm-1:     0.004956     0.002893     0.002031 
Rotational constants in MHz :   148.564582    86.741091    60.886448 

 Dipole components along the rotational axes: 
x,y,z [a.u.] :    -1.100075     2.027205    -0.995329 
x,y,z [Debye]:    -2.796167     5.152745    -2.529925 

 

Timings for individual modules:

Sum of individual times         ...     9300.307 sec (= 155.005 min)
GTO integral calculation        ...        1.937 sec (=   0.032 min)   0.0 %
SCF iterations                  ...      378.579 sec (=   6.310 min)   4.1 %
MP2 module                      ...      427.255 sec (=   7.121 min)   4.6 %
CIS module                      ...     8492.535 sec (= 141.542 min)  91.3 %
                             ****ORCA TERMINATED NORMALLY****
TOTAL RUN TIME: 0 days 2 hours 35 minutes 3 seconds 55 msec
