
                                 *****************
                                 * O   R   C   A *
                                 *****************

                                            #,                                       
                                            ###                                      
                                            ####                                     
                                            #####                                    
                                            ######                                   
                                           ########,                                 
                                     ,,################,,,,,                         
                               ,,#################################,,                 
                          ,,##########################################,,             
                       ,#########################################, ''#####,          
                    ,#############################################,,   '####,        
                  ,##################################################,,,,####,       
                ,###########''''           ''''###############################       
              ,#####''   ,,,,##########,,,,          '''####'''          '####       
            ,##' ,,,,###########################,,,                        '##       
           ' ,,###''''                  '''############,,,                           
         ,,##''                                '''############,,,,        ,,,,,,###''
      ,#''                                            '''#######################'''  
     '                                                          ''''####''''         
             ,#######,   #######,   ,#######,      ##                                
            ,#'     '#,  ##    ##  ,#'     '#,    #''#        ######   ,####,        
            ##       ##  ##   ,#'  ##            #'  '#       #        #'  '#        
            ##       ##  #######   ##           ,######,      #####,   #    #        
            '#,     ,#'  ##    ##  '#,     ,#' ,#      #,         ##   #,  ,#        
             '#######'   ##     ##  '#######'  #'      '#     #####' # '####'        



                  #######################################################
                  #                        -***-                        #
                  #          Department of theory and spectroscopy      #
                  #    Directorship and core code : Frank Neese         #
                  #        Max Planck Institute fuer Kohlenforschung    #
                  #                Kaiser Wilhelm Platz 1               #
                  #                 D-45470 Muelheim/Ruhr               #
                  #                      Germany                        #
                  #                                                     #
                  #                  All rights reserved                #
                  #                        -***-                        #
                  #######################################################


                         Program Version 5.0.2 -  RELEASE  -


 With contributions from (in alphabetic order):
   Daniel Aravena         : Magnetic Suceptibility
   Michael Atanasov       : Ab Initio Ligand Field Theory (pilot matlab implementation)
   Alexander A. Auer      : GIAO ZORA, VPT2 properties, NMR spectrum
   Ute Becker             : Parallelization
   Giovanni Bistoni       : ED, misc. LED, open-shell LED, HFLD
   Martin Brehm           : Molecular dynamics
   Dmytro Bykov           : SCF Hessian
   Vijay G. Chilkuri      : MRCI spin determinant printing, contributions to CSF-ICE
   Dipayan Datta          : RHF DLPNO-CCSD density
   Achintya Kumar Dutta   : EOM-CC, STEOM-CC
   Dmitry Ganyushin       : Spin-Orbit,Spin-Spin,Magnetic field MRCI
   Miquel Garcia          : C-PCM and meta-GGA Hessian, CC/C-PCM, Gaussian charge scheme
   Yang Guo               : DLPNO-NEVPT2, F12-NEVPT2, CIM, IAO-localization
   Andreas Hansen         : Spin unrestricted coupled pair/coupled cluster methods
   Benjamin Helmich-Paris : MC-RPA, TRAH-SCF, COSX integrals
   Lee Huntington         : MR-EOM, pCC
   Robert Izsak           : Overlap fitted RIJCOSX, COSX-SCS-MP3, EOM
   Marcus Kettner         : VPT2
   Christian Kollmar      : KDIIS, OOCD, Brueckner-CCSD(T), CCSD density, CASPT2, CASPT2-K
   Simone Kossmann        : Meta GGA functionals, TD-DFT gradient, OOMP2, MP2 Hessian
   Martin Krupicka        : Initial AUTO-CI
   Lucas Lang             : DCDCAS
   Marvin Lechner         : AUTO-CI (C++ implementation), FIC-MRCC
   Dagmar Lenk            : GEPOL surface, SMD
   Dimitrios Liakos       : Extrapolation schemes; Compound Job, initial MDCI parallelization
   Dimitrios Manganas     : Further ROCIS development; embedding schemes
   Dimitrios Pantazis     : SARC Basis sets
   Anastasios Papadopoulos: AUTO-CI, single reference methods and gradients
   Taras Petrenko         : DFT Hessian,TD-DFT gradient, ASA, ECA, R-Raman, ABS, FL, XAS/XES, NRVS
   Peter Pinski           : DLPNO-MP2, DLPNO-MP2 Gradient
   Christoph Reimann      : Effective Core Potentials
   Marius Retegan         : Local ZFS, SOC
   Christoph Riplinger    : Optimizer, TS searches, QM/MM, DLPNO-CCSD(T), (RO)-DLPNO pert. Triples
   Tobias Risthaus        : Range-separated hybrids, TD-DFT gradient, RPA, STAB
   Michael Roemelt        : Original ROCIS implementation
   Masaaki Saitow         : Open-shell DLPNO-CCSD energy and density
   Barbara Sandhoefer     : DKH picture change effects
   Avijit Sen             : IP-ROCIS
   Kantharuban Sivalingam : CASSCF convergence, NEVPT2, FIC-MRCI
   Bernardo de Souza      : ESD, SOC TD-DFT
   Georgi Stoychev        : AutoAux, RI-MP2 NMR, DLPNO-MP2 response
   Willem Van den Heuvel  : Paramagnetic NMR
   Boris Wezisla          : Elementary symmetry handling
   Frank Wennmohs         : Technical directorship


 We gratefully acknowledge several colleagues who have allowed us to
 interface, adapt or use parts of their codes:
   Stefan Grimme, W. Hujo, H. Kruse, P. Pracht,  : VdW corrections, initial TS optimization,
                  C. Bannwarth, S. Ehlert          DFT functionals, gCP, sTDA/sTD-DF
   Ed Valeev, F. Pavosevic, A. Kumar             : LibInt (2-el integral package), F12 methods
   Garnet Chan, S. Sharma, J. Yang, R. Olivares  : DMRG
   Ulf Ekstrom                                   : XCFun DFT Library
   Mihaly Kallay                                 : mrcc  (arbitrary order and MRCC methods)
   Jiri Pittner, Ondrej Demel                    : Mk-CCSD
   Frank Weinhold                                : gennbo (NPA and NBO analysis)
   Christopher J. Cramer and Donald G. Truhlar   : smd solvation model
   Lars Goerigk                                  : TD-DFT with DH, B97 family of functionals
   V. Asgeirsson, H. Jonsson                     : NEB implementation
   FAccTs GmbH                                   : IRC, NEB, NEB-TS, DLPNO-Multilevel, CI-OPT
                                                   MM, QMMM, 2- and 3-layer-ONIOM, Crystal-QMMM,
                                                   LR-CPCM, SF, NACMEs, symmetry and pop. for TD-DFT,
                                                   nearIR, NL-DFT gradient (VV10), updates on ESD,
                                                   ML-optimized integration grids
   S Lehtola, MJT Oliveira, MAL Marques          : LibXC Library
   Liviu Ungur et al                             : ANISO software


 Your calculation uses the libint2 library for the computation of 2-el integrals
 For citations please refer to: http://libint.valeyev.net

 Your ORCA version has been built with support for libXC version: 5.1.0
 For citations please refer to: https://tddft.org/programs/libxc/

 This ORCA versions uses:
   CBLAS   interface :  Fast vector & matrix operations
   LAPACKE interface :  Fast linear algebra routines
   SCALAPACK package :  Parallel linear algebra routines
   Shared memory     :  Shared parallel matrices
   BLAS/LAPACK       :  OpenBLAS 0.3.15  USE64BITINT DYNAMIC_ARCH NO_AFFINITY Zen SINGLE_THREADED
        Core in use  :  Zen
   Copyright (c) 2011-2014, The OpenBLAS Project


Your calculation utilizes the SMD solvation module
Please cite in your paper:
A.V. Marenich, C.J. Cramer, D.G. Truhlar J. Phys. Chem. B, 113, (2009), 6378 

================================================================================

----- Orbital basis set information -----
Your calculation utilizes the basis: def2-TZVP
   F. Weigend and R. Ahlrichs, Phys. Chem. Chem. Phys. 7, 3297 (2005).

----- AuxJ basis set information -----
Your calculation utilizes the auxiliary basis: def2/J
   F. Weigend, Phys. Chem. Chem. Phys. 8, 1057 (2006).

----- AuxC basis set information -----
Your calculation utilizes the auxiliary basis: def2-TZVP/C
  H-La, Hf-Rn : A. Hellweg, C. Hattig, S. Hofener and W. Klopper, Theor. Chem. Acc. 117, 587 (2007).
        Ce-Lu : J. Chmela and M. E. Harding, Mol. Phys. (2018).

================================================================================
                                        WARNINGS
                       Please study these warnings very carefully!
================================================================================

INFO   : Checking CIS options ...
  ===> : (D) CORRECTION FOUND - SETTING MODE=3
  ===> : JK MODE FOUND - ACTIVATING RI-MP2 CODE
  ===> : MP2 AND CIS FOUND - CHECKING
WARNING: CIS(D) and MP2 runs must have the same orbital window
  ===> : adjusting orbital windows

WARNING: No MP2 level density has been requested!
         To caclulate MP2 level properties use
         %mp2 Density relaxed end
         or
         %mp2 Density unrelaxed end
         Otherwise for double-hybrid DFT only the energy is correct!

WARNING: The frozen-core approximation is turned on by default for 
         the MP2 part of double-hybrid DFT.

WARNING:  You are using a Range-Separated Double Hybrid functional with Doubles Correction 
          Changing Mode to RPA_AOINTS 


WARNING: CIS/ROCIS methods need fully converged wavefunctions
  ===> : Setting SCFConvForced true
         You can overwrite this default with %scf ConvForced false 


INFO   : the flag for use of the SHARK integral package has been found!

================================================================================
                                       INPUT FILE
================================================================================
NAME = Rh_B_M06L_def2TZVP_coords.inp
|  1> %maxcore 19200
|  2> %pal
|  3>  nprocs= 8
|  4> end
|  5> ! RI-wB2PLYP def2-TZVP def2/J def2-TZVP/C RIJCOSX CPCM TightSCF
|  6> %TDDFT DCORR 1
|  7>    NROOTS   30
|  8>   TDA      FALSE
|  9> END 
| 10>  
| 11>  %CPCM 
| 12>    SMD          TRUE 
| 13>    SMDsolvent   "ETHANOL"
| 14>  END 
| 15>  
| 16> 
| 17> * xyz 1 1
| 18> C                  -3.84267000   -0.92047200    0.05894500
| 19> C                  -2.63140600   -1.64154100    0.02698200
| 20> C                  -1.44451500   -0.98320300   -0.16527300
| 21> C                  -1.35747000    0.41898600   -0.34874900
| 22> C                  -2.58344000    1.12590400   -0.30249800
| 23> C                  -3.77274200    0.49647600   -0.10979100
| 24> C                  -0.10153800    1.01377800   -0.52398600
| 25> C                   1.04141100    0.20174500   -0.51394500
| 26> C                   0.90082300   -1.19349000   -0.31440700
| 27> C                   1.96520000   -2.05709900   -0.27996900
| 28> H                   1.76164300   -3.10760500   -0.13995700
| 29> C                   3.27758200   -1.56937100   -0.44416300
| 30> C                   3.43762900   -0.16648200   -0.65863700
| 31> C                   2.36564200    0.66915700   -0.69356500
| 32> H                  -2.59955700   -2.70986000    0.17692700
| 33> H                  -2.56812100    2.20095000   -0.42639900
| 34> H                  -4.67721800    1.08529100   -0.09723800
| 35> H                   4.42535200    0.24835000   -0.78882700
| 36> H                   2.52930600    1.72568900   -0.86331100
| 37> O                  -0.32598700   -1.74921200   -0.15541900
| 38> C                   0.00981900    2.46809200   -0.77544500
| 39> C                  -0.44694900    2.94685700   -2.00238800
| 40> C                   0.60787100    3.37133300    0.11850100
| 41> C                  -0.31107700    4.28150800   -2.34586700
| 42> H                  -0.89891900    2.25214100   -2.69946600
| 43> C                   0.75239800    4.70851500   -0.24699800
| 44> C                   0.29374200    5.16693100   -1.46704100
| 45> H                  -0.67428000    4.62614800   -3.30558500
| 46> H                   1.21788400    5.38614300    0.45689800
| 47> H                   0.40406600    6.21073100   -1.72991600
| 48> N                  -5.02463500   -1.53894000    0.24539200
| 49> C                  -6.27907000   -0.80390300    0.39621600
| 50> H                  -6.09494400    0.11515600    0.95088300
| 51> H                  -6.92276200   -1.41377600    1.03077700
| 52> C                  -6.95690100   -0.52106400   -0.92532000
| 53> H                  -7.16734100   -1.44515000   -1.46396100
| 54> H                  -7.90276700   -0.00556200   -0.76303300
| 55> H                  -6.33610900    0.10664900   -1.56454100
| 56> C                   1.09695900    2.99900700    1.46614100
| 57> O                   0.45496900    1.95125100    1.99406900
| 58> O                   1.97054600    3.59992600    2.05443100
| 59> C                  -5.13158100   -2.99329900    0.32504900
| 60> H                  -6.12485000   -3.25533400   -0.04034500
| 61> H                  -4.42483600   -3.44287200   -0.37194400
| 62> C                  -4.92918100   -3.52146600    1.72790700
| 63> H                  -5.04218000   -4.60475800    1.74436800
| 64> H                  -3.93553000   -3.28036300    2.10522500
| 65> H                  -5.66160900   -3.09790100    2.41519400
| 66> C                   4.21334300   -3.81278200   -0.09371200
| 67> H                   3.42748000   -3.94672400    0.64904500
| 68> H                   5.14243500   -4.11559600    0.39029200
| 69> C                   5.70542000   -1.92199500   -0.65616200
| 70> H                   5.68810200   -1.16500500   -1.43905300
| 71> H                   6.25482300   -2.76810400   -1.06939200
| 72> C                   6.39023400   -1.40746700    0.58995800
| 73> H                   7.41129100   -1.10327000    0.36274800
| 74> H                   5.86659200   -0.54658500    1.00562500
| 75> H                   6.43395700   -2.17805400    1.35975400
| 76> C                   3.95721900   -4.65970100   -1.32035700
| 77> H                   4.76331500   -4.55172800   -2.04621000
| 78> H                   3.89253500   -5.71207400   -1.04661200
| 79> H                   3.02432800   -4.38115600   -1.81026300
| 80> N                   4.34439700   -2.39113500   -0.40265000
| 81> H                   0.83803600    1.77002800    2.86802500
| 82> *
| 83> 
| 84> 
| 85> 
| 86> 
| 87> 
| 88>                          ****END OF INPUT****
================================================================================

                       ****************************
                       * Single Point Calculation *
                       ****************************

---------------------------------
CARTESIAN COORDINATES (ANGSTROEM)
---------------------------------
  C     -3.842670   -0.920472    0.058945
  C     -2.631406   -1.641541    0.026982
  C     -1.444515   -0.983203   -0.165273
  C     -1.357470    0.418986   -0.348749
  C     -2.583440    1.125904   -0.302498
  C     -3.772742    0.496476   -0.109791
  C     -0.101538    1.013778   -0.523986
  C      1.041411    0.201745   -0.513945
  C      0.900823   -1.193490   -0.314407
  C      1.965200   -2.057099   -0.279969
  H      1.761643   -3.107605   -0.139957
  C      3.277582   -1.569371   -0.444163
  C      3.437629   -0.166482   -0.658637
  C      2.365642    0.669157   -0.693565
  H     -2.599557   -2.709860    0.176927
  H     -2.568121    2.200950   -0.426399
  H     -4.677218    1.085291   -0.097238
  H      4.425352    0.248350   -0.788827
  H      2.529306    1.725689   -0.863311
  O     -0.325987   -1.749212   -0.155419
  C      0.009819    2.468092   -0.775445
  C     -0.446949    2.946857   -2.002388
  C      0.607871    3.371333    0.118501
  C     -0.311077    4.281508   -2.345867
  H     -0.898919    2.252141   -2.699466
  C      0.752398    4.708515   -0.246998
  C      0.293742    5.166931   -1.467041
  H     -0.674280    4.626148   -3.305585
  H      1.217884    5.386143    0.456898
  H      0.404066    6.210731   -1.729916
  N     -5.024635   -1.538940    0.245392
  C     -6.279070   -0.803903    0.396216
  H     -6.094944    0.115156    0.950883
  H     -6.922762   -1.413776    1.030777
  C     -6.956901   -0.521064   -0.925320
  H     -7.167341   -1.445150   -1.463961
  H     -7.902767   -0.005562   -0.763033
  H     -6.336109    0.106649   -1.564541
  C      1.096959    2.999007    1.466141
  O      0.454969    1.951251    1.994069
  O      1.970546    3.599926    2.054431
  C     -5.131581   -2.993299    0.325049
  H     -6.124850   -3.255334   -0.040345
  H     -4.424836   -3.442872   -0.371944
  C     -4.929181   -3.521466    1.727907
  H     -5.042180   -4.604758    1.744368
  H     -3.935530   -3.280363    2.105225
  H     -5.661609   -3.097901    2.415194
  C      4.213343   -3.812782   -0.093712
  H      3.427480   -3.946724    0.649045
  H      5.142435   -4.115596    0.390292
  C      5.705420   -1.921995   -0.656162
  H      5.688102   -1.165005   -1.439053
  H      6.254823   -2.768104   -1.069392
  C      6.390234   -1.407467    0.589958
  H      7.411291   -1.103270    0.362748
  H      5.866592   -0.546585    1.005625
  H      6.433957   -2.178054    1.359754
  C      3.957219   -4.659701   -1.320357
  H      4.763315   -4.551728   -2.046210
  H      3.892535   -5.712074   -1.046612
  H      3.024328   -4.381156   -1.810263
  N      4.344397   -2.391135   -0.402650
  H      0.838036    1.770028    2.868025

----------------------------
CARTESIAN COORDINATES (A.U.)
----------------------------
  NO LB      ZA    FRAG     MASS         X           Y           Z
   0 C     6.0000    0    12.011   -7.261594   -1.739440    0.111390
   1 C     6.0000    0    12.011   -4.972637   -3.102063    0.050989
   2 C     6.0000    0    12.011   -2.729738   -1.857984   -0.312321
   3 C     6.0000    0    12.011   -2.565247    0.791769   -0.659040
   4 C     6.0000    0    12.011   -4.881994    2.127650   -0.571638
   5 C     6.0000    0    12.011   -7.129449    0.938204   -0.207475
   6 C     6.0000    0    12.011   -0.191879    1.915763   -0.990190
   7 C     6.0000    0    12.011    1.967982    0.381243   -0.971215
   8 C     6.0000    0    12.011    1.702309   -2.255369   -0.594143
   9 C     6.0000    0    12.011    3.713690   -3.887354   -0.529065
  10 H     1.0000    0     1.008    3.329023   -5.872522   -0.264480
  11 C     6.0000    0    12.011    6.193732   -2.965681   -0.839346
  12 C     6.0000    0    12.011    6.496177   -0.314605   -1.244644
  13 C     6.0000    0    12.011    4.470416    1.264523   -1.310648
  14 H     1.0000    0     1.008   -4.912451   -5.120893    0.334344
  15 H     1.0000    0     1.008   -4.853045    4.159193   -0.805777
  16 H     1.0000    0     1.008   -8.838661    2.050903   -0.183753
  17 H     1.0000    0     1.008    8.362703    0.469313   -1.490667
  18 H     1.0000    0     1.008    4.779696    3.261080   -1.631421
  19 O     8.0000    0    15.999   -0.616026   -3.305532   -0.293699
  20 C     6.0000    0    12.011    0.018555    4.664018   -1.465379
  21 C     6.0000    0    12.011   -0.844611    5.568753   -3.783965
  22 C     6.0000    0    12.011    1.148710    6.370896    0.223934
  23 C     6.0000    0    12.011   -0.587850    8.090878   -4.433046
  24 H     1.0000    0     1.008   -1.698711    4.255930   -5.101251
  25 C     6.0000    0    12.011    1.421826    8.897804   -0.466759
  26 C     6.0000    0    12.011    0.555092    9.764085   -2.772306
  27 H     1.0000    0     1.008   -1.274205    8.742153   -6.246650
  28 H     1.0000    0     1.008    2.301467   10.178335    0.863412
  29 H     1.0000    0     1.008    0.763574   11.736581   -3.269067
  30 N     7.0000    0    14.007   -9.495184   -2.908175    0.463724
  31 C     6.0000    0    12.011  -11.865723   -1.519157    0.748740
  32 H     1.0000    0     1.008  -11.517775    0.217613    1.796908
  33 H     1.0000    0     1.008  -13.082124   -2.671649    1.947886
  34 C     6.0000    0    12.011  -13.146638   -0.984668   -1.748601
  35 H     1.0000    0     1.008  -13.544312   -2.730938   -2.766485
  36 H     1.0000    0     1.008  -14.934065   -0.010511   -1.441923
  37 H     1.0000    0     1.008  -11.973511    0.201537   -2.956554
  38 C     6.0000    0    12.011    2.072952    5.667302    2.770605
  39 O     8.0000    0    15.999    0.859767    3.687330    3.768244
  40 O     8.0000    0    15.999    3.723792    6.802874    3.882312
  41 C     6.0000    0    12.011   -9.697283   -5.656515    0.614254
  42 H     1.0000    0     1.008  -11.574289   -6.151690   -0.076241
  43 H     1.0000    0     1.008   -8.361728   -6.506085   -0.702872
  44 C     6.0000    0    12.011   -9.314802   -6.654606    3.265271
  45 H     1.0000    0     1.008   -9.528339   -8.701732    3.296378
  46 H     1.0000    0     1.008   -7.437074   -6.198988    3.978299
  47 H     1.0000    0     1.008  -10.698890   -5.854184    4.564055
  48 C     6.0000    0    12.011    7.962064   -7.205114   -0.177090
  49 H     1.0000    0     1.008    6.476999   -7.458227    1.226517
  50 H     1.0000    0     1.008    9.717794   -7.777349    0.737545
  51 C     6.0000    0    12.011   10.781681   -3.632044   -1.239966
  52 H     1.0000    0     1.008   10.748955   -2.201540   -2.719416
  53 H     1.0000    0     1.008   11.819902   -5.230958   -2.020858
  54 C     6.0000    0    12.011   12.075792   -2.659727    1.114859
  55 H     1.0000    0     1.008   14.005310   -2.084878    0.685494
  56 H     1.0000    0     1.008   11.086252   -1.032896    1.900356
  57 H     1.0000    0     1.008   12.158417   -4.115926    2.569563
  58 C     6.0000    0    12.011    7.478060   -8.805559   -2.495113
  59 H     1.0000    0     1.008    9.001361   -8.601519   -3.866777
  60 H     1.0000    0     1.008    7.355825  -10.794256   -1.977810
  61 H     1.0000    0     1.008    5.715152   -8.279185   -3.420901
  62 N     7.0000    0    14.007    8.209721   -4.518590   -0.760898
  63 H     1.0000    0     1.008    1.583659    3.344868    5.419782

--------------------------------
INTERNAL COORDINATES (ANGSTROEM)
--------------------------------
 C      0   0   0     0.000000000000     0.00000000     0.00000000
 C      1   0   0     1.410008019064     0.00000000     0.00000000
 C      2   1   0     1.370795810159   120.09108215     0.00000000
 C      3   2   1     1.416818360384   123.13801617   359.53512012
 C      4   3   2     1.415935964168   115.89217575     0.94110644
 C      5   4   3     1.359321463907   122.07253040   359.24747064
 C      4   3   2     1.400660814779   119.44294315   179.28237687
 C      7   4   3     1.402080893305   118.95422740     0.03946050
 C      8   7   4     1.416425467299   119.37975505   359.38022794
 C      9   8   7     1.371096232529   123.15672522   180.52569319
 H     10   9   8     1.079167117934   118.03232479   181.05695899
 C     10   9   8     1.409675418507   120.12358123     0.15228229
 C     12  10   9     1.428184751776   117.49546205   359.30107531
 C     13  12  10     1.359657542058   121.27954174     0.46594666
 H      2   1   3     1.079260555930   121.89809555   178.32727850
 H      5   4   3     1.082270775582   118.68086967   179.33614176
 H      6   5   4     1.079322711987   118.83094548   180.83913328
 H     13  12  10     1.079181054806   119.88557379   179.98197007
 H     14  13  12     1.082524584680   118.99062475   180.28621080
 O      3   2   1     1.355718177270   116.23035743   178.71618107
 C      7   4   3     1.480088247614   120.39604792   177.35887591
 C     21   7   4     1.394002172272   117.53867422   290.81523187
 C     21   7   4     1.404510573011   123.76602437   114.21014090
 C     22  21   7     1.384822124183   121.14202512   183.62024656
 H     22  21   7     1.082970424176   118.87924137     2.54815138
 C     23  21   7     1.393747923354   119.61979725   175.40754349
 C     26  23  21     1.381671262363   121.02820260     1.21453095
 H     24  22  21     1.082474844203   119.59260554   179.96528937
 H     26  23  21     1.082278384426   118.34264382   180.12052028
 H     27  26  23     1.082031926794   120.04897636   179.29955258
 N      1   2   3     1.346961919305   121.47628019   179.96887911
 C     31   1   2     1.461723106327   122.44276699   174.64971770
 H     32  31   1     1.089140629233   109.37777695   323.90560034
 H     32  31   1     1.090390815127   106.58324568   209.74185910
 C     32  31   1     1.511922671230   112.86915796    88.38155944
 H     35  32  31     1.090116533164   111.09150629    58.32312431
 H     35  32  31     1.089376827516   110.33901184   177.93004233
 H     35  32  31     1.089958625120   111.40786714   297.91141800
 C     23  21   7     1.481204675803   123.91999317   354.68999759
 O     39  23  21     1.337404863465   113.42634588   333.06710743
 O     39  23  21     1.212577014144   123.69172666   154.79675310
 C     31   1   2     1.460459785631   121.94109035   355.35883374
 H     42  31   1     1.090301986984   106.72391760   208.95200745
 H     42  31   1     1.089680512537   109.17586474   323.22581346
 C     42  31   1     1.512592710565   112.86170716    87.48946971
 H     45  42  31     1.089293943702   110.32778072   178.57858681
 H     45  42  31     1.089881571334   111.45896885   298.58421593
 H     45  42  31     1.090055734712   111.04946872    59.00098208
 C     12  10   9     2.455882217746    91.26384766   177.17030934
 H     49  12  10     1.089591242247    86.25900538   322.54615010
 H     49  12  10     1.090489860144   129.91361989   214.59148892
 C     12  10   9     2.462454997684   151.44713899   183.62504021
 H     52  12  10     1.089152005509    86.94348737   138.27548660
 H     52  12  10     1.090184905963   129.83972755    29.97072666
 C     52  12  10     1.512125765861   109.07715303   249.75961955
 H     55  52  12     1.089365685231   110.34186003   207.15419557
 H     55  52  12     1.089998998613   111.43457337   327.14782833
 H     55  52  12     1.090092613916   111.07423588    87.55978982
 C     49  12  10     1.512458016595   109.34525760    73.73295169
 H     59  49  12     1.090097017496   111.05988636    88.51795146
 H     59  49  12     1.089315967022   110.31712781   208.07498578
 H     59  49  12     1.089899455795   111.49330900   328.07238757
 N     12  10   9     1.347261535519   121.50443223   179.36743513
 H     40  39  23     0.971278122967   108.18224386   179.57576254

---------------------------
INTERNAL COORDINATES (A.U.)
---------------------------
 C      0   0   0     0.000000000000     0.00000000     0.00000000
 C      1   0   0     2.664529002665     0.00000000     0.00000000
 C      2   1   0     2.590428666728   120.09108215     0.00000000
 C      3   2   1     2.677398682638   123.13801617   359.53512012
 C      4   3   2     2.675731195448   115.89217575     0.94110644
 C      5   4   3     2.568745294744   122.07253040   359.24747064
 C      4   3   2     2.646865346447   119.44294315   179.28237687
 C      7   4   3     2.649548905950   118.95422740     0.03946050
 C      8   7   4     2.676656222306   119.37975505   359.38022794
 C      9   8   7     2.590996382730   123.15672522   180.52569319
 H     10   9   8     2.039330305628   118.03232479   181.05695899
 C     10   9   8     2.663900478700   120.12358123     0.15228229
 C     12  10   9     2.698878049499   117.49546205   359.30107531
 C     13  12  10     2.569380390409   121.27954174     0.46594666
 H      2   1   3     2.039506877852   121.89809555   178.32727850
 H      5   4   3     2.045195368596   118.68086967   179.33614176
 H      6   5   4     2.039624335776   118.83094548   180.83913328
 H     13  12  10     2.039356642500   119.88557379   179.98197007
 H     14  13  12     2.045674998282   118.99062475   180.28621080
 O      3   2   1     2.561936069820   116.23035743   178.71618107
 C      7   4   3     2.796961442026   120.39604792   177.35887591
 C     21   7   4     2.634282335685   117.53867422   290.81523187
 C     21   7   4     2.654140335188   123.76602437   114.21014090
 C     22  21   7     2.616934558900   121.14202512   183.62024656
 H     22  21   7     2.046517512829   118.87924137     2.54815138
 C     23  21   7     2.633801874861   119.61979725   175.40754349
 C     26  23  21     2.610980292976   121.02820260     1.21453095
 H     24  22  21     2.045581002403   119.59260554   179.96528937
 H     26  23  21     2.045209747228   118.34264382   180.12052028
 H     27  26  23     2.044744009799   120.04897636   179.29955258
 N      1   2   3     2.545389140308   121.47628019   179.96887911
 C     31   1   2     2.762256354583   122.44276699   174.64971770
 H     32  31   1     2.058177510577   109.37777695   323.90560034
 H     32  31   1     2.060540019534   106.58324568   209.74185910
 C     32  31   1     2.857119784291   112.86915796    88.38155944
 H     35  32  31     2.060021701739   111.09150629    58.32312431
 H     35  32  31     2.058623860645   110.33901184   177.93004233
 H     35  32  31     2.059723298783   111.40786714   297.91141800
 C     23  21   7     2.799071185551   123.91999317   354.68999759
 O     39  23  21     2.527328922123   113.42634588   333.06710743
 O     39  23  21     2.291438473020   123.69172666   154.79675310
 C     31   1   2     2.759869024448   121.94109035   355.35883374
 H     42  31   1     2.060372158671   106.72391760   208.95200745
 H     42  31   1     2.059197742166   109.17586474   323.22581346
 C     42  31   1     2.858385975133   112.86170716    87.48946971
 H     45  42  31     2.058467232936   110.32778072   178.57858681
 H     45  42  31     2.059577688229   111.45896885   298.58421593
 H     45  42  31     2.059906809316   111.04946872    59.00098208
 C     12  10   9     4.640944808708    91.26384766   177.17030934
 H     49  12  10     2.059029045766    86.25900538   322.54615010
 H     49  12  10     2.060727187489   129.91361989   214.59148892
 C     12  10   9     4.653365562729   151.44713899   183.62504021
 H     52  12  10     2.058199008624    86.94348737   138.27548660
 H     52  12  10     2.060150907605   129.83972755    29.97072666
 C     52  12  10     2.857503577523   109.07715303   249.75961955
 H     55  52  12     2.058602804777   110.34186003   207.15419557
 H     55  52  12     2.059799593627   111.43457337   327.14782833
 H     55  52  12     2.059976500911   111.07423588    87.55978982
 C     49  12  10     2.858131440418   109.34525760    73.73295169
 H     59  49  12     2.059984822472   111.05988636    88.51795146
 H     59  49  12     2.058508850980   110.31712781   208.07498578
 H     59  49  12     2.059611484962   111.49330900   328.07238757
 N     12  10   9     2.545955332898   121.50443223   179.36743513
 H     40  39  23     1.835449652276   108.18224386   179.57576254

---------------------
BASIS SET INFORMATION
---------------------
There are 4 groups of distinct atoms

 Group   1 Type C   : 11s6p2d1f contracted to 5s3p2d1f pattern {62111/411/11/1}
 Group   2 Type H   : 5s1p contracted to 3s1p pattern {311/1}
 Group   3 Type O   : 11s6p2d1f contracted to 5s3p2d1f pattern {62111/411/11/1}
 Group   4 Type N   : 11s6p2d1f contracted to 5s3p2d1f pattern {62111/411/11/1}

Atom   0C    basis set group =>   1
Atom   1C    basis set group =>   1
Atom   2C    basis set group =>   1
Atom   3C    basis set group =>   1
Atom   4C    basis set group =>   1
Atom   5C    basis set group =>   1
Atom   6C    basis set group =>   1
Atom   7C    basis set group =>   1
Atom   8C    basis set group =>   1
Atom   9C    basis set group =>   1
Atom  10H    basis set group =>   2
Atom  11C    basis set group =>   1
Atom  12C    basis set group =>   1
Atom  13C    basis set group =>   1
Atom  14H    basis set group =>   2
Atom  15H    basis set group =>   2
Atom  16H    basis set group =>   2
Atom  17H    basis set group =>   2
Atom  18H    basis set group =>   2
Atom  19O    basis set group =>   3
Atom  20C    basis set group =>   1
Atom  21C    basis set group =>   1
Atom  22C    basis set group =>   1
Atom  23C    basis set group =>   1
Atom  24H    basis set group =>   2
Atom  25C    basis set group =>   1
Atom  26C    basis set group =>   1
Atom  27H    basis set group =>   2
Atom  28H    basis set group =>   2
Atom  29H    basis set group =>   2
Atom  30N    basis set group =>   4
Atom  31C    basis set group =>   1
Atom  32H    basis set group =>   2
Atom  33H    basis set group =>   2
Atom  34C    basis set group =>   1
Atom  35H    basis set group =>   2
Atom  36H    basis set group =>   2
Atom  37H    basis set group =>   2
Atom  38C    basis set group =>   1
Atom  39O    basis set group =>   3
Atom  40O    basis set group =>   3
Atom  41C    basis set group =>   1
Atom  42H    basis set group =>   2
Atom  43H    basis set group =>   2
Atom  44C    basis set group =>   1
Atom  45H    basis set group =>   2
Atom  46H    basis set group =>   2
Atom  47H    basis set group =>   2
Atom  48C    basis set group =>   1
Atom  49H    basis set group =>   2
Atom  50H    basis set group =>   2
Atom  51C    basis set group =>   1
Atom  52H    basis set group =>   2
Atom  53H    basis set group =>   2
Atom  54C    basis set group =>   1
Atom  55H    basis set group =>   2
Atom  56H    basis set group =>   2
Atom  57H    basis set group =>   2
Atom  58C    basis set group =>   1
Atom  59H    basis set group =>   2
Atom  60H    basis set group =>   2
Atom  61H    basis set group =>   2
Atom  62N    basis set group =>   4
Atom  63H    basis set group =>   2
---------------------------------
AUXILIARY/J BASIS SET INFORMATION
---------------------------------
There are 4 groups of distinct atoms

 Group   1 Type C   : 12s5p4d2f1g contracted to 6s4p3d1f1g pattern {711111/2111/211/2/1}
 Group   2 Type H   : 5s2p1d contracted to 3s1p1d pattern {311/2/1}
 Group   3 Type O   : 12s5p4d2f1g contracted to 6s4p3d1f1g pattern {711111/2111/211/2/1}
 Group   4 Type N   : 12s5p4d2f1g contracted to 6s4p3d1f1g pattern {711111/2111/211/2/1}

Atom   0C    basis set group =>   1
Atom   1C    basis set group =>   1
Atom   2C    basis set group =>   1
Atom   3C    basis set group =>   1
Atom   4C    basis set group =>   1
Atom   5C    basis set group =>   1
Atom   6C    basis set group =>   1
Atom   7C    basis set group =>   1
Atom   8C    basis set group =>   1
Atom   9C    basis set group =>   1
Atom  10H    basis set group =>   2
Atom  11C    basis set group =>   1
Atom  12C    basis set group =>   1
Atom  13C    basis set group =>   1
Atom  14H    basis set group =>   2
Atom  15H    basis set group =>   2
Atom  16H    basis set group =>   2
Atom  17H    basis set group =>   2
Atom  18H    basis set group =>   2
Atom  19O    basis set group =>   3
Atom  20C    basis set group =>   1
Atom  21C    basis set group =>   1
Atom  22C    basis set group =>   1
Atom  23C    basis set group =>   1
Atom  24H    basis set group =>   2
Atom  25C    basis set group =>   1
Atom  26C    basis set group =>   1
Atom  27H    basis set group =>   2
Atom  28H    basis set group =>   2
Atom  29H    basis set group =>   2
Atom  30N    basis set group =>   4
Atom  31C    basis set group =>   1
Atom  32H    basis set group =>   2
Atom  33H    basis set group =>   2
Atom  34C    basis set group =>   1
Atom  35H    basis set group =>   2
Atom  36H    basis set group =>   2
Atom  37H    basis set group =>   2
Atom  38C    basis set group =>   1
Atom  39O    basis set group =>   3
Atom  40O    basis set group =>   3
Atom  41C    basis set group =>   1
Atom  42H    basis set group =>   2
Atom  43H    basis set group =>   2
Atom  44C    basis set group =>   1
Atom  45H    basis set group =>   2
Atom  46H    basis set group =>   2
Atom  47H    basis set group =>   2
Atom  48C    basis set group =>   1
Atom  49H    basis set group =>   2
Atom  50H    basis set group =>   2
Atom  51C    basis set group =>   1
Atom  52H    basis set group =>   2
Atom  53H    basis set group =>   2
Atom  54C    basis set group =>   1
Atom  55H    basis set group =>   2
Atom  56H    basis set group =>   2
Atom  57H    basis set group =>   2
Atom  58C    basis set group =>   1
Atom  59H    basis set group =>   2
Atom  60H    basis set group =>   2
Atom  61H    basis set group =>   2
Atom  62N    basis set group =>   4
Atom  63H    basis set group =>   2
---------------------------------
AUXILIARY/C BASIS SET INFORMATION
---------------------------------
There are 4 groups of distinct atoms

 Group   1 Type C   : 8s6p5d3f1g contracted to 8s6p4d3f1g pattern {11111111/111111/2111/111/1}
 Group   2 Type H   : 4s3p2d contracted to 4s2p1d pattern {1111/21/2}
 Group   3 Type O   : 8s6p5d3f1g contracted to 8s6p4d3f1g pattern {11111111/111111/2111/111/1}
 Group   4 Type N   : 8s6p5d3f1g contracted to 8s6p4d3f1g pattern {11111111/111111/2111/111/1}

Atom   0C    basis set group =>   1
Atom   1C    basis set group =>   1
Atom   2C    basis set group =>   1
Atom   3C    basis set group =>   1
Atom   4C    basis set group =>   1
Atom   5C    basis set group =>   1
Atom   6C    basis set group =>   1
Atom   7C    basis set group =>   1
Atom   8C    basis set group =>   1
Atom   9C    basis set group =>   1
Atom  10H    basis set group =>   2
Atom  11C    basis set group =>   1
Atom  12C    basis set group =>   1
Atom  13C    basis set group =>   1
Atom  14H    basis set group =>   2
Atom  15H    basis set group =>   2
Atom  16H    basis set group =>   2
Atom  17H    basis set group =>   2
Atom  18H    basis set group =>   2
Atom  19O    basis set group =>   3
Atom  20C    basis set group =>   1
Atom  21C    basis set group =>   1
Atom  22C    basis set group =>   1
Atom  23C    basis set group =>   1
Atom  24H    basis set group =>   2
Atom  25C    basis set group =>   1
Atom  26C    basis set group =>   1
Atom  27H    basis set group =>   2
Atom  28H    basis set group =>   2
Atom  29H    basis set group =>   2
Atom  30N    basis set group =>   4
Atom  31C    basis set group =>   1
Atom  32H    basis set group =>   2
Atom  33H    basis set group =>   2
Atom  34C    basis set group =>   1
Atom  35H    basis set group =>   2
Atom  36H    basis set group =>   2
Atom  37H    basis set group =>   2
Atom  38C    basis set group =>   1
Atom  39O    basis set group =>   3
Atom  40O    basis set group =>   3
Atom  41C    basis set group =>   1
Atom  42H    basis set group =>   2
Atom  43H    basis set group =>   2
Atom  44C    basis set group =>   1
Atom  45H    basis set group =>   2
Atom  46H    basis set group =>   2
Atom  47H    basis set group =>   2
Atom  48C    basis set group =>   1
Atom  49H    basis set group =>   2
Atom  50H    basis set group =>   2
Atom  51C    basis set group =>   1
Atom  52H    basis set group =>   2
Atom  53H    basis set group =>   2
Atom  54C    basis set group =>   1
Atom  55H    basis set group =>   2
Atom  56H    basis set group =>   2
Atom  57H    basis set group =>   2
Atom  58C    basis set group =>   1
Atom  59H    basis set group =>   2
Atom  60H    basis set group =>   2
Atom  61H    basis set group =>   2
Atom  62N    basis set group =>   4
Atom  63H    basis set group =>   2


           ************************************************************
           *        Program running with 8 parallel MPI-processes     *
           *              working on a common directory               *
           ************************************************************
------------------------------------------------------------------------------
                           ORCA GTO INTEGRAL CALCULATION
                           -- RI-GTO INTEGRALS CHOSEN --
------------------------------------------------------------------------------
------------------------------------------------------------------------------
                   ___                                                        
                  /   \      - P O W E R E D   B Y -                         
                 /     \                                                     
                 |  |  |   _    _      __       _____    __    __             
                 |  |  |  | |  | |    /  \     |  _  \  |  |  /  |          
                  \  \/   | |  | |   /    \    | | | |  |  | /  /          
                 / \  \   | |__| |  /  /\  \   | |_| |  |  |/  /          
                |  |  |   |  __  | /  /__\  \  |    /   |      \           
                |  |  |   | |  | | |   __   |  |    \   |  |\   \          
                \     /   | |  | | |  |  |  |  | |\  \  |  | \   \       
                 \___/    |_|  |_| |__|  |__|  |_| \__\ |__|  \__/        
                                                                              
                      - O R C A' S   B I G   F R I E N D -                    
                                      &                                       
                       - I N T E G R A L  F E E D E R -                       
                                                                              
 v1 FN, 2020, v2 2021                                                         
------------------------------------------------------------------------------


Reading SHARK input file Rh_B_M06L_def2TZVP_coords.SHARKINP.tmp ... ok
----------------------
SHARK INTEGRAL PACKAGE
----------------------

Number of atoms                             ...     64
Number of basis functions                   ...   1209
Number of shells                            ...    487
Maximum angular momentum                    ...      3
Integral batch strategy                     ... SHARK/LIBINT Hybrid
RI-J (if used) integral strategy            ... SPLIT-RIJ (Revised 2003 algorithm where possible)
Printlevel                                  ...      1
Contraction scheme used                     ... SEGMENTED contraction
Coulomb Range Separation                    ... NOT USED
Exchange Range Separation                   ... Long Range
   Mu parameter                             ...  0.300000
   Scaling (regular/separated)              ...  0.530000  0.470000
Finite Nucleus Model                        ... NOT USED
Auxiliary Coulomb fitting basis             ... AVAILABLE
   # of basis functions in Aux-J            ...   1958
   # of shells in Aux-J                     ...    650
   Maximum angular momentum in Aux-J        ...      4
Auxiliary J/K fitting basis                 ... NOT available
Auxiliary Correlation fitting basis         ... AVAILABLE
   # of basis functions in Aux-C            ...   2973
   # of shells in Aux-C                     ...    943
   Maximum angular momentum in Aux-C        ...      4
Auxiliary 'external' fitting basis          ... NOT available
Integral threshold                          ...     2.500000e-11
Primitive cut-off                           ...     2.500000e-12
Primitive pair pre-selection threshold      ...     2.500000e-12

Calculating pre-screening integrals         ... done (  0.1 sec) Dimension = 487
Organizing shell pair data                  ... done (  0.7 sec)
Shell pair information
Total number of shell pairs                 ...    118828
Shell pairs after pre-screening             ...     67079
Total number of primitive shell pairs       ...    359100
Primitive shell pairs kept                  ...    130590
          la=0 lb=0:  18001 shell pairs
          la=1 lb=0:  19892 shell pairs
          la=1 lb=1:   5508 shell pairs
          la=2 lb=0:   9191 shell pairs
          la=2 lb=1:   5159 shell pairs
          la=2 lb=2:   1214 shell pairs
          la=3 lb=0:   4292 shell pairs
          la=3 lb=1:   2448 shell pairs
          la=3 lb=2:   1102 shell pairs
          la=3 lb=3:    272 shell pairs

Calculating one electron integrals          ... done (  0.1 sec)
Calculating RI/J V-Matrix + Cholesky decomp.... done (  0.2 sec)
Calculating RI/C V-Matrix + Cholesky decomp.... done (  0.5 sec)
Calculating Nuclear repulsion               ... done (  0.0 sec) ENN=   3335.373366877639 Eh

SHARK setup successfully completed in   2.2 seconds

Maximum memory used throughout the entire GTOINT-calculation: 111.4 MB


           ************************************************************
           *        Program running with 8 parallel MPI-processes     *
           *              working on a common directory               *
           ************************************************************
-------------------------------------------------------------------------------
                                 ORCA SCF
-------------------------------------------------------------------------------

------------
SCF SETTINGS
------------
Hamiltonian:
 Density Functional     Method          .... DFT(GTOs)
 Exchange Functional    Exchange        .... WB88
 Correlation Functional Correlation     .... LYP
 LDA part of GGA corr.  LDAOpt          .... VWN-3
 Gradients option       PostSCFGGA      .... off
 Hybrid DFT is turned on
   Fraction HF Exchange ScalHFX         ....  0.530000
   Scaling of DF-GGA-X  ScalDFX         ....  0.000000
   Scaling of DF-GGA-C  ScalDFC         ....  0.730000
   Scaling of DF-LDA-C  ScalLDAC        ....  0.730000
   Perturbative correction              ....  0.270000
   Density functional embedding theory  .... OFF
 Long-range corrected/Screened/Range-Separated Hybrid DFT is turned on
   Amount of maximum screened exact exchange              ....  0.470000
   Range separation parameter mu (erf(mu*r12)/r12)        ....  0.300000
 RI-approximation to the Coulomb term is turned on
   Number of AuxJ basis functions       .... 1958
   RIJ-COSX (HFX calculated with COS-X)).... on


General Settings:
 Integral files         IntName         .... Rh_B_M06L_def2TZVP_coords
 Hartree-Fock type      HFTyp           .... RHF
 Total Charge           Charge          ....    1
 Multiplicity           Mult            ....    1
 Number of Electrons    NEL             ....  236
 Basis Dimension        Dim             .... 1209
 Nuclear Repulsion      ENuc            ....   3335.3733668776 Eh

Convergence Acceleration:
 DIIS                   CNVDIIS         .... on
   Start iteration      DIISMaxIt       ....    12
   Startup error        DIISStart       ....  0.200000
   # of expansion vecs  DIISMaxEq       ....     5
   Bias factor          DIISBfac        ....   1.050
   Max. coefficient     DIISMaxC        ....  10.000
 Trust-Rad. Augm. Hess. CNVTRAH         .... auto
   Auto Start mean grad. ratio tolernc. ....  1.125000
   Auto Start start iteration           ....    20
   Auto Start num. interpolation iter.  ....    10
   Max. Number of Micro iterations      ....    16
   Max. Number of Macro iterations      .... Maxiter - #DIIS iter
   Number of Davidson start vectors     ....     2
   Converg. threshold I  (grad. norm)   ....   1.000e-05
   Converg. threshold II (energy diff.) ....   1.000e-08
   Grad. Scal. Fac. for Micro threshold ....   0.100
   Minimum threshold for Micro iter.    ....   0.010
   NR start threshold (gradient norm)   ....   0.001
   Initial trust radius                 ....   0.400
   Minimum AH scaling param. (alpha)    ....   1.000
   Maximum AH scaling param. (alpha)    .... 1000.000
   Orbital update algorithm             .... Taylor
   White noise on init. David. guess    .... on
   Maximum white noise                  ....   0.010
   Quad. conv. algorithm                .... NR
 SOSCF                  CNVSOSCF        .... on
   Start iteration      SOSCFMaxIt      ....   150
   Startup grad/error   SOSCFStart      ....  0.003300
 Level Shifting         CNVShift        .... on
   Level shift para.    LevelShift      ....    0.2500
   Turn off err/grad.   ShiftErr        ....    0.0010
 Zerner damping         CNVZerner       .... off
 Static damping         CNVDamp         .... on
   Fraction old density DampFac         ....    0.7000
   Max. Damping (<1)    DampMax         ....    0.9800
   Min. Damping (>=0)   DampMin         ....    0.0000
   Turn off err/grad.   DampErr         ....    0.1000
 Fernandez-Rico         CNVRico         .... off

SCF Procedure:
 Maximum # iterations   MaxIter         ....   125
 SCF integral mode      SCFMode         .... Direct
   Integral package                     .... SHARK and LIBINT hybrid scheme
 Reset frequency        DirectResetFreq ....    20
 Integral Threshold     Thresh          ....  2.500e-11 Eh
 Primitive CutOff       TCut            ....  2.500e-12 Eh

Convergence Tolerance:
 Convergence Check Mode ConvCheckMode   .... Total+1el-Energy
 Convergence forced     ConvForced      .... 1
 Energy Change          TolE            ....  1.000e-08 Eh
 1-El. energy change                    ....  1.000e-05 Eh
 Orbital Gradient       TolG            ....  1.000e-05
 Orbital Rotation angle TolX            ....  1.000e-05
 DIIS Error             TolErr          ....  5.000e-07


Diagonalization of the overlap matrix:
Smallest eigenvalue                        ... 4.276e-06
Time for diagonalization                   ...    0.241 sec
Threshold for overlap eigenvalues          ... 1.000e-08
Number of eigenvalues below threshold      ... 0
Time for construction of square roots      ...    0.172 sec
Total time needed                          ...    0.418 sec

Time for model grid setup =    0.435 sec

------------------------------
INITIAL GUESS: MODEL POTENTIAL
------------------------------
Loading Hartree-Fock densities                     ... done
Calculating cut-offs                               ... done
Initializing the effective Hamiltonian             ... done
Setting up the integral package (SHARK)            ... done
Starting the Coulomb interaction                   ... done (   1.0 sec)
Reading the grid                                   ... done
Mapping shells                                     ... done
Starting the XC term evaluation                    ... done (   0.4 sec)
  promolecular density results
     # of electrons  =    236.994652319
     EX              =   -190.163954025
     EC              =     -2.696971805
     EX+EC           =   -192.860925830
Transforming the Hamiltonian                       ... done (   0.1 sec)
Diagonalizing the Hamiltonian                      ... done (   0.2 sec)
Back transforming the eigenvectors                 ... done (   0.1 sec)
Now organizing SCF variables                       ... done
                      ------------------
                      INITIAL GUESS DONE (   2.3 sec)
                      ------------------
-------------------
DFT GRID GENERATION
-------------------

General Integration Accuracy     IntAcc      ... 4.388
Radial Grid Type                 RadialGrid  ... OptM3 with GC (2021)
Angular Grid (max. ang.)         AngularGrid ... 4 (Lebedev-302)
Angular grid pruning method      GridPruning ... 4 (adaptive)
Weight generation scheme         WeightScheme... Becke
Basis function cutoff            BFCut       ... 1.0000e-11
Integration weight cutoff        WCut        ... 1.0000e-14
Angular grids for H and He will be reduced by one unit
Partially contracted basis set               ... off
Rotationally invariant grid construction     ... off

Total number of grid points                  ...   294392
Total number of batches                      ...     4630
Average number of points per batch           ...       63
Average number of grid points per atom       ...     4600
Time for grid setup =    1.873 sec

--------------------
COSX GRID GENERATION
--------------------

GRIDX 1
-------
General Integration Accuracy     IntAcc      ... 3.816
Radial Grid Type                 RadialGrid  ... OptM3 with GC (2021)
Angular Grid (max. ang.)         AngularGrid ... 1 (Lebedev-50)
Angular grid pruning method      GridPruning ... 4 (adaptive)
Weight generation scheme         WeightScheme... Becke
Basis function cutoff            BFCut       ... 1.0000e-11
Integration weight cutoff        WCut        ... 1.0000e-14
Angular grids for H and He will be reduced by one unit
Partially contracted basis set               ... on
Rotationally invariant grid construction     ... off

Total number of grid points                  ...    37411
Total number of batches                      ...      620
Average number of points per batch           ...       60
Average number of grid points per atom       ...      585
UseSFitting                                  ... on

GRIDX 2
-------
General Integration Accuracy     IntAcc      ... 4.020
Radial Grid Type                 RadialGrid  ... OptM3 with GC (2021)
Angular Grid (max. ang.)         AngularGrid ... 2 (Lebedev-110)
Angular grid pruning method      GridPruning ... 4 (adaptive)
Weight generation scheme         WeightScheme... Becke
Basis function cutoff            BFCut       ... 1.0000e-11
Integration weight cutoff        WCut        ... 1.0000e-14
Angular grids for H and He will be reduced by one unit
Partially contracted basis set               ... on
Rotationally invariant grid construction     ... off

Total number of grid points                  ...    79674
Total number of batches                      ...     1277
Average number of points per batch           ...       62
Average number of grid points per atom       ...     1245
UseSFitting                                  ... on

GRIDX 3
-------
General Integration Accuracy     IntAcc      ... 4.338
Radial Grid Type                 RadialGrid  ... OptM3 with GC (2021)
Angular Grid (max. ang.)         AngularGrid ... 3 (Lebedev-194)
Angular grid pruning method      GridPruning ... 4 (adaptive)
Weight generation scheme         WeightScheme... Becke
Basis function cutoff            BFCut       ... 1.0000e-11
Integration weight cutoff        WCut        ... 1.0000e-14
Angular grids for H and He will be reduced by one unit
Partially contracted basis set               ... on
Rotationally invariant grid construction     ... off

Total number of grid points                  ...   173677
Total number of batches                      ...     2747
Average number of points per batch           ...       63
Average number of grid points per atom       ...     2714
UseSFitting                                  ... on

Time for X-Grid setup             =    2.674 sec


--------------------
CPCM SOLVATION MODEL
--------------------
CPCM parameters:
  Epsilon                                         ...      24.8520
  Refrac                                          ...       1.3611
  Rsolv                                           ...       1.3000
  Surface type                                    ... GAUSSIAN VDW
  Epsilon function type                           ...         CPCM
Solvent:                                     ... ETHANOL
SMD-CDS solvent descriptors:
  Soln                                       ...    1.3611
  Soln25                                     ...    1.3593
  Sola                                       ...    0.3700
  Solb                                       ...    0.4800
  Solg                                       ...   31.6200
  Solc                                       ...    0.0000
  Solh                                       ...    0.0000
Radii:
 Radius for C  used is    3.4960 Bohr (=   1.8500 Ang.)
 Radius for H  used is    2.2677 Bohr (=   1.2000 Ang.)
 Radius for O  used is    3.0765 Bohr (=   1.6280 Ang.)
 Radius for N  used is    3.5716 Bohr (=   1.8900 Ang.)
Calculating surface                               ...        done! (  0.0s)
GEPOL surface points                              ...         3653
GEPOL Volume                                      ...    3080.5856
GEPOL Surface-area                                ...    1709.2145
Calculating surface distance matrix               ...        done! (  0.2s)
Performing Cholesky decomposition & store         ...        done! (  0.7s)
Overall time for CPCM initialization              ...                 0.9s
--------------
SCF ITERATIONS
--------------
ITER       Energy         Delta-E        Max-DP      RMS-DP      [F,P]     Damp
               ***  Starting incremental Fock matrix formation  ***
  0  -1415.9108548304   0.000000000000 0.05834274  0.00056053  0.2722815 0.7000
  1  -1416.2529015824  -0.342046751962 0.03616696  0.00046198  0.1429309 0.7000
                               ***Turning on DIIS***
  2  -1416.4473090265  -0.194407444115 0.06733282  0.00103727  0.0671207 0.0000
  3  -1416.8015009667  -0.354191940215 0.05211109  0.00029149  0.0612653 0.0000
  4  -1416.8321831447  -0.030682177996 0.01068760  0.00010349  0.0117236 0.0000
  5  -1416.8335006822  -0.001317537483 0.00615210  0.00005165  0.0086805 0.0000
                      *** Initiating the SOSCF procedure ***
                           *** Shutting down DIIS ***
                      *** Re-Reading the Fockian *** 
                      *** Removing any level shift *** 
ITER      Energy       Delta-E        Grad      Rot      Max-DP    RMS-DP
  6  -1416.83389402  -0.0003933424  0.002400  0.002400  0.002298  0.000026
               *** Restarting incremental Fock matrix formation ***
  7  -1416.83404572  -0.0001516959  0.001416  0.004332  0.028667  0.000241
  8  -1416.83410456  -0.0000588439  0.000656  0.004902  0.012881  0.000111
  9  -1416.83412289  -0.0000183247  0.000219  0.000471  0.011356  0.000095
 10  -1416.83412708  -0.0000041959  0.000062  0.000247  0.000858  0.000008
 11  -1416.83412750  -0.0000004147  0.000029  0.000078  0.000537  0.000005
 12  -1416.83412759  -0.0000000893  0.000014  0.000090  0.000391  0.000002
 13  -1416.83412760  -0.0000000133  0.000005  0.000028  0.000241  0.000001
 14  -1416.83412761  -0.0000000120  0.000003  0.000008  0.000316  0.000001
                  ***Gradient check signals convergence***
              ***Rediagonalizing the Fockian in SOSCF/NRSCF***

               *****************************************************
               *                     SUCCESS                       *
               *           SCF CONVERGED AFTER  15 CYCLES          *
               *****************************************************

Old exchange energy                            =   -120.331757208 Eh
New exchange energy                            =   -120.331707223 Eh
Exchange energy change after final integration =      0.000049985 Eh
Total energy after final integration           =  -1416.834077612 Eh
Final COS-X integration done in                =    93.940 sec

SMD CDS free energy correction energy :                -1.41803     Kcal/mol
Total Energy after SMD CDS correction =             -1416.836337391 Eh

----------------
TOTAL SCF ENERGY
----------------

Total Energy       :        -1416.83633739 Eh          -38554.07679 eV

Components:
Nuclear Repulsion  :         3335.37336688 Eh           90760.12347 eV
Electronic Energy  :        -4752.20970427 Eh         -129314.20026 eV
One Electron Energy:        -8533.74350147 Eh         -232214.96626 eV
Two Electron Energy:         3781.53379720 Eh          102900.76600 eV
Max COSX asymmetry :            0.00000542 Eh               0.00015 eV
CPCM Dielectric    :           -0.08564720 Eh              -2.33058 eV
SMD CDS (Gcds)     :           -0.00225978 Eh              -0.06149 eV

Virial components:
Potential Energy   :        -2828.85013097 Eh          -76976.92549 eV
Kinetic Energy     :         1412.01379358 Eh           38422.84870 eV
Virial Ratio       :            2.00341537


DFT components:
N(Alpha)           :      118.000000731793 electrons
N(Beta)            :      118.000000731793 electrons
N(Total)           :      236.000001463586 electrons
E(X)               :      -72.718351010999 Eh       
E(C)               :       -5.864519972237 Eh       
E(XC)              :      -78.582870983236 Eh       
DFET-embed. en.    :        0.000000000000 Eh       
CPCM Solvation Model Properties:
Surface-charge          :           -1.07957827
Charge-correction       :            0.00711752 Eh               0.19368 eV
Free-energy (cav+disp)  :           -0.00225978 Eh              -0.06149 eV

---------------
SCF CONVERGENCE
---------------

  Last Energy change         ...    1.7160e-08  Tolerance :   1.0000e-08
  Last MAX-Density change    ...    1.8874e-15  Tolerance :   1.0000e-07
  Last RMS-Density change    ...    1.1804e-17  Tolerance :   5.0000e-09
  Last Orbital Gradient      ...    7.4604e-07  Tolerance :   1.0000e-05
  Last Orbital Rotation      ...    3.4368e-06  Tolerance :   1.0000e-05

             **** THE GBW FILE WAS UPDATED (Rh_B_M06L_def2TZVP_coords.gbw) ****
             **** DENSITY Rh_B_M06L_def2TZVP_coords.scfp WAS UPDATED ****
             **** ENERGY FILE WAS UPDATED (Rh_B_M06L_def2TZVP_coords.en.tmp) ****
             **** THE GBW FILE WAS UPDATED (Rh_B_M06L_def2TZVP_coords.gbw) ****
             **** DENSITY Rh_B_M06L_def2TZVP_coords.scfp WAS UPDATED ****
----------------
ORBITAL ENERGIES
----------------

  NO   OCC          E(Eh)            E(eV) 
   0   2.0000     -19.889249      -541.2140 
   1   2.0000     -19.858077      -540.3657 
   2   2.0000     -19.803807      -538.8890 
   3   2.0000     -14.945803      -406.6960 
   4   2.0000     -14.945218      -406.6801 
   5   2.0000     -10.852790      -295.3194 
   6   2.0000     -10.794997      -293.7468 
   7   2.0000     -10.794636      -293.7370 
   8   2.0000     -10.771195      -293.0991 
   9   2.0000     -10.771089      -293.0962 
  10   2.0000     -10.770623      -293.0836 
  11   2.0000     -10.734696      -292.1059 
  12   2.0000     -10.726275      -291.8768 
  13   2.0000     -10.717963      -291.6506 
  14   2.0000     -10.717816      -291.6466 
  15   2.0000     -10.715619      -291.5868 
  16   2.0000     -10.715544      -291.5848 
  17   2.0000     -10.715259      -291.5770 
  18   2.0000     -10.714993      -291.5698 
  19   2.0000     -10.714908      -291.5675 
  20   2.0000     -10.714774      -291.5638 
  21   2.0000     -10.709532      -291.4212 
  22   2.0000     -10.708017      -291.3800 
  23   2.0000     -10.706807      -291.3470 
  24   2.0000     -10.702021      -291.2168 
  25   2.0000     -10.697091      -291.0826 
  26   2.0000     -10.697000      -291.0802 
  27   2.0000     -10.691383      -290.9273 
  28   2.0000     -10.691308      -290.9253 
  29   2.0000     -10.667546      -290.2787 
  30   2.0000     -10.667489      -290.2771 
  31   2.0000     -10.667443      -290.2759 
  32   2.0000     -10.667240      -290.2704 
  33   2.0000      -1.365014       -37.1439 
  34   2.0000      -1.356090       -36.9011 
  35   2.0000      -1.257269       -34.2120 
  36   2.0000      -1.189619       -32.3712 
  37   2.0000      -1.188947       -32.3529 
  38   2.0000      -1.117288       -30.4030 
  39   2.0000      -1.091080       -29.6898 
  40   2.0000      -1.083766       -29.4908 
  41   2.0000      -1.032283       -28.0899 
  42   2.0000      -0.995331       -27.0843 
  43   2.0000      -0.983343       -26.7581 
  44   2.0000      -0.975516       -26.5451 
  45   2.0000      -0.973326       -26.4855 
  46   2.0000      -0.968242       -26.3472 
  47   2.0000      -0.966012       -26.2865 
  48   2.0000      -0.946627       -25.7590 
  49   2.0000      -0.930949       -25.3324 
  50   2.0000      -0.909505       -24.7489 
  51   2.0000      -0.868803       -23.6413 
  52   2.0000      -0.851991       -23.1839 
  53   2.0000      -0.848920       -23.1003 
  54   2.0000      -0.831677       -22.6311 
  55   2.0000      -0.821129       -22.3441 
  56   2.0000      -0.814790       -22.1716 
  57   2.0000      -0.798081       -21.7169 
  58   2.0000      -0.784373       -21.3439 
  59   2.0000      -0.776864       -21.1395 
  60   2.0000      -0.769501       -20.9392 
  61   2.0000      -0.763588       -20.7783 
  62   2.0000      -0.713114       -19.4048 
  63   2.0000      -0.712188       -19.3796 
  64   2.0000      -0.704015       -19.1572 
  65   2.0000      -0.686349       -18.6765 
  66   2.0000      -0.675627       -18.3847 
  67   2.0000      -0.670984       -18.2584 
  68   2.0000      -0.662955       -18.0399 
  69   2.0000      -0.656020       -17.8512 
  70   2.0000      -0.646662       -17.5966 
  71   2.0000      -0.645212       -17.5571 
  72   2.0000      -0.641541       -17.4572 
  73   2.0000      -0.630134       -17.1468 
  74   2.0000      -0.623433       -16.9645 
  75   2.0000      -0.612506       -16.6671 
  76   2.0000      -0.605243       -16.4695 
  77   2.0000      -0.603081       -16.4107 
  78   2.0000      -0.602364       -16.3912 
  79   2.0000      -0.598405       -16.2834 
  80   2.0000      -0.585386       -15.9292 
  81   2.0000      -0.581765       -15.8306 
  82   2.0000      -0.573426       -15.6037 
  83   2.0000      -0.572827       -15.5874 
  84   2.0000      -0.569835       -15.5060 
  85   2.0000      -0.568825       -15.4785 
  86   2.0000      -0.566777       -15.4228 
  87   2.0000      -0.562295       -15.3008 
  88   2.0000      -0.557755       -15.1773 
  89   2.0000      -0.538053       -14.6412 
  90   2.0000      -0.537207       -14.6181 
  91   2.0000      -0.524154       -14.2629 
  92   2.0000      -0.523675       -14.2499 
  93   2.0000      -0.520271       -14.1573 
  94   2.0000      -0.520168       -14.1545 
  95   2.0000      -0.515281       -14.0215 
  96   2.0000      -0.508246       -13.8301 
  97   2.0000      -0.505241       -13.7483 
  98   2.0000      -0.503641       -13.7048 
  99   2.0000      -0.501818       -13.6552 
 100   2.0000      -0.497758       -13.5447 
 101   2.0000      -0.489449       -13.3186 
 102   2.0000      -0.482955       -13.1419 
 103   2.0000      -0.477035       -12.9808 
 104   2.0000      -0.476189       -12.9578 
 105   2.0000      -0.473520       -12.8851 
 106   2.0000      -0.472559       -12.8590 
 107   2.0000      -0.463434       -12.6107 
 108   2.0000      -0.460451       -12.5295 
 109   2.0000      -0.452718       -12.3191 
 110   2.0000      -0.445562       -12.1244 
 111   2.0000      -0.422426       -11.4948 
 112   2.0000      -0.388066       -10.5598 
 113   2.0000      -0.373887       -10.1740 
 114   2.0000      -0.370376       -10.0784 
 115   2.0000      -0.353071        -9.6076 
 116   2.0000      -0.333088        -9.0638 
 117   2.0000      -0.284514        -7.7420 
 118   0.0000      -0.025445        -0.6924 
 119   0.0000       0.031098         0.8462 
 120   0.0000       0.061006         1.6601 
 121   0.0000       0.072614         1.9759 
 122   0.0000       0.086804         2.3620 
 123   0.0000       0.091582         2.4921 
 124   0.0000       0.112417         3.0590 
 125   0.0000       0.117242         3.1903 
 126   0.0000       0.124175         3.3790 
 127   0.0000       0.131750         3.5851 
 128   0.0000       0.132206         3.5975 
 129   0.0000       0.141522         3.8510 
 130   0.0000       0.144256         3.9254 
 131   0.0000       0.147437         4.0120 
 132   0.0000       0.151303         4.1172 
 133   0.0000       0.151619         4.1258 
 134   0.0000       0.156633         4.2622 
 135   0.0000       0.160355         4.3635 
 136   0.0000       0.161731         4.4009 
 137   0.0000       0.163998         4.4626 
 138   0.0000       0.167687         4.5630 
 139   0.0000       0.173283         4.7153 
 140   0.0000       0.178759         4.8643 
 141   0.0000       0.179794         4.8924 
 142   0.0000       0.183142         4.9835 
 143   0.0000       0.183283         4.9874 
 144   0.0000       0.188127         5.1192 
 145   0.0000       0.190360         5.1800 
 146   0.0000       0.195539         5.3209 
 147   0.0000       0.199885         5.4391 
 148   0.0000       0.203229         5.5301 
 149   0.0000       0.204770         5.5721 
 150   0.0000       0.214439         5.8352 
 151   0.0000       0.218484         5.9452 
 152   0.0000       0.223125         6.0715 
 153   0.0000       0.224152         6.0995 
 154   0.0000       0.225597         6.1388 
 155   0.0000       0.230083         6.2609 
 156   0.0000       0.232123         6.3164 
 157   0.0000       0.236765         6.4427 
 158   0.0000       0.239519         6.5176 
 159   0.0000       0.241360         6.5677 
 160   0.0000       0.242276         6.5927 
 161   0.0000       0.244627         6.6566 
 162   0.0000       0.247790         6.7427 
 163   0.0000       0.253373         6.8946 
 164   0.0000       0.258074         7.0225 
 165   0.0000       0.258837         7.0433 
 166   0.0000       0.261027         7.1029 
 167   0.0000       0.263181         7.1615 
 168   0.0000       0.270405         7.3581 
 169   0.0000       0.272774         7.4225 
 170   0.0000       0.277042         7.5387 
 171   0.0000       0.280675         7.6376 
 172   0.0000       0.287110         7.8127 
 173   0.0000       0.288828         7.8594 
 174   0.0000       0.290373         7.9014 
 175   0.0000       0.296440         8.0665 
 176   0.0000       0.297818         8.1040 
 177   0.0000       0.301053         8.1921 
 178   0.0000       0.303278         8.2526 
 179   0.0000       0.306021         8.3272 
 180   0.0000       0.309995         8.4354 
 181   0.0000       0.315826         8.5941 
 182   0.0000       0.317632         8.6432 
 183   0.0000       0.325162         8.8481 
 184   0.0000       0.329390         8.9632 
 185   0.0000       0.331742         9.0272 
 186   0.0000       0.332721         9.0538 
 187   0.0000       0.339276         9.2322 
 188   0.0000       0.339911         9.2495 
 189   0.0000       0.344281         9.3684 
 190   0.0000       0.348461         9.4821 
 191   0.0000       0.350068         9.5258 
 192   0.0000       0.353836         9.6284 
 193   0.0000       0.355785         9.6814 
 194   0.0000       0.356476         9.7002 
 195   0.0000       0.357763         9.7352 
 196   0.0000       0.362129         9.8540 
 197   0.0000       0.363518         9.8918 
 198   0.0000       0.369015        10.0414 
 199   0.0000       0.372134        10.1263 
 200   0.0000       0.381775        10.3886 
 201   0.0000       0.383924        10.4471 
 202   0.0000       0.388251        10.5648 
 203   0.0000       0.394169        10.7259 
 204   0.0000       0.396788        10.7971 
 205   0.0000       0.398135        10.8338 
 206   0.0000       0.399068        10.8592 
 207   0.0000       0.402941        10.9646 
 208   0.0000       0.404269        11.0007 
 209   0.0000       0.406539        11.0625 
 210   0.0000       0.409334        11.1385 
 211   0.0000       0.416597        11.3362 
 212   0.0000       0.421086        11.4583 
 213   0.0000       0.422786        11.5046 
 214   0.0000       0.424424        11.5492 
 215   0.0000       0.429334        11.6828 
 216   0.0000       0.433581        11.7983 
 217   0.0000       0.437134        11.8950 
 218   0.0000       0.442753        12.0479 
 219   0.0000       0.446282        12.1440 
 220   0.0000       0.451645        12.2899 
 221   0.0000       0.453785        12.3481 
 222   0.0000       0.457501        12.4492 
 223   0.0000       0.461996        12.5716 
 224   0.0000       0.465757        12.6739 
 225   0.0000       0.468895        12.7593 
 226   0.0000       0.471316        12.8251 
 227   0.0000       0.476008        12.9528 
 228   0.0000       0.484315        13.1789 
 229   0.0000       0.485334        13.2066 
 230   0.0000       0.488636        13.2964 
 231   0.0000       0.491239        13.3673 
 232   0.0000       0.491679        13.3793 
 233   0.0000       0.498028        13.5520 
 234   0.0000       0.499400        13.5894 
 235   0.0000       0.501739        13.6530 
 236   0.0000       0.504030        13.7153 
 237   0.0000       0.506477        13.7819 
 238   0.0000       0.508250        13.8302 
 239   0.0000       0.512728        13.9520 
 240   0.0000       0.516017        14.0415 
 241   0.0000       0.516296        14.0491 
 242   0.0000       0.523033        14.2325 
 243   0.0000       0.525506        14.2998 
 244   0.0000       0.528834        14.3903 
 245   0.0000       0.532484        14.4896 
 246   0.0000       0.534118        14.5341 
 247   0.0000       0.537124        14.6159 
 248   0.0000       0.539327        14.6758 
 249   0.0000       0.543884        14.7998 
 250   0.0000       0.545462        14.8428 
 251   0.0000       0.547655        14.9025 
 252   0.0000       0.550305        14.9746 
 253   0.0000       0.551349        15.0030 
 254   0.0000       0.552726        15.0404 
 255   0.0000       0.555182        15.1073 
 256   0.0000       0.559088        15.2135 
 257   0.0000       0.561516        15.2796 
 258   0.0000       0.562600        15.3091 
 259   0.0000       0.565133        15.3781 
 260   0.0000       0.567447        15.4410 
 261   0.0000       0.569289        15.4911 
 262   0.0000       0.570075        15.5125 
 263   0.0000       0.570480        15.5236 
 264   0.0000       0.573494        15.6056 
 265   0.0000       0.578025        15.7289 
 266   0.0000       0.580292        15.7905 
 267   0.0000       0.581544        15.8246 
 268   0.0000       0.583635        15.8815 
 269   0.0000       0.585418        15.9300 
 270   0.0000       0.587475        15.9860 
 271   0.0000       0.589445        16.0396 
 272   0.0000       0.592292        16.1171 
 273   0.0000       0.598322        16.2812 
 274   0.0000       0.600720        16.3464 
 275   0.0000       0.602809        16.4033 
 276   0.0000       0.605174        16.4676 
 277   0.0000       0.611704        16.6453 
 278   0.0000       0.612792        16.6749 
 279   0.0000       0.618824        16.8391 
 280   0.0000       0.621069        16.9001 
 281   0.0000       0.625031        17.0079 
 282   0.0000       0.626958        17.0604 
 283   0.0000       0.633095        17.2274 
 284   0.0000       0.634478        17.2650 
 285   0.0000       0.638343        17.3702 
 286   0.0000       0.640391        17.4259 
 287   0.0000       0.644853        17.5473 
 288   0.0000       0.653574        17.7846 
 289   0.0000       0.659459        17.9448 
 290   0.0000       0.661282        17.9944 
 291   0.0000       0.669418        18.2158 
 292   0.0000       0.672273        18.2935 
 293   0.0000       0.676649        18.4126 
 294   0.0000       0.679676        18.4949 
 295   0.0000       0.683708        18.6046 
 296   0.0000       0.687837        18.7170 
 297   0.0000       0.699478        19.0338 
 298   0.0000       0.701808        19.0972 
 299   0.0000       0.706497        19.2248 
 300   0.0000       0.710894        19.3444 
 301   0.0000       0.714380        19.4393 
 302   0.0000       0.717975        19.5371 
 303   0.0000       0.719395        19.5757 
 304   0.0000       0.721099        19.6221 
 305   0.0000       0.725254        19.7352 
 306   0.0000       0.727895        19.8070 
 307   0.0000       0.732932        19.9441 
 308   0.0000       0.736045        20.0288 
 309   0.0000       0.737383        20.0652 
 310   0.0000       0.739273        20.1166 
 311   0.0000       0.741146        20.1676 
 312   0.0000       0.749175        20.3861 
 313   0.0000       0.754913        20.5422 
 314   0.0000       0.761585        20.7238 
 315   0.0000       0.764940        20.8151 
 316   0.0000       0.769900        20.9501 
 317   0.0000       0.774296        21.0697 
 318   0.0000       0.776600        21.1324 
 319   0.0000       0.779117        21.2009 
 320   0.0000       0.782354        21.2889 
 321   0.0000       0.787058        21.4169 
 322   0.0000       0.794319        21.6145 
 323   0.0000       0.796859        21.6836 
 324   0.0000       0.800050        21.7705 
 325   0.0000       0.802455        21.8359 
 326   0.0000       0.808122        21.9901 
 327   0.0000       0.814153        22.1542 
 328   0.0000       0.815565        22.1927 
 329   0.0000       0.820589        22.3294 
 330   0.0000       0.826039        22.4777 
 331   0.0000       0.828600        22.5474 
 332   0.0000       0.831583        22.6285 
 333   0.0000       0.835135        22.7252 
 334   0.0000       0.838710        22.8225 
 335   0.0000       0.843743        22.9594 
 336   0.0000       0.848195        23.0805 
 337   0.0000       0.850435        23.1415 
 338   0.0000       0.852125        23.1875 
 339   0.0000       0.855598        23.2820 
 340   0.0000       0.858775        23.3685 
 341   0.0000       0.863111        23.4864 
 342   0.0000       0.865080        23.5400 
 343   0.0000       0.872124        23.7317 
 344   0.0000       0.877316        23.8730 
 345   0.0000       0.881736        23.9932 
 346   0.0000       0.886749        24.1297 
 347   0.0000       0.890616        24.2349 
 348   0.0000       0.899199        24.4685 
 349   0.0000       0.905170        24.6309 
 350   0.0000       0.908993        24.7350 
 351   0.0000       0.910376        24.7726 
 352   0.0000       0.915267        24.9057 
 353   0.0000       0.918674        24.9984 
 354   0.0000       0.922443        25.1009 
 355   0.0000       0.930898        25.3310 
 356   0.0000       0.933242        25.3948 
 357   0.0000       0.939451        25.5638 
 358   0.0000       0.944030        25.6884 
 359   0.0000       0.949325        25.8325 
 360   0.0000       0.952780        25.9265 
 361   0.0000       0.954843        25.9826 
 362   0.0000       0.959601        26.1121 
 363   0.0000       0.963908        26.2293 
 364   0.0000       0.966719        26.3058 
 365   0.0000       0.970192        26.4003 
 366   0.0000       0.976715        26.5778 
 367   0.0000       0.978946        26.6385 
 368   0.0000       0.981606        26.7109 
 369   0.0000       0.983323        26.7576 
 370   0.0000       0.987011        26.8579 
 371   0.0000       0.990133        26.9429 
 372   0.0000       0.995487        27.0886 
 373   0.0000       1.002138        27.2695 
 374   0.0000       1.003922        27.3181 
 375   0.0000       1.008121        27.4324 
 376   0.0000       1.017879        27.6979 
 377   0.0000       1.022001        27.8101 
 378   0.0000       1.025477        27.9047 
 379   0.0000       1.029299        28.0086 
 380   0.0000       1.036392        28.2017 
 381   0.0000       1.043401        28.3924 
 382   0.0000       1.045240        28.4424 
 383   0.0000       1.049530        28.5592 
 384   0.0000       1.057205        28.7680 
 385   0.0000       1.063815        28.9479 
 386   0.0000       1.068087        29.0641 
 387   0.0000       1.077398        29.3175 
 388   0.0000       1.084216        29.5030 
 389   0.0000       1.085919        29.5494 
 390   0.0000       1.087529        29.5932 
 391   0.0000       1.091739        29.7077 
 392   0.0000       1.093538        29.7567 
 393   0.0000       1.099593        29.9214 
 394   0.0000       1.106539        30.1105 
 395   0.0000       1.113605        30.3027 
 396   0.0000       1.118209        30.4280 
 397   0.0000       1.124316        30.5942 
 398   0.0000       1.127522        30.6814 
 399   0.0000       1.131324        30.7849 
 400   0.0000       1.143883        31.1266 
 401   0.0000       1.146785        31.2056 
 402   0.0000       1.159815        31.5602 
 403   0.0000       1.167454        31.7680 
 404   0.0000       1.174050        31.9475 
 405   0.0000       1.183099        32.1938 
 406   0.0000       1.184570        32.2338 
 407   0.0000       1.195441        32.5296 
[...]
   114a -> 119a  :     0.103679 
   115a -> 118a  :     0.010060 
   115a -> 119a  :     0.010067 
   115a -> 120a  :     0.044965 
   115a -> 121a  :     0.015656 
   115a -> 123a  :     0.045517 
   116a -> 119a  :     0.021514 
   116a -> 120a  :     0.017510 
   117a -> 120a  :     0.083661 
   117a -> 121a  :     0.053841 
   117a -> 122a  :     0.050541 
   117a -> 123a  :     0.044263 

STATE 18:  E=   0.231160 au      6.290 eV    50733.8 cm**-1 <S**2> =   0.000000
   100a -> 118a  :     0.010570 
   101a -> 118a  :     0.019148 
   103a -> 118a  :     0.061352 
   104a -> 118a  :     0.076782 
   106a -> 118a  :     0.072907 
   108a -> 118a  :     0.152192 
   110a -> 118a  :     0.013197 
   113a -> 119a  :     0.015986 
   113a -> 120a  :     0.047938 
   114a -> 118a  :     0.013005 
   114a -> 120a  :     0.087430 
   114a -> 121a  :     0.025967 
   114a -> 123a  :     0.010330 
   115a -> 123a  :     0.012433 
   116a -> 119a  :     0.016744 
   116a -> 120a  :     0.011306 
   116a -> 123a  :     0.024081 
   117a -> 120a  :     0.076007 
   117a -> 121a  :     0.063619 
   117a -> 123a  :     0.015013 

STATE 19:  E=   0.234782 au      6.389 eV    51528.7 cm**-1 <S**2> =   0.000000
   100a -> 118a  :     0.010884 
   101a -> 118a  :     0.011788 
   103a -> 118a  :     0.046216 
   104a -> 118a  :     0.066993 
   106a -> 118a  :     0.065187 
   108a -> 118a  :     0.125909 
   110a -> 118a  :     0.010309 
   112a -> 122a  :     0.020931 
   113a -> 119a  :     0.048971 
   114a -> 120a  :     0.128292 
   114a -> 121a  :     0.032206 
   114a -> 123a  :     0.014117 
   115a -> 120a  :     0.059214 
   115a -> 121a  :     0.011475 
   115a -> 123a  :     0.022335 
   116a -> 119a  :     0.031870 
   116a -> 123a  :     0.046034 
   117a -> 120a  :     0.035969 
   117a -> 121a  :     0.049966 
   117a -> 123a  :     0.010868 

STATE 20:  E=   0.238149 au      6.480 eV    52267.6 cm**-1 <S**2> =   0.000000
   107a -> 118a  :     0.011522 
   108a -> 118a  :     0.012726 
   109a -> 118a  :     0.042414 
   112a -> 119a  :     0.010542 
   112a -> 120a  :     0.026759 
   112a -> 122a  :     0.063022 
   113a -> 123a  :     0.015346 
   114a -> 120a  :     0.086510 
   114a -> 121a  :     0.025449 
   114a -> 122a  :     0.014472 
   115a -> 119a  :     0.216403 
   115a -> 120a  :     0.075407 
   115a -> 123a  :     0.094346 
   116a -> 119a  :     0.013009 
   116a -> 120a  :     0.015972 
   116a -> 123a  :     0.070923 
   117a -> 120a  :     0.029256 
   117a -> 122a  :     0.017672 
   117a -> 123a  :     0.013805 

STATE 21:  E=   0.249805 au      6.798 eV    54825.9 cm**-1 <S**2> =   0.000000
   116a -> 125a  :     0.047475 
   116a -> 135a  :     0.015304 
   117a -> 124a  :     0.527576 
   117a -> 126a  :     0.025391 
   117a -> 128a  :     0.080131 
   117a -> 129a  :     0.016660 
   117a -> 131a  :     0.069087 
   117a -> 134a  :     0.019972 
   117a -> 139a  :     0.027578 

STATE 22:  E=   0.233151 au      6.344 eV    51170.8 cm**-1 <S**2> =   0.000000
    93a -> 118a  :     0.012540 
   109a -> 122a  :     0.012282 
   111a -> 118a  :     0.444925 
   112a -> 118a  :     0.027454 
   112a -> 119a  :     0.010118 
   112a -> 120a  :     0.011190 
   112a -> 123a  :     0.025851 
   115a -> 121a  :     0.026027 
   115a -> 122a  :     0.039624 
   116a -> 120a  :     0.012945 
   116a -> 121a  :     0.112464 
   116a -> 122a  :     0.049183 
   117a -> 123a  :     0.064274 

STATE 23:  E=   0.238095 au      6.479 eV    52255.9 cm**-1 <S**2> =   0.000000
   100a -> 119a  :     0.010969 
   109a -> 118a  :     0.047941 
   109a -> 119a  :     0.021880 
   111a -> 118a  :     0.022537 
   111a -> 122a  :     0.019510 
   112a -> 118a  :     0.012440 
   113a -> 119a  :     0.075928 
   113a -> 121a  :     0.016167 
   114a -> 119a  :     0.024056 
   114a -> 120a  :     0.010312 
   115a -> 119a  :     0.024189 
   115a -> 120a  :     0.011750 
   115a -> 121a  :     0.075330 
   115a -> 122a  :     0.023660 
   116a -> 119a  :     0.345323 
   116a -> 122a  :     0.052644 
   117a -> 122a  :     0.027161 
   117a -> 123a  :     0.012497 

STATE 24:  E=   0.258030 au      7.021 eV    56630.9 cm**-1 <S**2> =   0.000000
   115a -> 124a  :     0.017690 
   116a -> 124a  :     0.165530 
   116a -> 128a  :     0.015994 
   116a -> 131a  :     0.016415 
   116a -> 139a  :     0.012265 
   117a -> 125a  :     0.456433 
   117a -> 130a  :     0.017200 
   117a -> 131a  :     0.016362 
   117a -> 132a  :     0.015782 
   117a -> 135a  :     0.045726 
   117a -> 136a  :     0.028711 
   117a -> 138a  :     0.022861 

STATE 25:  E=   0.243974 au      6.639 eV    53546.0 cm**-1 <S**2> =   0.000000
   107a -> 118a  :     0.021285 
   109a -> 118a  :     0.084225 
   111a -> 118a  :     0.043266 
   111a -> 123a  :     0.020036 
   112a -> 118a  :     0.016387 
   112a -> 119a  :     0.011332 
   112a -> 123a  :     0.011297 
   113a -> 119a  :     0.025925 
   113a -> 120a  :     0.033526 
   114a -> 119a  :     0.013844 
   115a -> 120a  :     0.023849 
   115a -> 121a  :     0.140999 
   115a -> 122a  :     0.053295 
   116a -> 119a  :     0.031612 
   116a -> 120a  :     0.105291 
   116a -> 122a  :     0.040865 
   116a -> 123a  :     0.045191 
   117a -> 122a  :     0.016582 
   117a -> 123a  :     0.038144 
   117a -> 127a  :     0.020051 
   117a -> 136a  :     0.013236 

STATE 26:  E=   0.249028 au      6.776 eV    54655.2 cm**-1 <S**2> =   0.000000
    91a -> 118a  :     0.013979 
    95a -> 118a  :     0.015467 
    96a -> 118a  :     0.022517 
   107a -> 118a  :     0.102127 
   107a -> 119a  :     0.010370 
   109a -> 118a  :     0.216658 
   109a -> 119a  :     0.033423 
   111a -> 122a  :     0.014014 
   113a -> 119a  :     0.082188 
   114a -> 119a  :     0.018125 
   115a -> 119a  :     0.266416 
   115a -> 120a  :     0.013156 
   115a -> 121a  :     0.010108 
   115a -> 123a  :     0.025926 

STATE 27:  E=   0.252323 au      6.866 eV    55378.5 cm**-1 <S**2> =   0.000000
    96a -> 118a  :     0.011724 
   100a -> 118a  :     0.013668 
   107a -> 118a  :     0.041806 
   109a -> 118a  :     0.046438 
   112a -> 119a  :     0.024194 
   112a -> 120a  :     0.080306 
   112a -> 121a  :     0.166885 
   113a -> 119a  :     0.013629 
   113a -> 123a  :     0.010368 
   114a -> 121a  :     0.016138 
   115a -> 119a  :     0.049850 
   115a -> 122a  :     0.023228 
   115a -> 123a  :     0.050616 
   115a -> 136a  :     0.010149 
   116a -> 119a  :     0.160044 
   116a -> 120a  :     0.019493 
   116a -> 122a  :     0.023439 
   116a -> 123a  :     0.029878 
   117a -> 122a  :     0.024832 

STATE 28:  E=   0.256310 au      6.975 eV    56253.5 cm**-1 <S**2> =   0.000000
    88a -> 118a  :     0.012099 
    90a -> 118a  :     0.021010 
    91a -> 118a  :     0.012286 
    95a -> 118a  :     0.030454 
    96a -> 118a  :     0.068322 
    97a -> 118a  :     0.063722 
    99a -> 118a  :     0.049133 
   102a -> 118a  :     0.224547 
   107a -> 118a  :     0.167862 
   108a -> 122a  :     0.030825 
   109a -> 118a  :     0.122940 

STATE 29:  E=   0.265313 au      7.220 eV    58229.5 cm**-1 <S**2> =   0.000000
   111a -> 124a  :     0.012224 
   115a -> 125a  :     0.017014 
   116a -> 119a  :     0.022189 
   116a -> 125a  :     0.081148 
   116a -> 138a  :     0.013249 
   117a -> 124a  :     0.107927 
   117a -> 125a  :     0.014853 
   117a -> 126a  :     0.258402 
   117a -> 128a  :     0.111721 
   117a -> 129a  :     0.074855 
   117a -> 130a  :     0.013992 
   117a -> 131a  :     0.010143 
   117a -> 134a  :     0.048818 
   117a -> 139a  :     0.021621 

STATE 30:  E=   0.255981 au      6.966 eV    56181.3 cm**-1 <S**2> =   0.000000
   111a -> 122a  :     0.024749 
   112a -> 119a  :     0.012864 
   112a -> 120a  :     0.077532 
   112a -> 121a  :     0.163398 
   112a -> 122a  :     0.057056 
   114a -> 121a  :     0.014193 
   115a -> 119a  :     0.049457 
   115a -> 127a  :     0.011145 
   115a -> 136a  :     0.019364 
   116a -> 119a  :     0.159013 
   116a -> 121a  :     0.032466 
   116a -> 122a  :     0.056532 
   116a -> 123a  :     0.097361 
   116a -> 127a  :     0.023015 
   116a -> 136a  :     0.016801 


-------------------------
TD-DFT-EXCITATION SPECTRA
-------------------------

Center of mass = ( -0.1247, -0.0222, -0.2555)
Calculating the Dipole integrals                  ... done
Transforming integrals                            ... done
Calculating the Linear Momentum integrals         ... done
Transforming integrals                            ... done
Calculating angular momentum integrals            ... done
Transforming integrals                            ... done

-----------------------------------------------------------------------------
         ABSORPTION SPECTRUM VIA TRANSITION ELECTRIC DIPOLE MOMENTS
-----------------------------------------------------------------------------
State   Energy    Wavelength  fosc         T2        TX        TY        TZ  
        (cm-1)      (nm)                 (au**2)    (au)      (au)      (au) 
-----------------------------------------------------------------------------
   1   21299.0    469.5   1.191291309  18.41344   4.25889  -0.41425  -0.32204
   2   29836.1    335.2   0.009802329   0.10816  -0.05023  -0.32098   0.05106
   3   35070.4    285.1   0.505649993   4.74663   0.33758   2.13861  -0.24293
   4   37645.3    265.6   0.006580936   0.05755  -0.17757   0.14586  -0.06887
   5   38655.3    258.7   0.159270600   1.35645   0.35663   1.08265  -0.23904
   6   40029.6    249.8   0.098293441   0.80839  -0.15463  -0.84869  -0.25338
   7   40976.9    244.0   0.190886545   1.53360  -0.03621  -1.11389   0.53994
   8   40678.4    245.8   0.068033904   0.55060   0.52380  -0.51227   0.11751
   9   44149.1    226.5   0.090866987   0.67758  -0.27326   0.06279  -0.77393
  10   43131.3    231.9   0.028789146   0.21974  -0.24209  -0.39573  -0.06735
  11   43681.6    228.9   0.100557213   0.75786  -0.59441   0.63163   0.07468
  12   43781.2    228.4   0.013443655   0.10109  -0.09085   0.23956  -0.18828
  13   46267.9    216.1   0.029217094   0.20789   0.38548  -0.23142   0.07573
  14   46650.9    214.4   0.995028743   7.02184   2.64356  -0.15379  -0.09893
  15   50185.5    199.3   0.352813674   2.31442   1.48316  -0.33535   0.04672
  16   50552.4    197.8   0.289125323   1.88287   0.29415  -0.20167   1.32502
  17   51558.1    194.0   0.535476332   3.41915  -0.03886   1.64403  -0.84547
  18   50733.8    197.1   0.225494513   1.46324  -0.36601  -1.14708  -0.11610
  19   51528.7    194.1   0.291862175   1.86468   0.58778   1.00206   0.71768
  20   52267.6    191.3   0.056218448   0.35410  -0.10779  -0.47153   0.34660
  21   54825.9    182.4   0.006914212   0.04152  -0.11067   0.12498  -0.11684
  22   51170.8    195.4   0.085712527   0.55144   0.71908  -0.05518   0.17697
  23   52255.9    191.4   0.013070225   0.08234   0.06066   0.28009   0.01452
  24   56630.9    176.6   0.064188526   0.37315   0.19337  -0.10764  -0.56936
  25   53546.0    186.8   0.000823262   0.00506   0.04001  -0.00487   0.05863
  26   54655.2    183.0   0.027290308   0.16438  -0.26210  -0.24834  -0.18442
  27   55378.5    180.6   0.008571813   0.05096  -0.08574   0.20879   0.00363
  28   56253.5    177.8   0.000865538   0.00507  -0.02162  -0.05097  -0.04472
  29   58229.5    171.7   0.004071504   0.02302   0.07217   0.13327  -0.00711
  30   56181.3    178.0   0.044579796   0.26123   0.10213  -0.49877   0.04505

-----------------------------------------------------------------------------
         ABSORPTION SPECTRUM VIA TRANSITION VELOCITY DIPOLE MOMENTS
-----------------------------------------------------------------------------
State   Energy    Wavelength   fosc        P2         PX        PY        PZ  
        (cm-1)      (nm)                 (au**2)     (au)      (au)      (au) 
-----------------------------------------------------------------------------
   1   21299.0    469.5   1.531175827   0.22289  -0.46857   0.04559   0.03545
   2   29836.1    335.2   0.011823656   0.00241   0.00752   0.04792  -0.00763
   3   35070.4    285.1   0.598613510   0.14348  -0.05875  -0.37180   0.04234
   4   37645.3    265.6   0.007648508   0.00197   0.03265  -0.02723   0.01267
   5   38655.3    258.7   0.191221761   0.05052  -0.06802  -0.20926   0.04583
   6   40029.6    249.8   0.113481001   0.03105   0.03074   0.16642   0.04906
   7   40976.9    244.0   0.218073489   0.06107   0.00715   0.22253  -0.10725
   8   40678.4    245.8   0.083813887   0.02330  -0.10749   0.10571  -0.02392
   9   44149.1    226.5   0.099756938   0.03010   0.05878  -0.01394   0.16264
  10   43131.3    231.9   0.034199280   0.01008   0.05184   0.08480   0.01425
  11   43681.6    228.9   0.123581438   0.03689   0.12973  -0.14059  -0.01730
  12   43781.2    228.4   0.016041417   0.00480   0.01925  -0.05162   0.04200
  13   46267.9    216.1   0.031011227   0.00981  -0.08342   0.05036  -0.01763
  14   46650.9    214.4   1.168775122   0.37265  -0.60903   0.03478   0.02268
  15   50185.5    199.3   0.391918937   0.13443  -0.35737   0.08118  -0.01116
  16   50552.4    197.8   0.328555215   0.11352  -0.07152   0.04982  -0.32545
  17   51558.1    194.0   0.603153883   0.21254   0.00996  -0.40965   0.21125
  18   50733.8    197.1   0.268728754   0.09318   0.09250   0.28948   0.02866
  19   51528.7    194.1   0.337995851   0.11903  -0.14850  -0.25343  -0.18098
  20   52267.6    191.3   0.061885656   0.02211   0.02650   0.11713  -0.08766
  21   54825.9    182.4   0.007319791   0.00274   0.02803  -0.03305   0.02941
  22   51170.8    195.4   0.106991552   0.03742  -0.18731   0.01434  -0.04611
  23   52255.9    191.4   0.016984855   0.00607  -0.01768  -0.07563  -0.00584
  24   56630.9    176.6   0.058157774   0.02251  -0.05162   0.02713   0.13824
  25   53546.0    186.8   0.000968765   0.00035  -0.00894   0.00020  -0.01657
  26   54655.2    183.0   0.032727105   0.01222   0.07095   0.06818   0.05041
  27   55378.5    180.6   0.010089852   0.00382   0.02393  -0.05696  -0.00109
  28   56253.5    177.8   0.001060175   0.00041   0.00586   0.01459   0.01266
  29   58229.5    171.7   0.004020603   0.00160  -0.01951  -0.03481   0.00273
  30   56181.3    178.0   0.052964141   0.02034  -0.02901   0.13916  -0.01140

-------------------------------------------------------------------
                             CD SPECTRUM
-------------------------------------------------------------------
State  Energy     Wavelength     R         MX        MY        MZ   
       (cm-1)       (nm)     (1e40*cgs)   (au)      (au)      (au)  
-------------------------------------------------------------------
   1   21299.0    469.5     18.46527  -0.04598  -0.19725  -0.47599
   2   29836.1    335.2      2.11982  -0.02109  -0.00981   0.00568
   3   35070.4    285.1     55.38500   0.17325   0.00762  -0.17576
   4   37645.3    265.6     21.40342  -0.05516  -0.07248  -0.67053
   5   38655.3    258.7     19.23324   0.10421   0.04181   0.17419
   6   40029.6    249.8     -6.53615  -0.24480   0.01015   0.17011
   7   40976.9    244.0    -49.10138   0.19718  -0.04195  -0.26621
   8   40678.4    245.8     46.90941   0.10450  -0.01265   0.32581
   9   44149.1    226.5    -62.58460  -0.51704   0.15094   0.36633
  10   43131.3    231.9     -1.57133  -0.09321   0.04063   0.14577
  11   43681.6    228.9    -67.23207   0.33895   0.08800   0.04401
  12   43781.2    228.4     10.24410  -0.28368  -0.02146  -0.00583
  13   46267.9    216.1     23.24451   0.14928   0.08387   0.14747
  14   46650.9    214.4    180.89557   0.13108  -0.17663  -0.10115
  15   50185.5    199.3     71.69019   0.07550  -0.16737  -0.34333
  16   50552.4    197.8    -239.50067   1.31403  -0.23361  -0.71066
  17   51558.1    194.0    -29.14330  -0.39991   0.02666   0.14333
  18   50733.8    197.1     23.39291  -0.48920   0.08504   0.27468
  19   51528.7    194.1    -17.07014   0.87136  -0.17042  -0.52615
  20   52267.6    191.3    -53.15436   0.32341  -0.03178  -0.26794
  21   54825.9    182.4     22.56921  -0.02230   0.30229  -0.06525
  22   51170.8    195.4    146.29561   0.22990   0.06841   0.84062
  23   52255.9    191.4     -8.50572   0.16262  -0.08577  -0.26734
  24   56630.9    176.6    -116.05942   0.26202   0.01214   0.51907
  25   53546.0    186.8     10.58136   0.15646  -0.03388   0.27324
  26   54655.2    183.0     17.54913  -0.17074   0.00605   0.03267
  27   55378.5    180.6      8.00846   0.00982   0.08449   0.05189
  28   56253.5    177.8     -0.27143  -0.02531   0.04957  -0.03138
  29   58229.5    171.7     16.16274  -0.00104   0.25360  -0.07894
  30   56181.3    178.0     12.52550  -0.10374  -0.07257   0.02147

Total run time:     9811.610 sec

           *** ORCA-CIS/TD-DFT FINISHED WITHOUT ERROR ***

Maximum memory used throughout the entire CIS-calculation: 7629.8 MB

-----------------------
CIS/TD-DFT TOTAL ENERGY
-----------------------

    E(SCF)  =  -1416.836337391 Eh
    DE(CIS) =      0.097045244 Eh (Root  1)
    ----------------------------- ---------
    E(tot)  =  -1416.739292147 Eh


-------------------------   --------------------
FINAL SINGLE POINT ENERGY     -1416.739292146663
-------------------------   --------------------


                            ***************************************
                            *     ORCA property calculations      *
                            ***************************************


  WARNING: The energy has been calculated at the MP2 level but the densities
           used in the property calculations are still SCF densities
           MP2 response densities have not been calculated 
           use %mp2 Density relaxed end
           or  %mp2 Density unrelaxed end

                                    ---------------------
                                    Active property flags
                                    ---------------------
   (+) Dipole Moment


------------------------------------------------------------------------------
                       ORCA ELECTRIC PROPERTIES CALCULATION
------------------------------------------------------------------------------

Dipole Moment Calculation                       ... on
Quadrupole Moment Calculation                   ... off
Polarizability Calculation                      ... off
GBWName                                         ... Rh_B_M06L_def2TZVP_coords.gbw
Electron density                                ... Rh_B_M06L_def2TZVP_coords.scfp
The origin for moment calculation is the CENTER OF MASS  = (-0.124706, -0.022221 -0.255464)

-------------
DIPOLE MOMENT
-------------
                                X             Y             Z
Electronic contribution:      4.34044      26.93160       0.87585
Nuclear contribution   :     -5.50816     -28.80400      -1.77419
                        -----------------------------------------
Total Dipole Moment    :     -1.16772      -1.87240      -0.89834
                        -----------------------------------------
Magnitude (a.u.)       :      2.38253
Magnitude (Debye)      :      6.05592



--------------------
Rotational spectrum 
--------------------
 
Rotational constants in cm-1:     0.004956     0.002893     0.002031 
Rotational constants in MHz :   148.564582    86.741091    60.886448 

 Dipole components along the rotational axes: 
x,y,z [a.u.] :    -1.094207     1.859993    -1.009755 
x,y,z [Debye]:    -2.781252     4.727726    -2.566592 

 

Timings for individual modules:

Sum of individual times         ...    11300.915 sec (= 188.349 min)
GTO integral calculation        ...        2.605 sec (=   0.043 min)   0.0 %
SCF iterations                  ...      667.049 sec (=  11.117 min)   5.9 %
MP2 module                      ...      817.838 sec (=  13.631 min)   7.2 %
CIS module                      ...     9813.423 sec (= 163.557 min)  86.8 %
                             ****ORCA TERMINATED NORMALLY****
TOTAL RUN TIME: 0 days 3 hours 8 minutes 26 seconds 495 msec
