
                                 *****************
                                 * O   R   C   A *
                                 *****************

                                            #,                                       
                                            ###                                      
                                            ####                                     
                                            #####                                    
                                            ######                                   
                                           ########,                                 
                                     ,,################,,,,,                         
                               ,,#################################,,                 
                          ,,##########################################,,             
                       ,#########################################, ''#####,          
                    ,#############################################,,   '####,        
                  ,##################################################,,,,####,       
                ,###########''''           ''''###############################       
              ,#####''   ,,,,##########,,,,          '''####'''          '####       
            ,##' ,,,,###########################,,,                        '##       
           ' ,,###''''                  '''############,,,                           
         ,,##''                                '''############,,,,        ,,,,,,###''
      ,#''                                            '''#######################'''  
     '                                                          ''''####''''         
             ,#######,   #######,   ,#######,      ##                                
            ,#'     '#,  ##    ##  ,#'     '#,    #''#        ######   ,####,        
            ##       ##  ##   ,#'  ##            #'  '#       #        #'  '#        
            ##       ##  #######   ##           ,######,      #####,   #    #        
            '#,     ,#'  ##    ##  '#,     ,#' ,#      #,         ##   #,  ,#        
             '#######'   ##     ##  '#######'  #'      '#     #####' # '####'        



                  #######################################################
                  #                        -***-                        #
                  #          Department of theory and spectroscopy      #
                  #    Directorship and core code : Frank Neese         #
                  #        Max Planck Institute fuer Kohlenforschung    #
                  #                Kaiser Wilhelm Platz 1               #
                  #                 D-45470 Muelheim/Ruhr               #
                  #                      Germany                        #
                  #                                                     #
                  #                  All rights reserved                #
                  #                        -***-                        #
                  #######################################################


                         Program Version 5.0.2 -  RELEASE  -


 With contributions from (in alphabetic order):
   Daniel Aravena         : Magnetic Suceptibility
   Michael Atanasov       : Ab Initio Ligand Field Theory (pilot matlab implementation)
   Alexander A. Auer      : GIAO ZORA, VPT2 properties, NMR spectrum
   Ute Becker             : Parallelization
   Giovanni Bistoni       : ED, misc. LED, open-shell LED, HFLD
   Martin Brehm           : Molecular dynamics
   Dmytro Bykov           : SCF Hessian
   Vijay G. Chilkuri      : MRCI spin determinant printing, contributions to CSF-ICE
   Dipayan Datta          : RHF DLPNO-CCSD density
   Achintya Kumar Dutta   : EOM-CC, STEOM-CC
   Dmitry Ganyushin       : Spin-Orbit,Spin-Spin,Magnetic field MRCI
   Miquel Garcia          : C-PCM and meta-GGA Hessian, CC/C-PCM, Gaussian charge scheme
   Yang Guo               : DLPNO-NEVPT2, F12-NEVPT2, CIM, IAO-localization
   Andreas Hansen         : Spin unrestricted coupled pair/coupled cluster methods
   Benjamin Helmich-Paris : MC-RPA, TRAH-SCF, COSX integrals
   Lee Huntington         : MR-EOM, pCC
   Robert Izsak           : Overlap fitted RIJCOSX, COSX-SCS-MP3, EOM
   Marcus Kettner         : VPT2
   Christian Kollmar      : KDIIS, OOCD, Brueckner-CCSD(T), CCSD density, CASPT2, CASPT2-K
   Simone Kossmann        : Meta GGA functionals, TD-DFT gradient, OOMP2, MP2 Hessian
   Martin Krupicka        : Initial AUTO-CI
   Lucas Lang             : DCDCAS
   Marvin Lechner         : AUTO-CI (C++ implementation), FIC-MRCC
   Dagmar Lenk            : GEPOL surface, SMD
   Dimitrios Liakos       : Extrapolation schemes; Compound Job, initial MDCI parallelization
   Dimitrios Manganas     : Further ROCIS development; embedding schemes
   Dimitrios Pantazis     : SARC Basis sets
   Anastasios Papadopoulos: AUTO-CI, single reference methods and gradients
   Taras Petrenko         : DFT Hessian,TD-DFT gradient, ASA, ECA, R-Raman, ABS, FL, XAS/XES, NRVS
   Peter Pinski           : DLPNO-MP2, DLPNO-MP2 Gradient
   Christoph Reimann      : Effective Core Potentials
   Marius Retegan         : Local ZFS, SOC
   Christoph Riplinger    : Optimizer, TS searches, QM/MM, DLPNO-CCSD(T), (RO)-DLPNO pert. Triples
   Tobias Risthaus        : Range-separated hybrids, TD-DFT gradient, RPA, STAB
   Michael Roemelt        : Original ROCIS implementation
   Masaaki Saitow         : Open-shell DLPNO-CCSD energy and density
   Barbara Sandhoefer     : DKH picture change effects
   Avijit Sen             : IP-ROCIS
   Kantharuban Sivalingam : CASSCF convergence, NEVPT2, FIC-MRCI
   Bernardo de Souza      : ESD, SOC TD-DFT
   Georgi Stoychev        : AutoAux, RI-MP2 NMR, DLPNO-MP2 response
   Willem Van den Heuvel  : Paramagnetic NMR
   Boris Wezisla          : Elementary symmetry handling
   Frank Wennmohs         : Technical directorship


 We gratefully acknowledge several colleagues who have allowed us to
 interface, adapt or use parts of their codes:
   Stefan Grimme, W. Hujo, H. Kruse, P. Pracht,  : VdW corrections, initial TS optimization,
                  C. Bannwarth, S. Ehlert          DFT functionals, gCP, sTDA/sTD-DF
   Ed Valeev, F. Pavosevic, A. Kumar             : LibInt (2-el integral package), F12 methods
   Garnet Chan, S. Sharma, J. Yang, R. Olivares  : DMRG
   Ulf Ekstrom                                   : XCFun DFT Library
   Mihaly Kallay                                 : mrcc  (arbitrary order and MRCC methods)
   Jiri Pittner, Ondrej Demel                    : Mk-CCSD
   Frank Weinhold                                : gennbo (NPA and NBO analysis)
   Christopher J. Cramer and Donald G. Truhlar   : smd solvation model
   Lars Goerigk                                  : TD-DFT with DH, B97 family of functionals
   V. Asgeirsson, H. Jonsson                     : NEB implementation
   FAccTs GmbH                                   : IRC, NEB, NEB-TS, DLPNO-Multilevel, CI-OPT
                                                   MM, QMMM, 2- and 3-layer-ONIOM, Crystal-QMMM,
                                                   LR-CPCM, SF, NACMEs, symmetry and pop. for TD-DFT,
                                                   nearIR, NL-DFT gradient (VV10), updates on ESD,
                                                   ML-optimized integration grids
   S Lehtola, MJT Oliveira, MAL Marques          : LibXC Library
   Liviu Ungur et al                             : ANISO software


 Your calculation uses the libint2 library for the computation of 2-el integrals
 For citations please refer to: http://libint.valeyev.net

 Your ORCA version has been built with support for libXC version: 5.1.0
 For citations please refer to: https://tddft.org/programs/libxc/

 This ORCA versions uses:
   CBLAS   interface :  Fast vector & matrix operations
   LAPACKE interface :  Fast linear algebra routines
   SCALAPACK package :  Parallel linear algebra routines
   Shared memory     :  Shared parallel matrices
   BLAS/LAPACK       :  OpenBLAS 0.3.15  USE64BITINT DYNAMIC_ARCH NO_AFFINITY Zen SINGLE_THREADED
        Core in use  :  Zen
   Copyright (c) 2011-2014, The OpenBLAS Project


Your calculation utilizes the SMD solvation module
Please cite in your paper:
A.V. Marenich, C.J. Cramer, D.G. Truhlar J. Phys. Chem. B, 113, (2009), 6378 

================================================================================

----- Orbital basis set information -----
Your calculation utilizes the basis: def2-TZVP
   F. Weigend and R. Ahlrichs, Phys. Chem. Chem. Phys. 7, 3297 (2005).

----- AuxJ basis set information -----
Your calculation utilizes the auxiliary basis: def2/J
   F. Weigend, Phys. Chem. Chem. Phys. 8, 1057 (2006).

----- AuxC basis set information -----
Your calculation utilizes the auxiliary basis: def2-TZVP/C
  H-La, Hf-Rn : A. Hellweg, C. Hattig, S. Hofener and W. Klopper, Theor. Chem. Acc. 117, 587 (2007).
        Ce-Lu : J. Chmela and M. E. Harding, Mol. Phys. (2018).

================================================================================
                                        WARNINGS
                       Please study these warnings very carefully!
================================================================================

INFO   : Checking CIS options ...
  ===> : (D) CORRECTION FOUND - SETTING MODE=3
  ===> : JK MODE FOUND - ACTIVATING RI-MP2 CODE
  ===> : MP2 AND CIS FOUND - CHECKING
WARNING: CIS(D) and MP2 runs must have the same orbital window
  ===> : adjusting orbital windows

WARNING: No MP2 level density has been requested!
         To caclulate MP2 level properties use
         %mp2 Density relaxed end
         or
         %mp2 Density unrelaxed end
         Otherwise for double-hybrid DFT only the energy is correct!

WARNING: The frozen-core approximation is turned on by default for 
         the MP2 part of double-hybrid DFT.

WARNING:  You are using a Range-Separated Double Hybrid functional with Doubles Correction 
          Changing Mode to RPA_AOINTS 


WARNING: CIS/ROCIS methods need fully converged wavefunctions
  ===> : Setting SCFConvForced true
         You can overwrite this default with %scf ConvForced false 


INFO   : the flag for use of the SHARK integral package has been found!

================================================================================
                                       INPUT FILE
================================================================================
NAME = PDI_2_M06L_def2TZVP_coords.inp
|  1> %maxcore 3200
|  2> %pal
|  3>  nprocs= 8
|  4> end
|  5> ! RI-wB2PLYP def2-TZVP def2/J def2-TZVP/C RIJCOSX CPCM TightSCF
|  6> %TDDFT DCORR 1
|  7>    NROOTS   30
|  8>    TDA      FALSE
|  9> END
| 10> 
| 11> %CPCM
| 12>    SMD          TRUE
| 13>    SMDsolvent   "DICHLOROMETHANE"
| 14> END
| 15>    
| 16> 
| 17> * xyz 0 1
| 18> C                   1.43137300    2.29418800    0.70438500
| 19> C                   0.70439600    1.22302400    0.17341900
| 20> C                   1.41160100   -0.00015500   -0.00126900
| 21> C                   2.82474200   -0.00027400   -0.00119400
| 22> C                   3.52149700    1.15730000    0.38105200
| 23> C                   2.82228800    2.26690200    0.79369700
| 24> C                   0.70405000   -1.22300200   -0.17559400
| 25> C                   3.52285500   -1.15758300   -0.38266900
| 26> H                   3.35673600    3.12398000    1.17950300
| 27> C                   2.82228800   -2.26663500   -0.79522700
| 28> C                   1.43137300   -2.29391200   -0.70639200
| 29> H                   3.35628000   -3.12414500   -1.18047800
| 30> C                  -0.70405000    1.22300200   -0.17559400
| 31> C                  -1.41160100    0.00015500   -0.00126900
| 32> C                  -1.43137300    2.29391200   -0.70639200
| 33> C                  -0.70439600   -1.22302400    0.17341900
| 34> C                  -2.82474200    0.00027400   -0.00119400
| 35> C                  -2.82228800    2.26663500   -0.79522700
| 36> C                  -1.43137300   -2.29418800    0.70438500
| 37> C                  -3.52149700   -1.15730000    0.38105200
| 38> C                  -3.52285500    1.15758300   -0.38266900
| 39> H                  -3.35628000    3.12414500   -1.18047800
| 40> C                  -2.82228800   -2.26690200    0.79369700
| 41> H                  -3.35673600   -3.12398000    1.17950300
| 42> C                   4.99064900    1.16612600    0.40310100
| 43> O                   5.64225000    2.13307100    0.75315200
| 44> C                   4.99419600   -1.17543900   -0.40560700
| 45> O                   5.62839400   -2.15226100   -0.75801100
| 46> N                   5.63329500   -0.00261900    0.00024400
| 47> C                  -4.99064900   -1.16612600    0.40310100
| 48> O                  -5.64225000   -2.13307100    0.75315200
| 49> C                  -4.99419600    1.17543900   -0.40560700
| 50> O                  -5.62839400    2.15226100   -0.75801100
| 51> N                  -5.63329500    0.00261900    0.00024400
| 52> C                   7.08797400    0.03123000    0.01520000
| 53> H                   7.45013100    0.82016800   -0.64041300
| 54> H                   7.45483800   -0.92943800   -0.32481800
| 55> H                   7.44679400    0.23066200    1.02272400
| 56> C                  -7.08797400   -0.03123000    0.01520000
| 57> H                  -7.45013100   -0.82016800   -0.64041300
| 58> H                  -7.45483800    0.92943800   -0.32481800
| 59> H                  -7.44679400   -0.23066200    1.02272400
| 60> Cl                 -0.64800500    3.66045300   -1.41777100
| 61> Cl                 -0.64757500   -3.66049400    1.41560800
| 62> Cl                  0.64800500   -3.66045300   -1.41777100
| 63> Cl                  0.64757500    3.66049400    1.41560800
| 64> *
| 65> 
| 66> 
| 67>                          ****END OF INPUT****
================================================================================

                       ****************************
                       * Single Point Calculation *
                       ****************************

---------------------------------
CARTESIAN COORDINATES (ANGSTROEM)
---------------------------------
  C      1.431373    2.294188    0.704385
  C      0.704396    1.223024    0.173419
  C      1.411601   -0.000155   -0.001269
  C      2.824742   -0.000274   -0.001194
  C      3.521497    1.157300    0.381052
  C      2.822288    2.266902    0.793697
  C      0.704050   -1.223002   -0.175594
  C      3.522855   -1.157583   -0.382669
  H      3.356736    3.123980    1.179503
  C      2.822288   -2.266635   -0.795227
  C      1.431373   -2.293912   -0.706392
  H      3.356280   -3.124145   -1.180478
  C     -0.704050    1.223002   -0.175594
  C     -1.411601    0.000155   -0.001269
  C     -1.431373    2.293912   -0.706392
  C     -0.704396   -1.223024    0.173419
  C     -2.824742    0.000274   -0.001194
  C     -2.822288    2.266635   -0.795227
  C     -1.431373   -2.294188    0.704385
  C     -3.521497   -1.157300    0.381052
  C     -3.522855    1.157583   -0.382669
  H     -3.356280    3.124145   -1.180478
  C     -2.822288   -2.266902    0.793697
  H     -3.356736   -3.123980    1.179503
  C      4.990649    1.166126    0.403101
  O      5.642250    2.133071    0.753152
  C      4.994196   -1.175439   -0.405607
  O      5.628394   -2.152261   -0.758011
  N      5.633295   -0.002619    0.000244
  C     -4.990649   -1.166126    0.403101
  O     -5.642250   -2.133071    0.753152
  C     -4.994196    1.175439   -0.405607
  O     -5.628394    2.152261   -0.758011
  N     -5.633295    0.002619    0.000244
  C      7.087974    0.031230    0.015200
  H      7.450131    0.820168   -0.640413
  H      7.454838   -0.929438   -0.324818
  H      7.446794    0.230662    1.022724
  C     -7.087974   -0.031230    0.015200
  H     -7.450131   -0.820168   -0.640413
  H     -7.454838    0.929438   -0.324818
  H     -7.446794   -0.230662    1.022724
  Cl    -0.648005    3.660453   -1.417771
  Cl    -0.647575   -3.660494    1.415608
  Cl     0.648005   -3.660453   -1.417771
  Cl     0.647575    3.660494    1.415608

----------------------------
CARTESIAN COORDINATES (A.U.)
----------------------------
  NO LB      ZA    FRAG     MASS         X           Y           Z
   0 C     6.0000    0    12.011    2.704903    4.335387    1.331095
   1 C     6.0000    0    12.011    1.331116    2.311180    0.327714
   2 C     6.0000    0    12.011    2.667539   -0.000293   -0.002398
   3 C     6.0000    0    12.011    5.337989   -0.000518   -0.002256
   4 C     6.0000    0    12.011    6.654665    2.186980    0.720084
   5 C     6.0000    0    12.011    5.333351    4.283824    1.499870
   6 C     6.0000    0    12.011    1.330462   -2.311139   -0.331825
   7 C     6.0000    0    12.011    6.657231   -2.187515   -0.723140
   8 H     1.0000    0     1.008    6.343312    5.903467    2.228938
   9 C     6.0000    0    12.011    5.333351   -4.283319   -1.502761
  10 C     6.0000    0    12.011    2.704903   -4.334865   -1.334887
  11 H     1.0000    0     1.008    6.342450   -5.903778   -2.230780
  12 C     6.0000    0    12.011   -1.330462    2.311139   -0.331825
  13 C     6.0000    0    12.011   -2.667539    0.000293   -0.002398
  14 C     6.0000    0    12.011   -2.704903    4.334865   -1.334887
  15 C     6.0000    0    12.011   -1.331116   -2.311180    0.327714
  16 C     6.0000    0    12.011   -5.337989    0.000518   -0.002256
  17 C     6.0000    0    12.011   -5.333351    4.283319   -1.502761
  18 C     6.0000    0    12.011   -2.704903   -4.335387    1.331095
  19 C     6.0000    0    12.011   -6.654665   -2.186980    0.720084
  20 C     6.0000    0    12.011   -6.657231    2.187515   -0.723140
  21 H     1.0000    0     1.008   -6.342450    5.903778   -2.230780
  22 C     6.0000    0    12.011   -5.333351   -4.283824    1.499870
  23 H     1.0000    0     1.008   -6.343312   -5.903467    2.228938
  24 C     6.0000    0    12.011    9.430960    2.203659    0.761750
  25 O     8.0000    0    15.999   10.662307    4.030920    1.423251
  26 C     6.0000    0    12.011    9.437663   -2.221258   -0.766486
  27 O     8.0000    0    15.999   10.636123   -4.067184   -1.432433
  28 N     7.0000    0    14.007   10.645385   -0.004949    0.000461
  29 C     6.0000    0    12.011   -9.430960   -2.203659    0.761750
  30 O     8.0000    0    15.999  -10.662307   -4.030920    1.423251
  31 C     6.0000    0    12.011   -9.437663    2.221258   -0.766486
  32 O     8.0000    0    15.999  -10.636123    4.067184   -1.432433
  33 N     7.0000    0    14.007  -10.645385    0.004949    0.000461
  34 C     6.0000    0    12.011   13.394330    0.059016    0.028724
  35 H     1.0000    0     1.008   14.078707    1.549893   -1.210205
  36 H     1.0000    0     1.008   14.087602   -1.756383   -0.613817
  37 H     1.0000    0     1.008   14.072401    0.435888    1.932668
  38 C     6.0000    0    12.011  -13.394330   -0.059016    0.028724
  39 H     1.0000    0     1.008  -14.078707   -1.549893   -1.210205
  40 H     1.0000    0     1.008  -14.087602    1.756383   -0.613817
  41 H     1.0000    0     1.008  -14.072401   -0.435888    1.932668
  42 Cl   17.0000    0    35.453   -1.224552    6.917254   -2.679199
  43 Cl   17.0000    0    35.453   -1.223739   -6.917331    2.675111
  44 Cl   17.0000    0    35.453    1.224552   -6.917254   -2.679199
  45 Cl   17.0000    0    35.453    1.223739    6.917331    2.675111

--------------------------------
INTERNAL COORDINATES (ANGSTROEM)
--------------------------------
 C      0   0   0     0.000000000000     0.00000000     0.00000000
 C      1   0   0     1.399218627156     0.00000000     0.00000000
 C      2   1   0     1.423664874684   116.50072863     0.00000000
 C      3   2   1     1.413141007001   119.78953565   342.61710070
 C      4   3   2     1.404121469110   119.74668930    10.14154515
 C      5   4   3     1.374912986378   119.64861850     2.11093847
 C      3   2   1     1.423507080641   120.40993659   162.59826545
 C      4   3   2     1.404367849915   119.81203447   190.11606347
 H      6   5   4     1.081232459938   119.69895282   174.03869147
 C      8   4   3     1.375134380181   119.52917717     2.13245416
 C     10   8   4     1.394015864034   120.33020283   353.42255944
 H     10   8   4     1.081151788217   119.66680254   174.05396540
 C      2   1   3     1.451044523634   126.55477647   177.89119413
 C     13   2   1     1.423507080641   116.93720806   213.14728424
 C     13   2   1     1.399140268605   126.57056251    35.26277139
 C     14  13   2     1.423664874684   120.40993659   344.52284371
 C     14  13   2     1.413141007001   119.80052509   164.50400639
 C     15  13   2     1.394015864034   121.86222349   191.12321192
 C     16  14  13     1.399218627156   116.50072863   162.59826545
 C     17  14  13     1.404121469110   119.74668930   190.16026460
 C     18  15  13     1.375134380181   120.33020283   358.61130361
 H     18  15  13     1.081151788217   119.99998169   177.97778841
 C     20  17  14     1.374912986378   119.64861850     2.11093847
 H     23  20  17     1.081232459938   119.69895282   174.03869147
 C      5   4   3     1.469343954213   120.34420757   179.18406572
 O     25   5   4     1.217416197866   122.97332458   181.59355806
 C      8   4   3     1.471628121117   120.74626937   179.26125250
 O     27   8   4     1.216789588262   122.36826871   181.58635009
 N     25   5   4     1.393288383211   116.85962994     1.51445734
 C     20  17  14     1.469343954213   120.34420757   179.18406572
 O     30  20  17     1.217416197866   122.97332458   181.59355806
 C     21  18  15     1.471628121117   119.66263679   176.26229661
 O     32  21  18     1.216789588262   122.36826871   358.71134409
 N     30  20  17     1.393288383211   116.85962994     1.51445734
 C     29  25   5     1.455149624533   116.01525424   179.35076410
 H     35  29  25     1.087846159281   110.08903667   300.72330104
 H     35  29  25     1.083090227564   108.34580011   180.44893049
 H     35  29  25     1.087947391007   110.08960806    60.15123995
 C     34  30  20     1.455149624533   116.01525424   179.35076410
 H     39  34  30     1.087846159281   110.08903667   300.72330104
 H     39  34  30     1.083090227564   108.34580011   180.44893049
 H     39  34  30     1.087947391007   110.08960806    60.15123995
 Cl    15  13   2     1.728340189241   121.71640215    16.75473925
 Cl    19  16  14     1.728285146082   121.71806762   198.85582211
 Cl    11  10   8     1.728340189241   116.19849414   173.27318285
 Cl     1   2   3     1.728285146082   121.71806762   198.85582211

---------------------------
INTERNAL COORDINATES (A.U.)
---------------------------
 C      0   0   0     0.000000000000     0.00000000     0.00000000
 C      1   0   0     2.644140006807     0.00000000     0.00000000
 C      2   1   0     2.690336719637   116.50072863     0.00000000
 C      3   2   1     2.670449491845   119.78953565   342.61710070
 C      4   3   2     2.653405035378   119.74668930    10.14154515
 C      5   4   3     2.598209002226   119.64861850     2.11093847
 C      3   2   1     2.690038532109   120.40993659   162.59826545
 C      4   3   2     2.653870627623   119.81203447   190.11606347
 H      6   5   4     2.043233236389   119.69895282   174.03869147
 C      8   4   3     2.598627375882   119.52917717     2.13245416
 C     10   8   4     2.634308209366   120.33020283   353.42255944
 H     10   8   4     2.043080788930   119.66680254   174.05396540
 C      2   1   3     2.742076757795   126.55477647   177.89119413
 C     13   2   1     2.690038532109   116.93720806   213.14728424
 C     13   2   1     2.643991930605   126.57056251    35.26277139
 C     14  13   2     2.690336719637   120.40993659   344.52284371
 C     14  13   2     2.670449491845   119.80052509   164.50400639
 C     15  13   2     2.634308209366   121.86222349   191.12321192
 C     16  14  13     2.644140006807   116.50072863   162.59826545
 C     17  14  13     2.653405035378   119.74668930   190.16026460
 C     18  15  13     2.598627375882   120.33020283   358.61130361
 H     18  15  13     2.043080788930   119.99998169   177.97778841
 C     20  17  14     2.598209002226   119.64861850     2.11093847
 H     23  20  17     2.043233236389   119.69895282   174.03869147
 C      5   4   3     2.776657669995   120.34420757   179.18406572
 O     25   5   4     2.300583204967   122.97332458   181.59355806
 C      8   4   3     2.780974119887   120.74626937   179.26125250
 O     27   8   4     2.299399084423   122.36826871   181.58635009
 N     25   5   4     2.632933469842   116.85962994     1.51445734
 C     20  17  14     2.776657669995   120.34420757   179.18406572
 O     30  20  17     2.300583204967   122.97332458   181.59355806
 C     21  18  15     2.780974119887   119.66263679   176.26229661
 O     32  21  18     2.299399084423   122.36826871   358.71134409
 N     30  20  17     2.632933469842   116.85962994     1.51445734
 C     29  25   5     2.749834274245   116.01525424   179.35076410
 H     35  29  25     2.055731316879   110.08903667   300.72330104
 H     35  29  25     2.046743908422   108.34580011   180.44893049
 H     35  29  25     2.055922617118   110.08960806    60.15123995
 C     34  30  20     2.749834274245   116.01525424   179.35076410
 H     39  34  30     2.055731316879   110.08903667   300.72330104
 H     39  34  30     2.046743908422   108.34580011   180.44893049
 H     39  34  30     2.055922617118   110.08960806    60.15123995
 Cl    15  13   2     3.266089623915   121.71640215    16.75473925
 Cl    19  16  14     3.265985607420   121.71806762   198.85582211
 Cl    11  10   8     3.266089623915   116.19849414   173.27318285
 Cl     1   2   3     3.265985607420   121.71806762   198.85582211

---------------------
BASIS SET INFORMATION
---------------------
There are 5 groups of distinct atoms

 Group   1 Type C   : 11s6p2d1f contracted to 5s3p2d1f pattern {62111/411/11/1}
 Group   2 Type H   : 5s1p contracted to 3s1p pattern {311/1}
 Group   3 Type O   : 11s6p2d1f contracted to 5s3p2d1f pattern {62111/411/11/1}
 Group   4 Type N   : 11s6p2d1f contracted to 5s3p2d1f pattern {62111/411/11/1}
 Group   5 Type Cl  : 14s9p3d1f contracted to 5s5p2d1f pattern {73211/51111/21/1}

Atom   0C    basis set group =>   1
Atom   1C    basis set group =>   1
Atom   2C    basis set group =>   1
Atom   3C    basis set group =>   1
Atom   4C    basis set group =>   1
Atom   5C    basis set group =>   1
Atom   6C    basis set group =>   1
Atom   7C    basis set group =>   1
Atom   8H    basis set group =>   2
Atom   9C    basis set group =>   1
Atom  10C    basis set group =>   1
Atom  11H    basis set group =>   2
Atom  12C    basis set group =>   1
Atom  13C    basis set group =>   1
Atom  14C    basis set group =>   1
Atom  15C    basis set group =>   1
Atom  16C    basis set group =>   1
Atom  17C    basis set group =>   1
Atom  18C    basis set group =>   1
Atom  19C    basis set group =>   1
Atom  20C    basis set group =>   1
Atom  21H    basis set group =>   2
Atom  22C    basis set group =>   1
Atom  23H    basis set group =>   2
Atom  24C    basis set group =>   1
Atom  25O    basis set group =>   3
Atom  26C    basis set group =>   1
Atom  27O    basis set group =>   3
Atom  28N    basis set group =>   4
Atom  29C    basis set group =>   1
Atom  30O    basis set group =>   3
Atom  31C    basis set group =>   1
Atom  32O    basis set group =>   3
Atom  33N    basis set group =>   4
Atom  34C    basis set group =>   1
Atom  35H    basis set group =>   2
Atom  36H    basis set group =>   2
Atom  37H    basis set group =>   2
Atom  38C    basis set group =>   1
Atom  39H    basis set group =>   2
Atom  40H    basis set group =>   2
Atom  41H    basis set group =>   2
Atom  42Cl   basis set group =>   5
Atom  43Cl   basis set group =>   5
Atom  44Cl   basis set group =>   5
Atom  45Cl   basis set group =>   5
---------------------------------
AUXILIARY/J BASIS SET INFORMATION
---------------------------------
There are 5 groups of distinct atoms

 Group   1 Type C   : 12s5p4d2f1g contracted to 6s4p3d1f1g pattern {711111/2111/211/2/1}
 Group   2 Type H   : 5s2p1d contracted to 3s1p1d pattern {311/2/1}
 Group   3 Type O   : 12s5p4d2f1g contracted to 6s4p3d1f1g pattern {711111/2111/211/2/1}
 Group   4 Type N   : 12s5p4d2f1g contracted to 6s4p3d1f1g pattern {711111/2111/211/2/1}
 Group   5 Type Cl  : 14s5p5d2f1g contracted to 8s4p3d1f1g pattern {71111111/2111/311/2/1}

Atom   0C    basis set group =>   1
Atom   1C    basis set group =>   1
Atom   2C    basis set group =>   1
Atom   3C    basis set group =>   1
Atom   4C    basis set group =>   1
Atom   5C    basis set group =>   1
Atom   6C    basis set group =>   1
Atom   7C    basis set group =>   1
Atom   8H    basis set group =>   2
Atom   9C    basis set group =>   1
Atom  10C    basis set group =>   1
Atom  11H    basis set group =>   2
Atom  12C    basis set group =>   1
Atom  13C    basis set group =>   1
Atom  14C    basis set group =>   1
Atom  15C    basis set group =>   1
Atom  16C    basis set group =>   1
Atom  17C    basis set group =>   1
Atom  18C    basis set group =>   1
Atom  19C    basis set group =>   1
Atom  20C    basis set group =>   1
Atom  21H    basis set group =>   2
Atom  22C    basis set group =>   1
Atom  23H    basis set group =>   2
Atom  24C    basis set group =>   1
Atom  25O    basis set group =>   3
Atom  26C    basis set group =>   1
Atom  27O    basis set group =>   3
Atom  28N    basis set group =>   4
Atom  29C    basis set group =>   1
Atom  30O    basis set group =>   3
Atom  31C    basis set group =>   1
Atom  32O    basis set group =>   3
Atom  33N    basis set group =>   4
Atom  34C    basis set group =>   1
Atom  35H    basis set group =>   2
Atom  36H    basis set group =>   2
Atom  37H    basis set group =>   2
Atom  38C    basis set group =>   1
Atom  39H    basis set group =>   2
Atom  40H    basis set group =>   2
Atom  41H    basis set group =>   2
Atom  42Cl   basis set group =>   5
Atom  43Cl   basis set group =>   5
Atom  44Cl   basis set group =>   5
Atom  45Cl   basis set group =>   5
---------------------------------
AUXILIARY/C BASIS SET INFORMATION
---------------------------------
There are 5 groups of distinct atoms

 Group   1 Type C   : 8s6p5d3f1g contracted to 8s6p4d3f1g pattern {11111111/111111/2111/111/1}
 Group   2 Type H   : 4s3p2d contracted to 4s2p1d pattern {1111/21/2}
 Group   3 Type O   : 8s6p5d3f1g contracted to 8s6p4d3f1g pattern {11111111/111111/2111/111/1}
 Group   4 Type N   : 8s6p5d3f1g contracted to 8s6p4d3f1g pattern {11111111/111111/2111/111/1}
 Group   5 Type Cl  : 10s7p7d5f2g contracted to 9s7p6d5f2g pattern {211111111/1111111/211111/11111/11}

Atom   0C    basis set group =>   1
Atom   1C    basis set group =>   1
Atom   2C    basis set group =>   1
Atom   3C    basis set group =>   1
Atom   4C    basis set group =>   1
Atom   5C    basis set group =>   1
Atom   6C    basis set group =>   1
Atom   7C    basis set group =>   1
Atom   8H    basis set group =>   2
Atom   9C    basis set group =>   1
Atom  10C    basis set group =>   1
Atom  11H    basis set group =>   2
Atom  12C    basis set group =>   1
Atom  13C    basis set group =>   1
Atom  14C    basis set group =>   1
Atom  15C    basis set group =>   1
Atom  16C    basis set group =>   1
Atom  17C    basis set group =>   1
Atom  18C    basis set group =>   1
Atom  19C    basis set group =>   1
Atom  20C    basis set group =>   1
Atom  21H    basis set group =>   2
Atom  22C    basis set group =>   1
Atom  23H    basis set group =>   2
Atom  24C    basis set group =>   1
Atom  25O    basis set group =>   3
Atom  26C    basis set group =>   1
Atom  27O    basis set group =>   3
Atom  28N    basis set group =>   4
Atom  29C    basis set group =>   1
Atom  30O    basis set group =>   3
Atom  31C    basis set group =>   1
Atom  32O    basis set group =>   3
Atom  33N    basis set group =>   4
Atom  34C    basis set group =>   1
Atom  35H    basis set group =>   2
Atom  36H    basis set group =>   2
Atom  37H    basis set group =>   2
Atom  38C    basis set group =>   1
Atom  39H    basis set group =>   2
Atom  40H    basis set group =>   2
Atom  41H    basis set group =>   2
Atom  42Cl   basis set group =>   5
Atom  43Cl   basis set group =>   5
Atom  44Cl   basis set group =>   5
Atom  45Cl   basis set group =>   5


           ************************************************************
           *        Program running with 8 parallel MPI-processes     *
           *              working on a common directory               *
           ************************************************************
------------------------------------------------------------------------------
                           ORCA GTO INTEGRAL CALCULATION
                           -- RI-GTO INTEGRALS CHOSEN --
------------------------------------------------------------------------------
------------------------------------------------------------------------------
                   ___                                                        
                  /   \      - P O W E R E D   B Y -                         
                 /     \                                                     
                 |  |  |   _    _      __       _____    __    __             
                 |  |  |  | |  | |    /  \     |  _  \  |  |  /  |          
                  \  \/   | |  | |   /    \    | | | |  |  | /  /          
                 / \  \   | |__| |  /  /\  \   | |_| |  |  |/  /          
                |  |  |   |  __  | /  /__\  \  |    /   |      \           
                |  |  |   | |  | | |   __   |  |    \   |  |\   \          
                \     /   | |  | | |  |  |  |  | |\  \  |  | \   \       
                 \___/    |_|  |_| |__|  |__|  |_| \__\ |__|  \__/        
                                                                              
                      - O R C A' S   B I G   F R I E N D -                    
                                      &                                       
                       - I N T E G R A L  F E E D E R -                       
                                                                              
 v1 FN, 2020, v2 2021                                                         
------------------------------------------------------------------------------


Reading SHARK input file PDI_2_M06L_def2TZVP_coords.SHARKINP.tmp ... ok
----------------------
SHARK INTEGRAL PACKAGE
----------------------

Number of atoms                             ...     46
Number of basis functions                   ...   1200
Number of shells                            ...    444
Maximum angular momentum                    ...      3
Integral batch strategy                     ... SHARK/LIBINT Hybrid
RI-J (if used) integral strategy            ... SPLIT-RIJ (Revised 2003 algorithm where possible)
Printlevel                                  ...      1
Contraction scheme used                     ... SEGMENTED contraction
Coulomb Range Separation                    ... NOT USED
Exchange Range Separation                   ... Long Range
   Mu parameter                             ...  0.300000
   Scaling (regular/separated)              ...  0.530000  0.470000
Finite Nucleus Model                        ... NOT USED
Auxiliary Coulomb fitting basis             ... AVAILABLE
   # of basis functions in Aux-J            ...   1882
   # of shells in Aux-J                     ...    598
   Maximum angular momentum in Aux-J        ...      4
Auxiliary J/K fitting basis                 ... NOT available
Auxiliary Correlation fitting basis         ... AVAILABLE
   # of basis functions in Aux-C            ...   3034
   # of shells in Aux-C                     ...    890
   Maximum angular momentum in Aux-C        ...      4
Auxiliary 'external' fitting basis          ... NOT available
Integral threshold                          ...     2.500000e-11
Primitive cut-off                           ...     2.500000e-12
Primitive pair pre-selection threshold      ...     2.500000e-12

Calculating pre-screening integrals         ... done (  0.1 sec) Dimension = 444
Organizing shell pair data                  ... done (  0.9 sec)
Shell pair information
Total number of shell pairs                 ...     98790
Shell pairs after pre-screening             ...     57916
Total number of primitive shell pairs       ...    327714
Primitive shell pairs kept                  ...    119920
          la=0 lb=0:  11835 shell pairs
          la=1 lb=0:  16396 shell pairs
          la=1 lb=1:   5573 shell pairs
          la=2 lb=0:   8388 shell pairs
          la=2 lb=1:   5830 shell pairs
          la=2 lb=2:   1507 shell pairs
          la=3 lb=0:   3894 shell pairs
          la=3 lb=1:   2748 shell pairs
          la=3 lb=2:   1394 shell pairs
          la=3 lb=3:    351 shell pairs

Calculating one electron integrals          ... done (  0.1 sec)
Calculating RI/J V-Matrix + Cholesky decomp.... done (  0.1 sec)
Calculating RI/C V-Matrix + Cholesky decomp.... done (  0.3 sec)
Calculating Nuclear repulsion               ... done (  0.0 sec) ENN=   4554.393209965006 Eh

SHARK setup successfully completed in   2.2 seconds

Maximum memory used throughout the entire GTOINT-calculation: 106.3 MB


           ************************************************************
           *        Program running with 8 parallel MPI-processes     *
           *              working on a common directory               *
           ************************************************************
-------------------------------------------------------------------------------
                                 ORCA SCF
-------------------------------------------------------------------------------

------------
SCF SETTINGS
------------
Hamiltonian:
 Density Functional     Method          .... DFT(GTOs)
 Exchange Functional    Exchange        .... WB88
 Correlation Functional Correlation     .... LYP
 LDA part of GGA corr.  LDAOpt          .... VWN-3
 Gradients option       PostSCFGGA      .... off
 Hybrid DFT is turned on
   Fraction HF Exchange ScalHFX         ....  0.530000
   Scaling of DF-GGA-X  ScalDFX         ....  0.000000
   Scaling of DF-GGA-C  ScalDFC         ....  0.730000
   Scaling of DF-LDA-C  ScalLDAC        ....  0.730000
   Perturbative correction              ....  0.270000
   Density functional embedding theory  .... OFF
 Long-range corrected/Screened/Range-Separated Hybrid DFT is turned on
   Amount of maximum screened exact exchange              ....  0.470000
   Range separation parameter mu (erf(mu*r12)/r12)        ....  0.300000
 RI-approximation to the Coulomb term is turned on
   Number of AuxJ basis functions       .... 1882
   RIJ-COSX (HFX calculated with COS-X)).... on


General Settings:
 Integral files         IntName         .... PDI_2_M06L_def2TZVP_coords
 Hartree-Fock type      HFTyp           .... RHF
 Total Charge           Charge          ....    0
 Multiplicity           Mult            ....    1
 Number of Electrons    NEL             ....  280
 Basis Dimension        Dim             .... 1200
 Nuclear Repulsion      ENuc            ....   4554.3932099650 Eh

Convergence Acceleration:
 DIIS                   CNVDIIS         .... on
   Start iteration      DIISMaxIt       ....    12
   Startup error        DIISStart       ....  0.200000
   # of expansion vecs  DIISMaxEq       ....     5
   Bias factor          DIISBfac        ....   1.050
   Max. coefficient     DIISMaxC        ....  10.000
 Trust-Rad. Augm. Hess. CNVTRAH         .... auto
   Auto Start mean grad. ratio tolernc. ....  1.125000
   Auto Start start iteration           ....    20
   Auto Start num. interpolation iter.  ....    10
   Max. Number of Micro iterations      ....    16
   Max. Number of Macro iterations      .... Maxiter - #DIIS iter
   Number of Davidson start vectors     ....     2
   Converg. threshold I  (grad. norm)   ....   1.000e-05
   Converg. threshold II (energy diff.) ....   1.000e-08
   Grad. Scal. Fac. for Micro threshold ....   0.100
   Minimum threshold for Micro iter.    ....   0.010
   NR start threshold (gradient norm)   ....   0.001
   Initial trust radius                 ....   0.400
   Minimum AH scaling param. (alpha)    ....   1.000
   Maximum AH scaling param. (alpha)    .... 1000.000
   Orbital update algorithm             .... Taylor
   White noise on init. David. guess    .... on
   Maximum white noise                  ....   0.010
   Quad. conv. algorithm                .... NR
 SOSCF                  CNVSOSCF        .... on
   Start iteration      SOSCFMaxIt      ....   150
   Startup grad/error   SOSCFStart      ....  0.003300
 Level Shifting         CNVShift        .... on
   Level shift para.    LevelShift      ....    0.2500
   Turn off err/grad.   ShiftErr        ....    0.0010
 Zerner damping         CNVZerner       .... off
 Static damping         CNVDamp         .... on
   Fraction old density DampFac         ....    0.7000
   Max. Damping (<1)    DampMax         ....    0.9800
   Min. Damping (>=0)   DampMin         ....    0.0000
   Turn off err/grad.   DampErr         ....    0.1000
 Fernandez-Rico         CNVRico         .... off

SCF Procedure:
 Maximum # iterations   MaxIter         ....   125
 SCF integral mode      SCFMode         .... Direct
   Integral package                     .... SHARK and LIBINT hybrid scheme
 Reset frequency        DirectResetFreq ....    20
 Integral Threshold     Thresh          ....  2.500e-11 Eh
 Primitive CutOff       TCut            ....  2.500e-12 Eh

Convergence Tolerance:
 Convergence Check Mode ConvCheckMode   .... Total+1el-Energy
 Convergence forced     ConvForced      .... 1
 Energy Change          TolE            ....  1.000e-08 Eh
 1-El. energy change                    ....  1.000e-05 Eh
 Orbital Gradient       TolG            ....  1.000e-05
 Orbital Rotation angle TolX            ....  1.000e-05
 DIIS Error             TolErr          ....  5.000e-07


Diagonalization of the overlap matrix:
Smallest eigenvalue                        ... 3.137e-06
Time for diagonalization                   ...    0.212 sec
Threshold for overlap eigenvalues          ... 1.000e-08
Number of eigenvalues below threshold      ... 0
Time for construction of square roots      ...    0.136 sec
Total time needed                          ...    0.352 sec

Time for model grid setup =    0.353 sec

------------------------------
INITIAL GUESS: MODEL POTENTIAL
------------------------------
Loading Hartree-Fock densities                     ... done
Calculating cut-offs                               ... done
Initializing the effective Hamiltonian             ... done
Setting up the integral package (SHARK)            ... done
Starting the Coulomb interaction                   ... done (   0.9 sec)
Reading the grid                                   ... done
Mapping shells                                     ... done
Starting the XC term evaluation                    ... done (   0.4 sec)
  promolecular density results
     # of electrons  =    280.005877614
     EX              =   -291.471119603
     EC              =     -3.577322058
     EX+EC           =   -295.048441661
Transforming the Hamiltonian                       ... done (   0.1 sec)
Diagonalizing the Hamiltonian                      ... done (   0.2 sec)
Back transforming the eigenvectors                 ... done (   0.0 sec)
Now organizing SCF variables                       ... done
                      ------------------
                      INITIAL GUESS DONE (   2.0 sec)
                      ------------------
-------------------
DFT GRID GENERATION
-------------------

General Integration Accuracy     IntAcc      ... 4.388
Radial Grid Type                 RadialGrid  ... OptM3 with GC (2021)
Angular Grid (max. ang.)         AngularGrid ... 4 (Lebedev-302)
Angular grid pruning method      GridPruning ... 4 (adaptive)
Weight generation scheme         WeightScheme... Becke
Basis function cutoff            BFCut       ... 1.0000e-11
Integration weight cutoff        WCut        ... 1.0000e-14
Angular grids for H and He will be reduced by one unit
Partially contracted basis set               ... off
Rotationally invariant grid construction     ... off

Total number of grid points                  ...   251010
Total number of batches                      ...     3942
Average number of points per batch           ...       63
Average number of grid points per atom       ...     5457
Time for grid setup =    1.540 sec

--------------------
COSX GRID GENERATION
--------------------

GRIDX 1
-------
General Integration Accuracy     IntAcc      ... 3.816
Radial Grid Type                 RadialGrid  ... OptM3 with GC (2021)
Angular Grid (max. ang.)         AngularGrid ... 1 (Lebedev-50)
Angular grid pruning method      GridPruning ... 4 (adaptive)
Weight generation scheme         WeightScheme... Becke
Basis function cutoff            BFCut       ... 1.0000e-11
Integration weight cutoff        WCut        ... 1.0000e-14
Angular grids for H and He will be reduced by one unit
Partially contracted basis set               ... on
Rotationally invariant grid construction     ... off

Total number of grid points                  ...    31430
Total number of batches                      ...      512
Average number of points per batch           ...       61
Average number of grid points per atom       ...      683
UseSFitting                                  ... on

GRIDX 2
-------
General Integration Accuracy     IntAcc      ... 4.020
Radial Grid Type                 RadialGrid  ... OptM3 with GC (2021)
Angular Grid (max. ang.)         AngularGrid ... 2 (Lebedev-110)
Angular grid pruning method      GridPruning ... 4 (adaptive)
Weight generation scheme         WeightScheme... Becke
Basis function cutoff            BFCut       ... 1.0000e-11
Integration weight cutoff        WCut        ... 1.0000e-14
Angular grids for H and He will be reduced by one unit
Partially contracted basis set               ... on
Rotationally invariant grid construction     ... off

Total number of grid points                  ...    70726
Total number of batches                      ...     1128
Average number of points per batch           ...       62
Average number of grid points per atom       ...     1538
UseSFitting                                  ... on

GRIDX 3
-------
General Integration Accuracy     IntAcc      ... 4.338
Radial Grid Type                 RadialGrid  ... OptM3 with GC (2021)
Angular Grid (max. ang.)         AngularGrid ... 3 (Lebedev-194)
Angular grid pruning method      GridPruning ... 4 (adaptive)
Weight generation scheme         WeightScheme... Becke
Basis function cutoff            BFCut       ... 1.0000e-11
Integration weight cutoff        WCut        ... 1.0000e-14
Angular grids for H and He will be reduced by one unit
Partially contracted basis set               ... on
Rotationally invariant grid construction     ... off

Total number of grid points                  ...   157466
Total number of batches                      ...     2484
Average number of points per batch           ...       63
Average number of grid points per atom       ...     3423
UseSFitting                                  ... on

Time for X-Grid setup             =    2.221 sec


--------------------
CPCM SOLVATION MODEL
--------------------
CPCM parameters:
  Epsilon                                         ...       8.9300
  Refrac                                          ...       1.4242
  Rsolv                                           ...       1.3000
  Surface type                                    ... GAUSSIAN VDW
  Epsilon function type                           ...         CPCM
Solvent:                                     ... DICHLOROMETHANE
SMD-CDS solvent descriptors:
  Soln                                       ...    1.4242
  Soln25                                     ...    1.4212
  Sola                                       ...    0.1000
  Solb                                       ...    0.0500
  Solg                                       ...   39.1500
  Solc                                       ...    0.0000
  Solh                                       ...    0.6670
Radii:
 Radius for C  used is    3.4960 Bohr (=   1.8500 Ang.)
 Radius for H  used is    2.2677 Bohr (=   1.2000 Ang.)
 Radius for O  used is    3.9949 Bohr (=   2.1140 Ang.)
 Radius for N  used is    3.5716 Bohr (=   1.8900 Ang.)
 Radius for Cl used is    4.4975 Bohr (=   2.3800 Ang.)
Calculating surface                               ...        done! (  0.0s)
GEPOL surface points                              ...         2218
GEPOL Volume                                      ...    3773.7853
GEPOL Surface-area                                ...    1765.6570
Calculating surface distance matrix               ...        done! (  0.0s)
Performing Cholesky decomposition & store         ...        done! (  0.1s)
Overall time for CPCM initialization              ...                 0.2s
--------------
SCF ITERATIONS
--------------
ITER       Energy         Delta-E        Max-DP      RMS-DP      [F,P]     Damp
               ***  Starting incremental Fock matrix formation  ***
  0  -3242.4881908651   0.000000000000 0.07928075  0.00103407  0.2903726 0.7000
  1  -3242.8148457097  -0.326654844560 0.07143773  0.00087104  0.1543480 0.7000
                               ***Turning on DIIS***
  2  -3242.9905541605  -0.175708450852 0.13069844  0.00185634  0.0703325 0.0000
  3  -3243.3166316055  -0.326077444960 0.09601628  0.00065580  0.0643713 0.0000
  4  -3243.3482100571  -0.031578451664 0.02912472  0.00025735  0.0109010 0.0000
  5  -3243.3509914944  -0.002781437275 0.01909400  0.00015958  0.0055488 0.0000
  6  -3243.3519499308  -0.000958436414 0.00925507  0.00008846  0.0013253 0.0000
                      *** Initiating the SOSCF procedure ***
                           *** Shutting down DIIS ***
                      *** Re-Reading the Fockian *** 
                      *** Removing any level shift *** 
ITER      Energy       Delta-E        Grad      Rot      Max-DP    RMS-DP
  7  -3243.35233452  -0.0003845883  0.002849  0.002849  0.005172  0.000070
               *** Restarting incremental Fock matrix formation ***
  8  -3243.35255276  -0.0002182422  0.000581  0.001872  0.020672  0.000261
  9  -3243.35256986  -0.0000170942  0.000308  0.002125  0.010226  0.000132
 10  -3243.35257594  -0.0000060801  0.000066  0.000152  0.008498  0.000107
 11  -3243.35257670  -0.0000007684  0.000025  0.000095  0.001521  0.000020
 12  -3243.35257677  -0.0000000634  0.000013  0.000032  0.000341  0.000005
 13  -3243.35257675   0.0000000137  0.000004  0.000019  0.000320  0.000005
                  ***Gradient check signals convergence***
              ***Rediagonalizing the Fockian in SOSCF/NRSCF***

               *****************************************************
               *                     SUCCESS                       *
               *           SCF CONVERGED AFTER  14 CYCLES          *
               *****************************************************

Old exchange energy                            =   -177.231561755 Eh
New exchange energy                            =   -177.231542378 Eh
Exchange energy change after final integration =      0.000019378 Eh
Total energy after final integration           =  -3243.352557419 Eh
Final COS-X integration done in                =    90.082 sec

SMD CDS free energy correction energy :               -11.10051     Kcal/mol
Total Energy after SMD CDS correction =             -3243.370247207 Eh

----------------
TOTAL SCF ENERGY
----------------

Total Energy       :        -3243.37024721 Eh          -88256.59130 eV

Components:
Nuclear Repulsion  :         4554.39320997 Eh          123931.33979 eV
Electronic Energy  :        -7797.76345717 Eh         -212187.93110 eV
One Electron Energy:       -13519.51262911 Eh         -367884.64153 eV
Two Electron Energy:         5721.74917194 Eh          155696.71044 eV
Max COSX asymmetry :            0.00000863 Eh               0.00023 eV
CPCM Dielectric    :           -0.02508950 Eh              -0.68272 eV
SMD CDS (Gcds)     :           -0.01768979 Eh              -0.48136 eV

Virial components:
Potential Energy   :        -6480.57336333 Eh         -176345.36644 eV
Kinetic Energy     :         3237.20311612 Eh           88088.77514 eV
Virial Ratio       :            2.00190508


DFT components:
N(Alpha)           :      139.999888982059 electrons
N(Beta)            :      139.999888982059 electrons
N(Total)           :      279.999777964118 electrons
E(X)               :     -116.464350904282 Eh       
E(C)               :       -7.521218968087 Eh       
E(XC)              :     -123.985569872369 Eh       
DFET-embed. en.    :        0.000000000000 Eh       
CPCM Solvation Model Properties:
Surface-charge          :           -0.02749817
Charge-correction       :            0.00023649 Eh               0.00644 eV
Free-energy (cav+disp)  :           -0.01768979 Eh              -0.48136 eV

---------------
SCF CONVERGENCE
---------------

  Last Energy change         ...   -4.3376e-08  Tolerance :   1.0000e-08
  Last MAX-Density change    ...    2.1372e-15  Tolerance :   1.0000e-07
  Last RMS-Density change    ...    1.4333e-17  Tolerance :   5.0000e-09
  Last Orbital Gradient      ...    1.7403e-06  Tolerance :   1.0000e-05
  Last Orbital Rotation      ...    9.9332e-06  Tolerance :   1.0000e-05

             **** THE GBW FILE WAS UPDATED (PDI_2_M06L_def2TZVP_coords.gbw) ****
             **** DENSITY PDI_2_M06L_def2TZVP_coords.scfp WAS UPDATED ****
             **** ENERGY FILE WAS UPDATED (PDI_2_M06L_def2TZVP_coords.en.tmp) ****
             **** THE GBW FILE WAS UPDATED (PDI_2_M06L_def2TZVP_coords.gbw) ****
             **** DENSITY PDI_2_M06L_def2TZVP_coords.scfp WAS UPDATED ****
----------------
ORBITAL ENERGIES
----------------

  NO   OCC          E(Eh)            E(eV) 
   0   2.0000    -103.001047     -2802.8010 
   1   2.0000    -103.001046     -2802.8010 
   2   2.0000    -103.001014     -2802.8001 
   3   2.0000    -103.001014     -2802.8001 
   4   2.0000     -19.792680      -538.5862 
   5   2.0000     -19.792680      -538.5862 
   6   2.0000     -19.792646      -538.5853 
   7   2.0000     -19.792646      -538.5853 
   8   2.0000     -14.972112      -407.4119 
   9   2.0000     -14.972111      -407.4119 
  10   2.0000     -10.832070      -294.7556 
  11   2.0000     -10.832070      -294.7556 
  12   2.0000     -10.829694      -294.6909 
  13   2.0000     -10.829693      -294.6909 
  14   2.0000     -10.783647      -293.4379 
  15   2.0000     -10.783645      -293.4379 
  16   2.0000     -10.783567      -293.4358 
  17   2.0000     -10.783565      -293.4357 
  18   2.0000     -10.752044      -292.5780 
  19   2.0000     -10.752043      -292.5780 
  20   2.0000     -10.751472      -292.5624 
  21   2.0000     -10.751439      -292.5615 
  22   2.0000     -10.742256      -292.3116 
  23   2.0000     -10.742247      -292.3114 
  24   2.0000     -10.736412      -292.1526 
  25   2.0000     -10.736411      -292.1526 
  26   2.0000     -10.730244      -291.9848 
  27   2.0000     -10.730242      -291.9847 
  28   2.0000     -10.729991      -291.9779 
  29   2.0000     -10.729988      -291.9778 
  30   2.0000     -10.727866      -291.9201 
  31   2.0000     -10.727865      -291.9201 
  32   2.0000     -10.727820      -291.9188 
  33   2.0000     -10.727819      -291.9188 
  34   2.0000     -10.708179      -291.3844 
  35   2.0000     -10.708179      -291.3844 
  36   2.0000     -10.012324      -272.4492 
  37   2.0000     -10.012324      -272.4492 
  38   2.0000     -10.012292      -272.4483 
  39   2.0000     -10.012291      -272.4483 
  40   2.0000      -7.651973      -208.2208 
  41   2.0000      -7.651973      -208.2208 
  42   2.0000      -7.651942      -208.2199 
  43   2.0000      -7.651942      -208.2199 
  44   2.0000      -7.646211      -208.0640 
  45   2.0000      -7.646211      -208.0640 
  46   2.0000      -7.646179      -208.0631 
  47   2.0000      -7.646178      -208.0631 
  48   2.0000      -7.646002      -208.0583 
  49   2.0000      -7.646002      -208.0583 
  50   2.0000      -7.645969      -208.0574 
  51   2.0000      -7.645968      -208.0574 
  52   2.0000      -1.307789       -35.5868 
  53   2.0000      -1.307786       -35.5867 
  54   2.0000      -1.286970       -35.0202 
  55   2.0000      -1.286969       -35.0202 
  56   2.0000      -1.172725       -31.9115 
  57   2.0000      -1.168894       -31.8072 
  58   2.0000      -1.163247       -31.6536 
  59   2.0000      -1.134979       -30.8844 
  60   2.0000      -1.131688       -30.7948 
  61   2.0000      -1.108490       -30.1635 
  62   2.0000      -1.087897       -29.6032 
  63   2.0000      -1.076382       -29.2898 
  64   2.0000      -1.065189       -28.9853 
  65   2.0000      -1.033864       -28.1329 
  66   2.0000      -1.027789       -27.9676 
  67   2.0000      -0.998840       -27.1798 
  68   2.0000      -0.993035       -27.0219 
  69   2.0000      -0.951620       -25.8949 
  70   2.0000      -0.947474       -25.7821 
  71   2.0000      -0.928650       -25.2699 
  72   2.0000      -0.922976       -25.1155 
  73   2.0000      -0.901384       -24.5279 
  74   2.0000      -0.887216       -24.1424 
  75   2.0000      -0.857579       -23.3359 
  76   2.0000      -0.845047       -22.9949 
  77   2.0000      -0.833335       -22.6762 
  78   2.0000      -0.817341       -22.2410 
  79   2.0000      -0.805047       -21.9064 
  80   2.0000      -0.794977       -21.6324 
  81   2.0000      -0.787919       -21.4404 
  82   2.0000      -0.742589       -20.2069 
  83   2.0000      -0.722469       -19.6594 
  84   2.0000      -0.716143       -19.4872 
  85   2.0000      -0.706770       -19.2322 
  86   2.0000      -0.705649       -19.2017 
  87   2.0000      -0.688674       -18.7398 
  88   2.0000      -0.667003       -18.1501 
  89   2.0000      -0.652645       -17.7594 
  90   2.0000      -0.645183       -17.5563 
  91   2.0000      -0.644226       -17.5303 
  92   2.0000      -0.643136       -17.5006 
  93   2.0000      -0.633687       -17.2435 
  94   2.0000      -0.629380       -17.1263 
  95   2.0000      -0.625640       -17.0245 
  96   2.0000      -0.623217       -16.9586 
  97   2.0000      -0.615877       -16.7589 
  98   2.0000      -0.611908       -16.6509 
  99   2.0000      -0.609962       -16.5979 
 100   2.0000      -0.598066       -16.2742 
 101   2.0000      -0.594303       -16.1718 
 102   2.0000      -0.585743       -15.9389 
 103   2.0000      -0.575814       -15.6687 
 104   2.0000      -0.568896       -15.4804 
 105   2.0000      -0.567717       -15.4484 
 106   2.0000      -0.566234       -15.4080 
 107   2.0000      -0.560000       -15.2384 
 108   2.0000      -0.557763       -15.1775 
 109   2.0000      -0.553467       -15.0606 
 110   2.0000      -0.549580       -14.9548 
 111   2.0000      -0.539603       -14.6833 
 112   2.0000      -0.536532       -14.5998 
 113   2.0000      -0.534967       -14.5572 
 114   2.0000      -0.532233       -14.4828 
 115   2.0000      -0.529222       -14.4009 
 116   2.0000      -0.528405       -14.3786 
 117   2.0000      -0.517108       -14.0712 
 118   2.0000      -0.513121       -13.9627 
 119   2.0000      -0.500048       -13.6070 
 120   2.0000      -0.498543       -13.5660 
 121   2.0000      -0.483961       -13.1693 
 122   2.0000      -0.462652       -12.5894 
 123   2.0000      -0.458092       -12.4653 
 124   2.0000      -0.453193       -12.3320 
 125   2.0000      -0.450661       -12.2631 
 126   2.0000      -0.441576       -12.0159 
 127   2.0000      -0.440983       -11.9997 
 128   2.0000      -0.440868       -11.9966 
 129   2.0000      -0.435327       -11.8459 
 130   2.0000      -0.423998       -11.5376 
 131   2.0000      -0.421903       -11.4806 
 132   2.0000      -0.421766       -11.4768 
 133   2.0000      -0.403756       -10.9868 
 134   2.0000      -0.401256       -10.9187 
 135   2.0000      -0.377729       -10.2785 
 136   2.0000      -0.372436       -10.1345 
 137   2.0000      -0.355467        -9.6727 
 138   2.0000      -0.347164        -9.4468 
 139   2.0000      -0.299264        -8.1434 
 140   0.0000      -0.061292        -1.6678 
 141   0.0000       0.005876         0.1599 
 142   0.0000       0.022224         0.6047 
 143   0.0000       0.045677         1.2429 
 144   0.0000       0.046611         1.2684 
 145   0.0000       0.085856         2.3363 
 146   0.0000       0.086375         2.3504 
 147   0.0000       0.107466         2.9243 
 148   0.0000       0.127659         3.4738 
 149   0.0000       0.127867         3.4794 
 150   0.0000       0.129771         3.5313 
 151   0.0000       0.137083         3.7302 
 152   0.0000       0.144645         3.9360 
 153   0.0000       0.145967         3.9720 
 154   0.0000       0.149903         4.0791 
 155   0.0000       0.157941         4.2978 
 156   0.0000       0.164290         4.4705 
 157   0.0000       0.168010         4.5718 
 158   0.0000       0.172196         4.6857 
 159   0.0000       0.174769         4.7557 
 160   0.0000       0.177604         4.8328 
 161   0.0000       0.178845         4.8666 
 162   0.0000       0.186767         5.0822 
 163   0.0000       0.197924         5.3858 
 164   0.0000       0.200863         5.4658 
 165   0.0000       0.201262         5.4766 
 166   0.0000       0.202382         5.5071 
 167   0.0000       0.204007         5.5513 
 168   0.0000       0.209081         5.6894 
 169   0.0000       0.214815         5.8454 
 170   0.0000       0.218623         5.9490 
 171   0.0000       0.230461         6.2712 
 172   0.0000       0.232228         6.3192 
 173   0.0000       0.237568         6.4646 
 174   0.0000       0.239250         6.5103 
 175   0.0000       0.244755         6.6601 
 176   0.0000       0.246086         6.6963 
 177   0.0000       0.252109         6.8602 
 178   0.0000       0.253667         6.9026 
 179   0.0000       0.264503         7.1975 
 180   0.0000       0.268628         7.3097 
 181   0.0000       0.272200         7.4069 
 182   0.0000       0.276680         7.5289 
 183   0.0000       0.282964         7.6998 
 184   0.0000       0.292223         7.9518 
 185   0.0000       0.293919         7.9979 
 186   0.0000       0.297078         8.0839 
 187   0.0000       0.300530         8.1778 
 188   0.0000       0.302964         8.2441 
 189   0.0000       0.304950         8.2981 
 190   0.0000       0.309080         8.4105 
 191   0.0000       0.310967         8.4618 
 192   0.0000       0.315759         8.5922 
 193   0.0000       0.317661         8.6440 
 194   0.0000       0.320521         8.7218 
 195   0.0000       0.325835         8.8664 
 196   0.0000       0.332639         9.0516 
 197   0.0000       0.333929         9.0867 
 198   0.0000       0.336238         9.1495 
 199   0.0000       0.339981         9.2513 
 200   0.0000       0.341379         9.2894 
 201   0.0000       0.343959         9.3596 
 202   0.0000       0.345971         9.4143 
 203   0.0000       0.351222         9.5572 
 204   0.0000       0.353652         9.6234 
 205   0.0000       0.353800         9.6274 
 206   0.0000       0.359171         9.7735 
 207   0.0000       0.364835         9.9277 
 208   0.0000       0.365067         9.9340 
 209   0.0000       0.368683        10.0324 
 210   0.0000       0.371644        10.1129 
 211   0.0000       0.374685        10.1957 
 212   0.0000       0.375997        10.2314 
 213   0.0000       0.377375        10.2689 
 214   0.0000       0.380001        10.3403 
 215   0.0000       0.388645        10.5756 
 216   0.0000       0.391327        10.6486 
 217   0.0000       0.393495        10.7076 
 218   0.0000       0.396999        10.8029 
 219   0.0000       0.397031        10.8038 
 220   0.0000       0.406830        11.0704 
 221   0.0000       0.407204        11.0806 
 222   0.0000       0.410256        11.1636 
 223   0.0000       0.412485        11.2243 
 224   0.0000       0.413170        11.2429 
 225   0.0000       0.417693        11.3660 
 226   0.0000       0.418180        11.3793 
 227   0.0000       0.428746        11.6668 
 228   0.0000       0.431766        11.7490 
 229   0.0000       0.433260        11.7896 
 230   0.0000       0.439395        11.9565 
 231   0.0000       0.443265        12.0619 
 232   0.0000       0.447518        12.1776 
 233   0.0000       0.448936        12.2162 
 234   0.0000       0.454692        12.3728 
 235   0.0000       0.459772        12.5110 
 236   0.0000       0.460515        12.5312 
 237   0.0000       0.461855        12.5677 
 238   0.0000       0.467225        12.7138 
 239   0.0000       0.470723        12.8090 
 240   0.0000       0.471339        12.8258 
 241   0.0000       0.472282        12.8514 
 242   0.0000       0.478225        13.0132 
 243   0.0000       0.480863        13.0850 
 244   0.0000       0.486675        13.2431 
 245   0.0000       0.489154        13.3106 
 246   0.0000       0.489642        13.3238 
 247   0.0000       0.490837        13.3564 
 248   0.0000       0.495915        13.4945 
 249   0.0000       0.500293        13.6137 
 250   0.0000       0.500475        13.6186 
 251   0.0000       0.504157        13.7188 
 252   0.0000       0.507255        13.8031 
 253   0.0000       0.510038        13.8788 
 254   0.0000       0.512792        13.9538 
 255   0.0000       0.516768        14.0620 
 256   0.0000       0.517711        14.0876 
 257   0.0000       0.521298        14.1852 
 258   0.0000       0.529400        14.4057 
 259   0.0000       0.530131        14.4256 
 260   0.0000       0.537098        14.6152 
 261   0.0000       0.540731        14.7140 
 262   0.0000       0.544184        14.8080 
 263   0.0000       0.551456        15.0059 
 264   0.0000       0.556810        15.1516 
 265   0.0000       0.557489        15.1701 
 266   0.0000       0.562911        15.3176 
 267   0.0000       0.564973        15.3737 
 268   0.0000       0.565747        15.3947 
 269   0.0000       0.575698        15.6655 
 270   0.0000       0.583086        15.8666 
 271   0.0000       0.587318        15.9817 
 272   0.0000       0.588729        16.0201 
 273   0.0000       0.592553        16.1242 
 274   0.0000       0.594370        16.1736 
 275   0.0000       0.598987        16.2993 
 276   0.0000       0.604553        16.4507 
 277   0.0000       0.605643        16.4804 
 278   0.0000       0.607748        16.5377 
 279   0.0000       0.608869        16.5682 
 280   0.0000       0.616764        16.7830 
 281   0.0000       0.619631        16.8610 
 282   0.0000       0.627795        17.0832 
 283   0.0000       0.630248        17.1499 
 284   0.0000       0.632880        17.2216 
 285   0.0000       0.637977        17.3602 
 286   0.0000       0.641909        17.4672 
 287   0.0000       0.642756        17.4903 
 288   0.0000       0.650051        17.6888 
 289   0.0000       0.652141        17.7457 
 290   0.0000       0.656883        17.8747 
 291   0.0000       0.657992        17.9049 
 292   0.0000       0.658811        17.9272 
 293   0.0000       0.662475        18.0269 
 294   0.0000       0.665695        18.1145 
 295   0.0000       0.670633        18.2489 
 296   0.0000       0.675272        18.3751 
 297   0.0000       0.677281        18.4298 
 298   0.0000       0.679720        18.4961 
 299   0.0000       0.680388        18.5143 
 300   0.0000       0.694817        18.9069 
 301   0.0000       0.695964        18.9381 
 302   0.0000       0.700686        19.0666 
 303   0.0000       0.702636        19.1197 
 304   0.0000       0.705202        19.1895 
 305   0.0000       0.708412        19.2769 
 306   0.0000       0.714321        19.4377 
 307   0.0000       0.715407        19.4672 
 308   0.0000       0.716424        19.4949 
 309   0.0000       0.719224        19.5711 
 310   0.0000       0.724653        19.7188 
 311   0.0000       0.726558        19.7706 
 312   0.0000       0.730156        19.8686 
 313   0.0000       0.730329        19.8733 
 314   0.0000       0.740815        20.1586 
 315   0.0000       0.741632        20.1808 
 316   0.0000       0.742904        20.2154 
 317   0.0000       0.747326        20.3358 
 318   0.0000       0.753158        20.4945 
 319   0.0000       0.758021        20.6268 
 320   0.0000       0.759342        20.6627 
 321   0.0000       0.762580        20.7508 
 322   0.0000       0.763016        20.7627 
 323   0.0000       0.764903        20.8141 
 324   0.0000       0.767976        20.8977 
 325   0.0000       0.769100        20.9283 
 326   0.0000       0.779099        21.2004 
 327   0.0000       0.782134        21.2829 
 328   0.0000       0.790150        21.5011 
 329   0.0000       0.793329        21.5876 
 330   0.0000       0.793441        21.5906 
 331   0.0000       0.797835        21.7102 
 332   0.0000       0.798901        21.7392 
 333   0.0000       0.811398        22.0793 
 334   0.0000       0.813031        22.1237 
 335   0.0000       0.819576        22.3018 
 336   0.0000       0.823024        22.3956 
 337   0.0000       0.827677        22.5222 
 338   0.0000       0.834157        22.6986 
 339   0.0000       0.834416        22.7056 
 340   0.0000       0.839758        22.8510 
 341   0.0000       0.839828        22.8529 
 342   0.0000       0.843836        22.9619 
 343   0.0000       0.853238        23.2178 
 344   0.0000       0.853297        23.2194 
 345   0.0000       0.855670        23.2840 
 346   0.0000       0.859873        23.3983 
 347   0.0000       0.862197        23.4616 
 348   0.0000       0.866804        23.5869 
 349   0.0000       0.875732        23.8299 
 350   0.0000       0.875926        23.8352 
 351   0.0000       0.881609        23.9898 
 352   0.0000       0.883194        24.0329 
 353   0.0000       0.885270        24.0894 
 354   0.0000       0.887474        24.1494 
 355   0.0000       0.892531        24.2870 
 356   0.0000       0.900552        24.5053 
 357   0.0000       0.902750        24.5651 
 358   0.0000       0.905791        24.6478 
 359   0.0000       0.911901        24.8141 
 360   0.0000       0.912940        24.8424 
 361   0.0000       0.920013        25.0348 
 362   0.0000       0.923172        25.1208 
 363   0.0000       0.925465        25.1832 
 364   0.0000       0.932807        25.3830 
 365   0.0000       0.933800        25.4100 
 366   0.0000       0.944435        25.6994 
 367   0.0000       0.953356        25.9421 
 368   0.0000       0.958431        26.0802 
 369   0.0000       0.959045        26.0969 
 370   0.0000       0.961274        26.1576 
 371   0.0000       0.965862        26.2824 
 372   0.0000       0.970351        26.4046 
 373   0.0000       0.971132        26.4258 
 374   0.0000       0.972671        26.4677 
 375   0.0000       0.976487        26.5716 
 376   0.0000       0.978156        26.6170 
 377   0.0000       0.980771        26.6881 
 378   0.0000       0.981814        26.7165 
 379   0.0000       0.991380        26.9768 
 380   0.0000       1.000040        27.2125 
 381   0.0000       1.004255        27.3272 
 382   0.0000       1.005763        27.3682 
 383   0.0000       1.009108        27.4592 
 384   0.0000       1.014791        27.6139 
 385   0.0000       1.022066        27.8118 
 386   0.0000       1.022305        27.8183 
 387   0.0000       1.029411        28.0117 
 388   0.0000       1.037603        28.2346 
 389   0.0000       1.042141        28.3581 
 390   0.0000       1.042922        28.3794 
 391   0.0000       1.046971        28.4895 
 392   0.0000       1.049668        28.5629 
 393   0.0000       1.053992        28.6806 
 394   0.0000       1.058321        28.7984 
 395   0.0000       1.068534        29.0763 
 396   0.0000       1.076410        29.2906 
 397   0.0000       1.077615        29.3234 
 398   0.0000       1.084183        29.5021 
 399   0.0000       1.095101        29.7992 
 400   0.0000       1.100362        29.9424 
 401   0.0000       1.102319        29.9956 
 402   0.0000       1.105940        30.0942 
 403   0.0000       1.107520        30.1372 
 404   0.0000       1.110210        30.2103 
 405   0.0000       1.114630        30.3306 
 406   0.0000       1.117588        30.4111 
 407   0.0000       1.125981        30.6395 
 408   0.0000       1.135544        30.8997 
 409   0.0000       1.137736        30.9594 
 410   0.0000       1.142776        31.0965 
 411   0.0000       1.145381        31.1674 
 412   0.0000       1.151508        31.3341 
 413   0.0000       1.168416        31.7942 
 414   0.0000       1.170379        31.8476 
 415   0.0000       1.179733        32.1022 
 416   0.0000       1.184237        32.2247 
 417   0.0000       1.188684        32.3457 
 418   0.0000       1.191536        32.4233 
 419   0.0000       1.198040        32.6003 
 420   0.0000       1.198333        32.6083 
 421   0.0000       1.214362        33.0445 
 422   0.0000       1.219020        33.1712 
 423   0.0000       1.229415        33.4541 
 424   0.0000       1.231147        33.5012 
 425   0.0000       1.243405        33.8348 
 426   0.0000       1.244610        33.8676 
 427   0.0000       1.251147        34.0454 
 428   0.0000       1.251869        34.0651 
 429   0.0000       1.256883        34.2015 
 430   0.0000       1.263170        34.3726 
 431   0.0000       1.282322        34.8937 
 432   0.0000       1.283429        34.9239 
 433   0.0000       1.287055        35.0226 
 434   0.0000       1.300732        35.3947 
 435   0.0000       1.307110        35.5683 
 436   0.0000       1.316067        35.8120 
 437   0.0000       1.319654        35.9096 
 438   0.0000       1.325377        36.0654 
 439   0.0000       1.330063        36.1928 
 440   0.0000       1.330662        36.2092 
 441   0.0000       1.338648        36.4265 
 442   0.0000       1.347950        36.6796 
 443   0.0000       1.372288        37.3419 
 444   0.0000       1.377044        37.4713 
 445   0.0000       1.378652        37.5150 
 446   0.0000       1.386031        37.7158 
 447   0.0000       1.388576        37.7851 
 448   0.0000       1.390545        37.8387 
 449   0.0000       1.397497        38.0278 
 450   0.0000       1.402714        38.1698 
 451   0.0000       1.405665        38.2501 
 452   0.0000       1.417093        38.5611 
 453   0.0000       1.418719        38.6053 
 454   0.0000       1.421340        38.6766 
 455   0.0000       1.424272        38.7564 
 456   0.0000       1.424853        38.7722 
 457   0.0000       1.436249        39.0823 
 458   0.0000       1.452672        39.5292 
 459   0.0000       1.455095        39.5951 
 460   0.0000       1.464158        39.8418 
 461   0.0000       1.465269        39.8720 
 462   0.0000       1.478848        40.2415 
 463   0.0000       1.485016        40.4093 
 464   0.0000       1.488693        40.5094 
 465   0.0000       1.502313        40.8800 
 466   0.0000       1.514351        41.2076 
 467   0.0000       1.517510        41.2935 
 468   0.0000       1.519012        41.3344 
 469   0.0000       1.523372        41.4531 
 470   0.0000       1.535498        41.7830 
 471   0.0000       1.541788        41.9542 
 472   0.0000       1.543401        41.9981 
 473   0.0000       1.544120        42.0176 
 474   0.0000       1.558614        42.4120 
 475   0.0000       1.567897        42.6647 
 476   0.0000       1.569818        42.7169 
 477   0.0000       1.574300        42.8389 
 478   0.0000       1.581661        43.0392 
 479   0.0000       1.584511        43.1167 
 480   0.0000       1.586413        43.1685 
 481   0.0000       1.590396        43.2769 
 482   0.0000       1.595834        43.4249 
 483   0.0000       1.597937        43.4821 
 484   0.0000       1.600020        43.5388 
 485   0.0000       1.605349        43.6838 
 486   0.0000       1.612913        43.8896 
 487   0.0000       1.615853        43.9696 
 488   0.0000       1.628382        44.3105 
 489   0.0000       1.628595        44.3163 
 490   0.0000       1.637821        44.5674 
 491   0.0000       1.648170        44.8490 
 492   0.0000       1.652672        44.9715 
 493   0.0000       1.665598        45.3232 
 494   0.0000       1.669885        45.4399 
 495   0.0000       1.670582        45.4588 
 496   0.0000       1.679318        45.6966 
 497   0.0000       1.680822        45.7375 
 498   0.0000       1.691946        46.0402 
 499   0.0000       1.694307        46.1044 
 500   0.0000       1.701059        46.2882 
 501   0.0000       1.706134        46.4263 
 502   0.0000       1.712246        46.5926 
 503   0.0000       1.714642        46.6578 
 504   0.0000       1.718600        46.7655 
 505   0.0000       1.719497        46.7899 
 506   0.0000       1.720087        46.8059 
 507   0.0000       1.720432        46.8153 
 508   0.0000       1.726404        46.9778 
 509   0.0000       1.736178        47.2438 
 510   0.0000       1.741259        47.3821 
 511   0.0000       1.748725        47.5852 
 512   0.0000       1.750336        47.6291 
 513   0.0000       1.752141        47.6782 
 514   0.0000       1.772251        48.2254 
 515   0.0000       1.773644        48.2633 
 516   0.0000       1.779764        48.4298 
 517   0.0000       1.790448        48.7206 
 518   0.0000       1.791852        48.7588 
 519   0.0000       1.794475        48.8301 
 520   0.0000       1.798161        48.9305 
 521   0.0000       1.813414        49.3455 
 522   0.0000       1.819136        49.5012 
 523   0.0000       1.819580        49.5133 
 524   0.0000       1.829663        49.7877 
 525   0.0000       1.839245        50.0484 
 526   0.0000       1.840115        50.0721 
 527   0.0000       1.842940        50.1489 
 528   0.0000       1.856255        50.5113 
 529   0.0000       1.873087        50.9693 
 530   0.0000       1.874354        51.0038 
 531   0.0000       1.874466        51.0068 
 532   0.0000       1.875377        51.0316 
 533   0.0000       1.882373        51.2220 
 534   0.0000       1.887305        51.3562 
 535   0.0000       1.894627        51.5554 
 536   0.0000       1.897986        51.6468 
 537   0.0000       1.900988        51.7285 
 538   0.0000       1.904970        51.8369 
 539   0.0000       1.906924        51.8900 
 540   0.0000       1.913048        52.0567 
 541   0.0000       1.920009        52.2461 
 542   0.0000       1.923580        52.3433 
 543   0.0000       1.937231        52.7147 
 544   0.0000       1.938079        52.7378 
 545   0.0000       1.942856        52.8678 
 546   0.0000       1.943499        52.8853 
 547   0.0000       1.948021        53.0083 
 548   0.0000       1.952969        53.1430 
 549   0.0000       1.960336        53.3434 
 550   0.0000       1.970602        53.6228 
 551   0.0000       1.974098        53.7179 
 552   0.0000       1.982512        53.9469 
 553   0.0000       1.983640        53.9776 
 554   0.0000       1.987624        54.0860 
 555   0.0000       1.998035        54.3693 
 556   0.0000       2.005501        54.5724 
 557   0.0000       2.011220        54.7281 
 558   0.0000       2.015465        54.8436 
 559   0.0000       2.020441        54.9790 
 560   0.0000       2.021003        54.9943 
 561   0.0000       2.032602        55.3099 
 562   0.0000       2.041579        55.5542 
 563   0.0000       2.043587        55.6088 
 564   0.0000       2.046711        55.6938 
 565   0.0000       2.049629        55.7732 
 566   0.0000       2.056264        55.9538 
 567   0.0000       2.060069        56.0573 
 568   0.0000       2.065361        56.2013 
[...]
   135a -> 140a  :     0.011476 
   136a -> 144a  :     0.087097 
   137a -> 140a  :     0.066129 
   139a -> 142a  :     0.049716 
   139a -> 143a  :     0.726184 

STATE 11:  E=   0.178289 au      4.851 eV    39129.9 cm**-1 <S**2> =   0.000000
   125a -> 140a  :     0.020571 
   126a -> 140a  :     0.013774 
   127a -> 141a  :     0.024513 
   129a -> 140a  :     0.036776 
   131a -> 142a  :     0.011272 
   132a -> 146a  :     0.010621 
   133a -> 141a  :     0.022489 
   134a -> 140a  :     0.076225 
   135a -> 141a  :     0.014131 
   136a -> 142a  :     0.022188 
   136a -> 143a  :     0.058929 
   138a -> 140a  :     0.077231 
   139a -> 144a  :     0.505635 
   139a -> 146a  :     0.024714 

STATE 12:  E=   0.175604 au      4.778 eV    38540.6 cm**-1 <S**2> =   0.000000
   122a -> 140a  :     0.014039 
   122a -> 145a  :     0.010510 
   126a -> 140a  :     0.087888 
   126a -> 145a  :     0.020372 
   127a -> 141a  :     0.160557 
   127a -> 147a  :     0.030557 
   129a -> 140a  :     0.235703 
   129a -> 145a  :     0.033996 
   131a -> 142a  :     0.073445 
   131a -> 157a  :     0.022099 
   132a -> 146a  :     0.070067 
   138a -> 140a  :     0.012159 
   139a -> 144a  :     0.079554 

STATE 13:  E=   0.175734 au      4.782 eV    38569.2 cm**-1 <S**2> =   0.000000
   122a -> 141a  :     0.019550 
   124a -> 140a  :     0.012444 
   126a -> 141a  :     0.067731 
   126a -> 147a  :     0.011922 
   127a -> 140a  :     0.334229 
   127a -> 145a  :     0.074759 
   129a -> 141a  :     0.115313 
   129a -> 147a  :     0.020580 
   130a -> 140a  :     0.020532 
   131a -> 146a  :     0.085221 
   132a -> 142a  :     0.087433 
   132a -> 157a  :     0.025562 

STATE 14:  E=   0.187423 au      5.100 eV    41134.7 cm**-1 <S**2> =   0.000000
   125a -> 140a  :     0.082361 
   133a -> 141a  :     0.032707 
   134a -> 140a  :     0.295423 
   134a -> 145a  :     0.020616 
   135a -> 141a  :     0.217616 
   136a -> 142a  :     0.035741 
   137a -> 141a  :     0.018776 
   138a -> 140a  :     0.038839 
   139a -> 144a  :     0.141206 
   139a -> 146a  :     0.048946 

STATE 15:  E=   0.190192 au      5.175 eV    41742.2 cm**-1 <S**2> =   0.000000
   124a -> 140a  :     0.013759 
   126a -> 141a  :     0.010341 
   130a -> 140a  :     0.203393 
   135a -> 144a  :     0.026393 
   137a -> 146a  :     0.058770 
   138a -> 142a  :     0.589053 

STATE 16:  E=   0.195753 au      5.327 eV    42962.8 cm**-1 <S**2> =   0.000000
   122a -> 140a  :     0.010757 
   126a -> 140a  :     0.123930 
   129a -> 140a  :     0.080249 
   130a -> 141a  :     0.016234 
   135a -> 142a  :     0.018511 
   136a -> 141a  :     0.078580 
   137a -> 142a  :     0.392152 
   137a -> 143a  :     0.060117 
   138a -> 144a  :     0.076778 
   138a -> 146a  :     0.047721 

STATE 17:  E=   0.183911 au      5.004 eV    40363.9 cm**-1 <S**2> =   0.000000
   133a -> 140a  :     0.634581 
   133a -> 145a  :     0.032400 
   134a -> 141a  :     0.193170 
   134a -> 147a  :     0.018416 
   135a -> 145a  :     0.014466 
   137a -> 140a  :     0.015142 
   138a -> 141a  :     0.029910 

STATE 18:  E=   0.201025 au      5.470 eV    44119.8 cm**-1 <S**2> =   0.000000
   125a -> 140a  :     0.103373 
   128a -> 140a  :     0.011782 
   133a -> 141a  :     0.110136 
   134a -> 140a  :     0.235911 
   134a -> 145a  :     0.013784 
   135a -> 141a  :     0.053405 
   136a -> 142a  :     0.171363 
   137a -> 141a  :     0.070946 
   138a -> 145a  :     0.016282 
   139a -> 146a  :     0.136557 

STATE 19:  E=   0.212990 au      5.796 eV    46745.9 cm**-1 <S**2> =   0.000000
   135a -> 142a  :     0.021306 
   135a -> 143a  :     0.037739 
   136a -> 141a  :     0.055235 
   137a -> 142a  :     0.180250 
   137a -> 143a  :     0.263958 
   138a -> 144a  :     0.290007 
   138a -> 146a  :     0.045219 
   139a -> 140a  :     0.029507 

STATE 20:  E=   0.207641 au      5.650 eV    45572.0 cm**-1 <S**2> =   0.000000
   125a -> 144a  :     0.019258 
   126a -> 140a  :     0.028170 
   129a -> 140a  :     0.040276 
   135a -> 142a  :     0.069635 
   135a -> 143a  :     0.073226 
   136a -> 141a  :     0.241082 
   137a -> 142a  :     0.043863 
   137a -> 143a  :     0.045320 
   138a -> 144a  :     0.035113 
   139a -> 145a  :     0.306535 

STATE 21:  E=   0.217413 au      5.916 eV    47716.6 cm**-1 <S**2> =   0.000000
   136a -> 140a  :     0.052489 
   137a -> 144a  :     0.367579 
   138a -> 143a  :     0.474486 
   139a -> 147a  :     0.021180 

STATE 22:  E=   0.200335 au      5.451 eV    43968.6 cm**-1 <S**2> =   0.000000
   133a -> 140a  :     0.029999 
   134a -> 141a  :     0.011739 
   137a -> 140a  :     0.098875 
   137a -> 145a  :     0.016183 
   138a -> 141a  :     0.762604 
   138a -> 147a  :     0.016882 
   139a -> 143a  :     0.019812 

STATE 23:  E=   0.205737 au      5.598 eV    45154.1 cm**-1 <S**2> =   0.000000
   128a -> 140a  :     0.096896 
   134a -> 140a  :     0.030864 
   135a -> 141a  :     0.014360 
   136a -> 142a  :     0.033497 
   137a -> 141a  :     0.506422 
   137a -> 147a  :     0.015653 
   138a -> 140a  :     0.042720 
   138a -> 145a  :     0.011398 
   139a -> 144a  :     0.030856 
   139a -> 146a  :     0.129775 

STATE 24:  E=   0.209936 au      5.713 eV    46075.7 cm**-1 <S**2> =   0.000000
   124a -> 140a  :     0.054296 
   128a -> 142a  :     0.051860 
   129a -> 141a  :     0.010062 
   130a -> 140a  :     0.567802 
   135a -> 144a  :     0.011054 
   137a -> 146a  :     0.014895 
   138a -> 142a  :     0.141426 
   139a -> 141a  :     0.010650 
   139a -> 147a  :     0.023192 

STATE 25:  E=   0.211023 au      5.742 eV    46314.3 cm**-1 <S**2> =   0.000000
   120a -> 140a  :     0.042926 
   124a -> 142a  :     0.024359 
   125a -> 140a  :     0.020964 
   128a -> 140a  :     0.530462 
   128a -> 145a  :     0.019197 
   130a -> 142a  :     0.022229 
   132a -> 140a  :     0.024237 
   136a -> 142a  :     0.017902 
   137a -> 141a  :     0.165389 

STATE 26:  E=   0.211826 au      5.764 eV    46490.3 cm**-1 <S**2> =   0.000000
   125a -> 140a  :     0.052759 
   128a -> 140a  :     0.053048 
   133a -> 141a  :     0.052388 
   134a -> 140a  :     0.031131 
   135a -> 141a  :     0.346166 
   135a -> 147a  :     0.016318 
   136a -> 142a  :     0.295077 
   137a -> 141a  :     0.010455 
   139a -> 144a  :     0.025742 
   139a -> 146a  :     0.050275 

STATE 27:  E=   0.221609 au      6.030 eV    48637.7 cm**-1 <S**2> =   0.000000
   125a -> 146a  :     0.024466 
   133a -> 142a  :     0.012209 
   135a -> 142a  :     0.634496 
   136a -> 141a  :     0.104094 
   137a -> 143a  :     0.049486 
   138a -> 144a  :     0.080718 
   139a -> 150a  :     0.013017 

STATE 28:  E=   0.222649 au      6.059 eV    48865.7 cm**-1 <S**2> =   0.000000
   117a -> 140a  :     0.077116 
   122a -> 140a  :     0.340838 
   123a -> 142a  :     0.041876 
   126a -> 140a  :     0.029633 
   126a -> 145a  :     0.010929 
   129a -> 140a  :     0.142356 
   129a -> 145a  :     0.011363 
   135a -> 143a  :     0.019605 
   136a -> 147a  :     0.011188 
   137a -> 142a  :     0.014469 
   137a -> 151a  :     0.010393 
   138a -> 144a  :     0.010175 
   139a -> 145a  :     0.078420 
   139a -> 150a  :     0.029735 

STATE 29:  E=   0.230120 au      6.262 eV    50505.4 cm**-1 <S**2> =   0.000000
   121a -> 142a  :     0.010954 
   124a -> 140a  :     0.335615 
   125a -> 143a  :     0.010060 
   126a -> 141a  :     0.022306 
   127a -> 140a  :     0.017382 
   128a -> 142a  :     0.028997 
   129a -> 141a  :     0.011712 
   135a -> 144a  :     0.041418 
   136a -> 145a  :     0.056470 
   137a -> 153a  :     0.018727 
   138a -> 151a  :     0.017343 
   139a -> 147a  :     0.281233 
   139a -> 152a  :     0.012234 

STATE 30:  E=   0.223266 au      6.075 eV    49001.2 cm**-1 <S**2> =   0.000000
   118a -> 141a  :     0.019444 
   120a -> 140a  :     0.060038 
   121a -> 140a  :     0.018566 
   124a -> 142a  :     0.016031 
   125a -> 140a  :     0.433242 
   128a -> 140a  :     0.046800 
   135a -> 141a  :     0.083592 
   136a -> 142a  :     0.035198 
   137a -> 141a  :     0.013194 
   139a -> 146a  :     0.165621 


-------------------------
TD-DFT-EXCITATION SPECTRA
-------------------------

Center of mass = (  0.0000,  0.0000, -0.0004)
Calculating the Dipole integrals                  ... done
Transforming integrals                            ... done
Calculating the Linear Momentum integrals         ... done
Transforming integrals                            ... done
Calculating angular momentum integrals            ... done
Transforming integrals                            ... done

-----------------------------------------------------------------------------
         ABSORPTION SPECTRUM VIA TRANSITION ELECTRIC DIPOLE MOMENTS
-----------------------------------------------------------------------------
State   Energy    Wavelength  fosc         T2        TX        TY        TZ  
        (cm-1)      (nm)                 (au**2)    (au)      (au)      (au) 
-----------------------------------------------------------------------------
   1   21394.2    467.4   0.808374653  12.43918  -3.52692   0.00080  -0.00001
   2   27652.8    361.6   0.251163353   2.99015  -0.00134   1.72920   0.00021
   3   28434.0    351.7   0.030176667   0.34939  -0.00006  -0.00056   0.59109
   4   32134.6    311.2   0.022835982   0.23395  -0.00000  -0.00006   0.48368
   5   32648.4    306.3   0.000026382   0.00027   0.00002  -0.00000   0.01631
   6   35087.6    285.0   0.000003340   0.00003   0.00005   0.00000  -0.00560
   7   35263.0    283.6   0.000225608   0.00211  -0.00004  -0.00005  -0.04589
   8   35396.8    282.5   0.000049946   0.00046  -0.00384   0.02121   0.00001
   9   35732.3    279.9   0.000051177   0.00047   0.00000  -0.00002  -0.02171
  10   38807.8    257.7   0.094865066   0.80475   0.00005  -0.00009  -0.89708
  11   39129.9    255.6   0.425697257   3.58152   0.07165   1.89113  -0.00001
  12   38540.6    259.5   0.071059582   0.60699   0.17051  -0.76021   0.00007
  13   38569.2    259.3   0.000000520   0.00000  -0.00009  -0.00006  -0.00210
  14   41134.7    243.1   0.684086799   5.47493  -0.03848   2.33954   0.00001
  15   41742.2    239.6   0.000079108   0.00062  -0.00028  -0.00026   0.02498
  16   42962.8    232.8   0.019796028   0.15169  -0.38258  -0.07296  -0.00006
  17   40363.9    247.7   0.066212229   0.54003  -0.00000   0.00001  -0.73487
  18   44119.8    226.7   0.119070762   0.88848  -0.04381   0.94157  -0.00001
  19   46745.9    213.9   0.455073514   3.20490   1.79017   0.01407  -0.00000
  20   45572.0    219.4   0.170191977   1.22947  -1.10848  -0.02739  -0.00001
  21   47716.6    209.6   0.000010767   0.00007   0.00025   0.00006  -0.00862
  22   43968.6    227.4   0.029667339   0.22213   0.00005   0.00033   0.47131
  23   45154.1    221.5   0.381028999   2.77803  -0.02710  -1.66652   0.00008
  24   46075.7    217.0   0.000009958   0.00007   0.00005   0.00056   0.00842
  25   46314.3    215.9   0.136830955   0.97262   0.02130  -0.98599   0.00002
  26   46490.3    215.1   0.006640213   0.04702  -0.10922   0.18733   0.00001
  27   48637.7    205.6   1.512750620  10.23930  -3.19984  -0.01857  -0.00001
  28   48865.7    204.6   0.000949561   0.00640   0.07974   0.00624  -0.00000
  29   50505.4    198.0   0.000002043   0.00001  -0.00009  -0.00008  -0.00365
  30   49001.2    204.1   0.005483270   0.03684   0.02933   0.18968  -0.00000

-----------------------------------------------------------------------------
         ABSORPTION SPECTRUM VIA TRANSITION VELOCITY DIPOLE MOMENTS
-----------------------------------------------------------------------------
State   Energy    Wavelength   fosc        P2         PX        PY        PZ  
        (cm-1)      (nm)                 (au**2)     (au)      (au)      (au) 
-----------------------------------------------------------------------------
   1   21394.2    467.4   0.889892086   0.13012   0.36072  -0.00010  -0.00000
   2   27652.8    361.6   0.302827665   0.05723   0.00029  -0.23923  -0.00003
   3   28434.0    351.7   0.035322034   0.00686   0.00001   0.00007  -0.08285
   4   32134.6    311.2   0.024420262   0.00536   0.00000   0.00001  -0.07323
   5   32648.4    306.3   0.000028837   0.00001  -0.00000   0.00000  -0.00254
   6   35087.6    285.0   0.000004886   0.00000  -0.00001  -0.00000   0.00108
   7   35263.0    283.6   0.000377741   0.00009   0.00000   0.00001   0.00954
   8   35396.8    282.5   0.000066317   0.00002   0.00071  -0.00394   0.00000
   9   35732.3    279.9   0.000074712   0.00002  -0.00000   0.00000   0.00427
  10   38807.8    257.7   0.109922372   0.02915  -0.00001   0.00002   0.17075
  11   39129.9    255.6   0.514992626   0.13773  -0.01348  -0.37087   0.00000
  12   38540.6    259.5   0.088422356   0.02329  -0.03314   0.14897  -0.00001
  13   38569.2    259.3   0.000002850   0.00000   0.00002   0.00001   0.00087
  14   41134.7    243.1   0.808902074   0.22741   0.00725  -0.47682  -0.00000
  15   41742.2    239.6   0.000091587   0.00003   0.00006   0.00005  -0.00511
  16   42962.8    232.8   0.021931432   0.00644   0.07884   0.01497   0.00001
  17   40363.9    247.7   0.085322537   0.02354  -0.00000  -0.00000   0.15342
  18   44119.8    226.7   0.131172126   0.03955   0.00883  -0.19868   0.00000
  19   46745.9    213.9   0.494039123   0.15784  -0.39728  -0.00298   0.00000
  20   45572.0    219.4   0.202774631   0.06316   0.25124   0.00573   0.00000
  21   47716.6    209.6   0.000011091   0.00000  -0.00005  -0.00001   0.00190
  22   43968.6    227.4   0.038119545   0.01146  -0.00001  -0.00007  -0.10703
  23   45154.1    221.5   0.465599317   0.14369   0.00662   0.37900  -0.00002
  24   46075.7    217.0   0.000013510   0.00000  -0.00001  -0.00013  -0.00206
  25   46314.3    215.9   0.168897556   0.05346  -0.00501   0.23116  -0.00000
  26   46490.3    215.1   0.007793829   0.00248   0.02602  -0.04242  -0.00000
  27   48637.7    205.6   1.772960560   0.58936   0.76768   0.00483   0.00000
  28   48865.7    204.6   0.001181169   0.00039  -0.01981  -0.00148   0.00000
  29   50505.4    198.0   0.000001727   0.00000   0.00002   0.00002   0.00077
  30   49001.2    204.1   0.006922623   0.00232  -0.00711  -0.04762   0.00000

-------------------------------------------------------------------
                             CD SPECTRUM
-------------------------------------------------------------------
State  Energy     Wavelength     R         MX        MY        MZ   
       (cm-1)       (nm)     (1e40*cgs)   (au)      (au)      (au)  
-------------------------------------------------------------------
   1   21394.2    467.4    138.23835  -0.08314   0.00066  -0.00002
   2   27652.8    361.6    -144.81398  -0.00002  -0.17763   0.00022
   3   28434.0    351.7    212.02377   0.00000   0.00006   0.76084
   4   32134.6    311.2    -241.90951  -0.00001   0.00001  -1.06085
   5   32648.4    306.3     -0.11981   0.00000   0.00001  -0.01558
   6   35087.6    285.0      0.05826   0.00002  -0.00005  -0.02208
   7   35263.0    283.6      4.05424  -0.00000  -0.00009  -0.18738
   8   35396.8    282.5     -4.91392  -0.03073  -0.49702   0.00009
   9   35732.3    279.9     -0.34525   0.00000   0.00010   0.03372
  10   38807.8    257.7    608.24459   0.00003   0.00001  -1.43817
  11   39129.9    255.6    -121.06459   0.12725  -0.14061  -0.00002
  12   38540.6    259.5      9.68028   0.32704   0.04634   0.00010
  13   38569.2    259.3      0.00750  -0.00015  -0.00001  -0.00755
  14   41134.7    243.1    -896.03243   0.01015  -0.81221   0.00001
  15   41742.2    239.6      0.77131   0.00011   0.00012   0.06551
  16   42962.8    232.8    -26.45537   0.13979   0.03610  -0.00017
  17   40363.9    247.7    689.23585  -0.00002  -0.00002  -1.98940
  18   44119.8    226.7    -93.61611  -0.00371  -0.21106   0.00000
  19   46745.9    213.9     98.56126   0.11682  -0.00468  -0.00001
  20   45572.0    219.4      6.12405  -0.01209   0.01521  -0.00001
  21   47716.6    209.6      0.10548   0.00001  -0.00000  -0.02597
  22   43968.6    227.4    154.47420  -0.00001  -0.00005   0.69521
  23   45154.1    221.5    -105.29182  -0.00014   0.13402   0.00014
  24   46075.7    217.0      0.10509  -0.00000  -0.00024   0.02650
  25   46314.3    215.9    -201.29528  -0.00256   0.43298   0.00004
  26   46490.3    215.1     -4.17831  -0.00128  -0.04806  -0.00001
  27   48637.7    205.6     16.92635  -0.01131   0.01527   0.00000
  28   48865.7    204.6     -7.08722  -0.18818  -0.00439  -0.00000
  29   50505.4    198.0      0.02708  -0.00003  -0.00002  -0.01575
  30   49001.2    204.1      5.72523  -0.00040   0.06408   0.00001

Total run time:     9809.971 sec

           *** ORCA-CIS/TD-DFT FINISHED WITHOUT ERROR ***

Maximum memory used throughout the entire CIS-calculation: 3824.5 MB

-----------------------
CIS/TD-DFT TOTAL ENERGY
-----------------------

    E(SCF)  =  -3243.370247207 Eh
    DE(CIS) =      0.097479281 Eh (Root  1)
    ----------------------------- ---------
    E(tot)  =  -3243.272767926 Eh


-------------------------   --------------------
FINAL SINGLE POINT ENERGY     -3243.272767926033
-------------------------   --------------------


                            ***************************************
                            *     ORCA property calculations      *
                            ***************************************


  WARNING: The energy has been calculated at the MP2 level but the densities
           used in the property calculations are still SCF densities
           MP2 response densities have not been calculated 
           use %mp2 Density relaxed end
           or  %mp2 Density unrelaxed end

                                    ---------------------
                                    Active property flags
                                    ---------------------
   (+) Dipole Moment


------------------------------------------------------------------------------
                       ORCA ELECTRIC PROPERTIES CALCULATION
------------------------------------------------------------------------------

Dipole Moment Calculation                       ... on
Quadrupole Moment Calculation                   ... off
Polarizability Calculation                      ... off
GBWName                                         ... PDI_2_M06L_def2TZVP_coords.gbw
Electron density                                ... PDI_2_M06L_def2TZVP_coords.scfp
The origin for moment calculation is the CENTER OF MASS  = ( 0.000000,  0.000000 -0.000402)

-------------
DIPOLE MOMENT
-------------
                                X             Y             Z
Electronic contribution:      0.00001       0.00003      -0.10897
Nuclear contribution   :      0.00000      -0.00000       0.11258
                        -----------------------------------------
Total Dipole Moment    :      0.00001       0.00003       0.00361
                        -----------------------------------------
Magnitude (a.u.)       :      0.00361
Magnitude (Debye)      :      0.00918



--------------------
Rotational spectrum 
--------------------
 
Rotational constants in cm-1:     0.005049     0.002246     0.001678 
Rotational constants in MHz :   151.365717    67.318622    50.310932 

 Dipole components along the rotational axes: 
x,y,z [a.u.] :     0.000009     0.000032     0.003610 
x,y,z [Debye]:     0.000024     0.000080     0.009176 

 

Timings for individual modules:

Sum of individual times         ...    11093.003 sec (= 184.883 min)
GTO integral calculation        ...        2.593 sec (=   0.043 min)   0.0 %
SCF iterations                  ...      570.833 sec (=   9.514 min)   5.1 %
MP2 module                      ...      709.046 sec (=  11.817 min)   6.4 %
CIS module                      ...     9810.531 sec (= 163.509 min)  88.4 %
                             ****ORCA TERMINATED NORMALLY****
TOTAL RUN TIME: 0 days 3 hours 5 minutes 1 seconds 672 msec
