 Entering Gaussian System, Link 0=g09
 Input=/home/png4rjv/fotokatalizis/benchmark/OPCs/PDI_2_B3LYP-D3_def2TZVP.gjf
 Output=/home/png4rjv/fotokatalizis/benchmark/OPCs/PDI_2_B3LYP-D3_def2TZVP.log
 Initial command:
 /opt/nce/packages/global/g09/l1.exe "/home/png4rjv/fotokatalizis/benchmark/OPCs/PDI_2_B3LYP-D3_def2TZVP/Gau-5576.inp" -scrdir="/home/png4rjv/fotokatalizis/benchmark/OPCs/PDI_2_B3LYP-D3_def2TZVP/"
 Default is to use a total of  12 processors:
                               12 via shared-memory
                                1 via Linda
 Entering Link 1 = /opt/nce/packages/global/g09/l1.exe PID=      5577.
  
 Copyright (c) 1988,1990,1992,1993,1995,1998,2003,2009,2015,
            Gaussian, Inc.  All Rights Reserved.
  
 This is part of the Gaussian(R) 09 program.  It is based on
 the Gaussian(R) 03 system (copyright 2003, Gaussian, Inc.),
 the Gaussian(R) 98 system (copyright 1998, Gaussian, Inc.),
 the Gaussian(R) 94 system (copyright 1995, Gaussian, Inc.),
 the Gaussian 92(TM) system (copyright 1992, Gaussian, Inc.),
 the Gaussian 90(TM) system (copyright 1990, Gaussian, Inc.),
 the Gaussian 88(TM) system (copyright 1988, Gaussian, Inc.),
 the Gaussian 86(TM) system (copyright 1986, Carnegie Mellon
 University), and the Gaussian 82(TM) system (copyright 1983,
 Carnegie Mellon University). Gaussian is a federally registered
 trademark of Gaussian, Inc.
  
 This software contains proprietary and confidential information,
 including trade secrets, belonging to Gaussian, Inc.
  
 This software is provided under written license and may be
 used, copied, transmitted, or stored only in accord with that
 written license.
  
 The following legend is applicable only to US Government
 contracts under FAR:
  
                    RESTRICTED RIGHTS LEGEND
  
 Use, reproduction and disclosure by the US Government is
 subject to restrictions as set forth in subparagraphs (a)
 and (c) of the Commercial Computer Software - Restricted
 Rights clause in FAR 52.227-19.
  
 Gaussian, Inc.
 340 Quinnipiac St., Bldg. 40, Wallingford CT 06492
  
  
 ---------------------------------------------------------------
 Warning -- This program may not be used in any manner that
 competes with the business of Gaussian, Inc. or will provide
 assistance to any competitor of Gaussian, Inc.  The licensee
 of this program is prohibited from giving any competitor of
 Gaussian, Inc. access to this program.  By using this program,
 the user acknowledges that Gaussian, Inc. is engaged in the
 business of creating and licensing software in the field of
 computational chemistry and represents and warrants to the
 licensee that it is not a competitor of Gaussian, Inc. and that
 it will not use this program in any manner prohibited above.
 ---------------------------------------------------------------
  

 Cite this work as:
 Gaussian 09, Revision E.01,
 M. J. Frisch, G. W. Trucks, H. B. Schlegel, G. E. Scuseria, 
 M. A. Robb, J. R. Cheeseman, G. Scalmani, V. Barone, B. Mennucci, 
 G. A. Petersson, H. Nakatsuji, M. Caricato, X. Li, H. P. Hratchian, 
 A. F. Izmaylov, J. Bloino, G. Zheng, J. L. Sonnenberg, M. Hada, 
 M. Ehara, K. Toyota, R. Fukuda, J. Hasegawa, M. Ishida, T. Nakajima, 
 Y. Honda, O. Kitao, H. Nakai, T. Vreven, J. A. Montgomery, Jr., 
 J. E. Peralta, F. Ogliaro, M. Bearpark, J. J. Heyd, E. Brothers, 
 K. N. Kudin, V. N. Staroverov, T. Keith, R. Kobayashi, J. Normand, 
 K. Raghavachari, A. Rendell, J. C. Burant, S. S. Iyengar, J. Tomasi, 
 M. Cossi, N. Rega, J. M. Millam, M. Klene, J. E. Knox, J. B. Cross, 
 V. Bakken, C. Adamo, J. Jaramillo, R. Gomperts, R. E. Stratmann, 
 O. Yazyev, A. J. Austin, R. Cammi, C. Pomelli, J. W. Ochterski, 
 R. L. Martin, K. Morokuma, V. G. Zakrzewski, G. A. Voth, 
 P. Salvador, J. J. Dannenberg, S. Dapprich, A. D. Daniels, 
 O. Farkas, J. B. Foresman, J. V. Ortiz, J. Cioslowski, 
 and D. J. Fox, Gaussian, Inc., Wallingford CT, 2013.
 
 ******************************************
 Gaussian 09:  ES64L-G09RevE.01 30-Nov-2015
                15-Feb-2021 
 ******************************************
 %chk=cp.chk
 Default route:  MaxDisk=500GB
 ----------------------------------------------------------------------
 #p b3lyp/def2TZVP opt freq=noraman nosymm int=ultrafine scrf=(SMD,solv
 ent=Dichloromethane) EmpiricalDispersion=GD3BJ
 ----------------------------------------------------------------------
 1/14=-1,18=20,19=15,26=4,38=1/1,3;
 2/9=110,12=2,15=1,17=6,18=5,40=1/2;
 3/5=44,7=101,11=2,16=1,25=1,30=1,70=32201,71=1,72=9,74=-5,75=-5,124=41/1,2,3;
 4//1;
 5/5=2,38=5,53=9/2;
 6/7=2,8=2,9=2,10=2,28=1/1;
 7/30=1/1,2,3,16;
 1/14=-1,18=20,19=15,26=4/3(2);
 2/9=110,15=1/2;
 99//99;
 2/9=110,15=1/2;
 3/5=44,7=101,11=2,16=1,25=1,30=1,70=32205,71=1,72=9,74=-5,75=-5,124=41/1,2,3;
 4/5=5,16=3,69=1/1;
 5/5=2,38=5,53=9/2;
 7/30=1/1,2,3,16;
 1/14=-1,18=20,19=15,26=4/3(-5);
 2/9=110,15=1/2;
 6/7=2,8=2,9=2,10=2,19=2,28=1/1;
 99/9=1/99;
 Leave Link    1 at Mon Feb 15 05:00:17 2021, MaxMem=           0 cpu:         1.9
 (Enter /opt/nce/packages/global/g09/l101.exe)
 -----
 Title
 -----
 Symbolic Z-matrix:
 Charge =  0 Multiplicity = 1
 C                    -2.31367   1.44465   0.70181 
 C                    -1.23241   0.71401   0.17648 
 C                     0.0032    1.42134  -0.00073 
 C                     0.00634   2.84276  -0.00082 
 C                    -1.15794   3.54791   0.38299 
 C                    -2.27981   2.84997   0.7892 
 C                     1.23546   0.7084   -0.17758 
 C                     1.17342   3.54399  -0.38411 
 H                    -3.14405   3.39784   1.16502 
 C                     2.29192   2.84     -0.79019 
 C                     2.31963   1.43462  -0.70302 
 H                     3.15884   3.38361  -1.16583 
 C                    -1.23546  -0.7084   -0.17758 
 C                    -0.0032   -1.42134  -0.00073 
 C                    -2.31963  -1.43462  -0.70302 
 C                     1.23241  -0.71401   0.17648 
 C                    -0.00634  -2.84276  -0.00082 
 C                    -2.29192  -2.84     -0.79019 
 C                     2.31367  -1.44465   0.70181 
 C                     1.15794  -3.54791   0.38299 
 C                    -1.17342  -3.54399  -0.38411 
 H                    -3.15884  -3.38361  -1.16583 
 C                     2.27981  -2.84997   0.7892 
 H                     3.14405  -3.39784   1.16502 
 C                    -1.16296   5.03327   0.40626 
 O                    -2.13019   5.6814    0.757 
 C                     1.1926    5.03106  -0.40886 
 O                     2.17213   5.65865  -0.76213 
 N                     0.01404   5.67436  -0.00053 
 C                     1.16296  -5.03327   0.40626 
 O                     2.13019  -5.6814    0.757 
 C                    -1.1926   -5.03106  -0.40886 
 O                    -2.17213  -5.65865  -0.76213 
 N                    -0.01404  -5.67436  -0.00053 
 C                    -0.01404   7.13693   0.01219 
 H                    -0.81554   7.50133  -0.64542 
 H                     0.95967   7.49584  -0.33318 
 H                    -0.22104   7.49844   1.02917 
 C                     0.01404  -7.13693   0.01219 
 H                     0.81554  -7.50133  -0.64542 
 H                    -0.95967  -7.49584  -0.33318 
 H                     0.22104  -7.49844   1.02917 
 Cl                   -3.70579  -0.65068  -1.40011 
 Cl                    3.70322  -0.66649   1.39854 
 Cl                    3.70579   0.65068  -1.40011 
 Cl                   -3.70322   0.66649   1.39854 
 
 NAtoms=     46 NQM=       46 NQMF=       0 NMMI=      0 NMMIF=      0
                NMic=       0 NMicF=      0.
                    Isotopes and Nuclear Properties:
 (Nuclear quadrupole moments (NQMom) in fm**2, nuclear magnetic moments (NMagM)
  in nuclear magnetons)

  Atom         1           2           3           4           5           6           7           8           9          10
 IAtWgt=          12          12          12          12          12          12          12          12           1          12
 AtmWgt=  12.0000000  12.0000000  12.0000000  12.0000000  12.0000000  12.0000000  12.0000000  12.0000000   1.0078250  12.0000000
 NucSpn=           0           0           0           0           0           0           0           0           1           0
 AtZEff=   0.0000000   0.0000000   0.0000000   0.0000000   0.0000000   0.0000000   0.0000000   0.0000000   0.0000000   0.0000000
 NQMom=    0.0000000   0.0000000   0.0000000   0.0000000   0.0000000   0.0000000   0.0000000   0.0000000   0.0000000   0.0000000
 NMagM=    0.0000000   0.0000000   0.0000000   0.0000000   0.0000000   0.0000000   0.0000000   0.0000000   2.7928460   0.0000000
 AtZNuc=   6.0000000   6.0000000   6.0000000   6.0000000   6.0000000   6.0000000   6.0000000   6.0000000   1.0000000   6.0000000

  Atom        11          12          13          14          15          16          17          18          19          20
 IAtWgt=          12           1          12          12          12          12          12          12          12          12
 AtmWgt=  12.0000000   1.0078250  12.0000000  12.0000000  12.0000000  12.0000000  12.0000000  12.0000000  12.0000000  12.0000000
 NucSpn=           0           1           0           0           0           0           0           0           0           0
 AtZEff=   0.0000000   0.0000000   0.0000000   0.0000000   0.0000000   0.0000000   0.0000000   0.0000000   0.0000000   0.0000000
 NQMom=    0.0000000   0.0000000   0.0000000   0.0000000   0.0000000   0.0000000   0.0000000   0.0000000   0.0000000   0.0000000
 NMagM=    0.0000000   2.7928460   0.0000000   0.0000000   0.0000000   0.0000000   0.0000000   0.0000000   0.0000000   0.0000000
 AtZNuc=   6.0000000   1.0000000   6.0000000   6.0000000   6.0000000   6.0000000   6.0000000   6.0000000   6.0000000   6.0000000

  Atom        21          22          23          24          25          26          27          28          29          30
 IAtWgt=          12           1          12           1          12          16          12          16          14          12
 AtmWgt=  12.0000000   1.0078250  12.0000000   1.0078250  12.0000000  15.9949146  12.0000000  15.9949146  14.0030740  12.0000000
 NucSpn=           0           1           0           1           0           0           0           0           2           0
 AtZEff=   0.0000000   0.0000000   0.0000000   0.0000000   0.0000000   0.0000000   0.0000000   0.0000000   0.0000000   0.0000000
 NQMom=    0.0000000   0.0000000   0.0000000   0.0000000   0.0000000   0.0000000   0.0000000   0.0000000   2.0440000   0.0000000
 NMagM=    0.0000000   2.7928460   0.0000000   2.7928460   0.0000000   0.0000000   0.0000000   0.0000000   0.4037610   0.0000000
 AtZNuc=   6.0000000   1.0000000   6.0000000   1.0000000   6.0000000   8.0000000   6.0000000   8.0000000   7.0000000   6.0000000

  Atom        31          32          33          34          35          36          37          38          39          40
 IAtWgt=          16          12          16          14          12           1           1           1          12           1
 AtmWgt=  15.9949146  12.0000000  15.9949146  14.0030740  12.0000000   1.0078250   1.0078250   1.0078250  12.0000000   1.0078250
 NucSpn=           0           0           0           2           0           1           1           1           0           1
 AtZEff=   0.0000000   0.0000000   0.0000000   0.0000000   0.0000000   0.0000000   0.0000000   0.0000000   0.0000000   0.0000000
 NQMom=    0.0000000   0.0000000   0.0000000   2.0440000   0.0000000   0.0000000   0.0000000   0.0000000   0.0000000   0.0000000
 NMagM=    0.0000000   0.0000000   0.0000000   0.4037610   0.0000000   2.7928460   2.7928460   2.7928460   0.0000000   2.7928460
 AtZNuc=   8.0000000   6.0000000   8.0000000   7.0000000   6.0000000   1.0000000   1.0000000   1.0000000   6.0000000   1.0000000

  Atom        41          42          43          44          45          46
 IAtWgt=           1           1          35          35          35          35
 AtmWgt=   1.0078250   1.0078250  34.9688527  34.9688527  34.9688527  34.9688527
 NucSpn=           1           1           3           3           3           3
 AtZEff=   0.0000000   0.0000000   0.0000000   0.0000000   0.0000000   0.0000000
 NQMom=    0.0000000   0.0000000  -8.1650000  -8.1650000  -8.1650000  -8.1650000
 NMagM=    2.7928460   2.7928460   0.8218740   0.8218740   0.8218740   0.8218740
 AtZNuc=   1.0000000   1.0000000  17.0000000  17.0000000  17.0000000  17.0000000
 Leave Link  101 at Mon Feb 15 05:00:17 2021, MaxMem=  5242880000 cpu:         4.3
 (Enter /opt/nce/packages/global/g09/l103.exe)

 GradGradGradGradGradGradGradGradGradGradGradGradGradGradGradGradGradGrad
 Berny optimization.
 Initialization pass.
                           ----------------------------
                           !    Initial Parameters    !
                           ! (Angstroms and Degrees)  !
 --------------------------                            --------------------------
 ! Name  Definition              Value          Derivative Info.                !
 --------------------------------------------------------------------------------
 ! R1    R(1,2)                  1.4068         estimate D2E/DX2                !
 ! R2    R(1,6)                  1.4084         estimate D2E/DX2                !
 ! R3    R(1,46)                 1.7383         estimate D2E/DX2                !
 ! R4    R(2,3)                  1.4347         estimate D2E/DX2                !
 ! R5    R(2,13)                 1.4658         estimate D2E/DX2                !
 ! R6    R(3,4)                  1.4214         estimate D2E/DX2                !
 ! R7    R(3,7)                  1.4346         estimate D2E/DX2                !
 ! R8    R(4,5)                  1.4142         estimate D2E/DX2                !
 ! R9    R(4,8)                  1.4145         estimate D2E/DX2                !
 ! R10   R(5,6)                  1.3823         estimate D2E/DX2                !
 ! R11   R(5,25)                 1.4856         estimate D2E/DX2                !
 ! R12   R(6,9)                  1.0901         estimate D2E/DX2                !
 ! R13   R(7,11)                 1.4067         estimate D2E/DX2                !
 ! R14   R(7,16)                 1.4658         estimate D2E/DX2                !
 ! R15   R(8,10)                 1.3826         estimate D2E/DX2                !
 ! R16   R(8,27)                 1.4874         estimate D2E/DX2                !
 ! R17   R(10,11)                1.4084         estimate D2E/DX2                !
 ! R18   R(10,12)                1.09           estimate D2E/DX2                !
 ! R19   R(11,45)                1.7384         estimate D2E/DX2                !
 ! R20   R(13,14)                1.4346         estimate D2E/DX2                !
 ! R21   R(13,15)                1.4067         estimate D2E/DX2                !
 ! R22   R(14,16)                1.4347         estimate D2E/DX2                !
 ! R23   R(14,17)                1.4214         estimate D2E/DX2                !
 ! R24   R(15,18)                1.4084         estimate D2E/DX2                !
 ! R25   R(15,43)                1.7384         estimate D2E/DX2                !
 ! R26   R(16,19)                1.4068         estimate D2E/DX2                !
 ! R27   R(17,20)                1.4142         estimate D2E/DX2                !
 ! R28   R(17,21)                1.4145         estimate D2E/DX2                !
 ! R29   R(18,21)                1.3826         estimate D2E/DX2                !
 ! R30   R(18,22)                1.09           estimate D2E/DX2                !
 ! R31   R(19,23)                1.4084         estimate D2E/DX2                !
 ! R32   R(19,44)                1.7383         estimate D2E/DX2                !
 ! R33   R(20,23)                1.3823         estimate D2E/DX2                !
 ! R34   R(20,30)                1.4856         estimate D2E/DX2                !
 ! R35   R(21,32)                1.4874         estimate D2E/DX2                !
 ! R36   R(23,24)                1.0901         estimate D2E/DX2                !
 ! R37   R(25,26)                1.216          estimate D2E/DX2                !
 ! R38   R(25,29)                1.4006         estimate D2E/DX2                !
 ! R39   R(27,28)                1.2158         estimate D2E/DX2                !
 ! R40   R(27,29)                1.4034         estimate D2E/DX2                !
 ! R41   R(29,35)                1.4629         estimate D2E/DX2                !
 ! R42   R(30,31)                1.216          estimate D2E/DX2                !
 ! R43   R(30,34)                1.4006         estimate D2E/DX2                !
 ! R44   R(32,33)                1.2158         estimate D2E/DX2                !
 ! R45   R(32,34)                1.4034         estimate D2E/DX2                !
 ! R46   R(34,39)                1.4629         estimate D2E/DX2                !
 ! R47   R(35,36)                1.0989         estimate D2E/DX2                !
 ! R48   R(35,37)                1.0937         estimate D2E/DX2                !
 ! R49   R(35,38)                1.099          estimate D2E/DX2                !
 ! R50   R(39,40)                1.0989         estimate D2E/DX2                !
 ! R51   R(39,41)                1.0937         estimate D2E/DX2                !
 ! R52   R(39,42)                1.099          estimate D2E/DX2                !
 ! A1    A(2,1,6)              121.5286         estimate D2E/DX2                !
 ! A2    A(2,1,46)             122.1118         estimate D2E/DX2                !
 ! A3    A(6,1,46)             116.1684         estimate D2E/DX2                !
 ! A4    A(1,2,3)              116.8731         estimate D2E/DX2                !
 ! A5    A(1,2,13)             126.3423         estimate D2E/DX2                !
 ! A6    A(3,2,13)             116.767          estimate D2E/DX2                !
 ! A7    A(2,3,4)              119.6641         estimate D2E/DX2                !
 ! A8    A(2,3,7)              120.6624         estimate D2E/DX2                !
 ! A9    A(4,3,7)              119.6736         estimate D2E/DX2                !
 ! A10   A(3,4,5)              119.7866         estimate D2E/DX2                !
 ! A11   A(3,4,8)              119.8412         estimate D2E/DX2                !
 ! A12   A(5,4,8)              120.3722         estimate D2E/DX2                !
 ! A13   A(4,5,6)              119.7457         estimate D2E/DX2                !
 ! A14   A(4,5,25)             120.3696         estimate D2E/DX2                !
 ! A15   A(6,5,25)             119.835          estimate D2E/DX2                !
 ! A16   A(1,6,5)              120.3364         estimate D2E/DX2                !
 ! A17   A(1,6,9)              120.252          estimate D2E/DX2                !
 ! A18   A(5,6,9)              119.4062         estimate D2E/DX2                !
 ! A19   A(3,7,11)             116.84           estimate D2E/DX2                !
 ! A20   A(3,7,16)             116.7876         estimate D2E/DX2                !
 ! A21   A(11,7,16)            126.3544         estimate D2E/DX2                !
 ! A22   A(4,8,10)             119.6471         estimate D2E/DX2                !
 ! A23   A(4,8,27)             120.7171         estimate D2E/DX2                !
 ! A24   A(10,8,27)            119.5874         estimate D2E/DX2                !
 ! A25   A(8,10,11)            120.3873         estimate D2E/DX2                !
 ! A26   A(8,10,12)            119.3856         estimate D2E/DX2                !
 ! A27   A(11,10,12)           120.2215         estimate D2E/DX2                !
 ! A28   A(7,11,10)            121.5411         estimate D2E/DX2                !
 ! A29   A(7,11,45)            122.1087         estimate D2E/DX2                !
 ! A30   A(10,11,45)           116.1596         estimate D2E/DX2                !
 ! A31   A(2,13,14)            116.7876         estimate D2E/DX2                !
 ! A32   A(2,13,15)            126.3544         estimate D2E/DX2                !
 ! A33   A(14,13,15)           116.84           estimate D2E/DX2                !
 ! A34   A(13,14,16)           120.6624         estimate D2E/DX2                !
 ! A35   A(13,14,17)           119.6736         estimate D2E/DX2                !
 ! A36   A(16,14,17)           119.6641         estimate D2E/DX2                !
 ! A37   A(13,15,18)           121.5411         estimate D2E/DX2                !
 ! A38   A(13,15,43)           122.1087         estimate D2E/DX2                !
 ! A39   A(18,15,43)           116.1596         estimate D2E/DX2                !
 ! A40   A(7,16,14)            116.767          estimate D2E/DX2                !
 ! A41   A(7,16,19)            126.3423         estimate D2E/DX2                !
 ! A42   A(14,16,19)           116.8731         estimate D2E/DX2                !
 ! A43   A(14,17,20)           119.7866         estimate D2E/DX2                !
 ! A44   A(14,17,21)           119.8412         estimate D2E/DX2                !
 ! A45   A(20,17,21)           120.3722         estimate D2E/DX2                !
 ! A46   A(15,18,21)           120.3873         estimate D2E/DX2                !
 ! A47   A(15,18,22)           120.2215         estimate D2E/DX2                !
 ! A48   A(21,18,22)           119.3856         estimate D2E/DX2                !
 ! A49   A(16,19,23)           121.5286         estimate D2E/DX2                !
 ! A50   A(16,19,44)           122.1118         estimate D2E/DX2                !
 ! A51   A(23,19,44)           116.1684         estimate D2E/DX2                !
 ! A52   A(17,20,23)           119.7457         estimate D2E/DX2                !
 ! A53   A(17,20,30)           120.3696         estimate D2E/DX2                !
 ! A54   A(23,20,30)           119.835          estimate D2E/DX2                !
 ! A55   A(17,21,18)           119.6471         estimate D2E/DX2                !
 ! A56   A(17,21,32)           120.7171         estimate D2E/DX2                !
 ! A57   A(18,21,32)           119.5874         estimate D2E/DX2                !
 ! A58   A(19,23,20)           120.3364         estimate D2E/DX2                !
 ! A59   A(19,23,24)           120.252          estimate D2E/DX2                !
 ! A60   A(20,23,24)           119.4062         estimate D2E/DX2                !
 ! A61   A(5,25,26)            122.6931         estimate D2E/DX2                !
 ! A62   A(5,25,29)            116.7607         estimate D2E/DX2                !
 ! A63   A(26,25,29)           120.5463         estimate D2E/DX2                !
 ! A64   A(8,27,28)            122.0941         estimate D2E/DX2                !
 ! A65   A(8,27,29)            116.2707         estimate D2E/DX2                !
 ! A66   A(28,27,29)           121.6352         estimate D2E/DX2                !
 ! A67   A(25,29,27)           125.4774         estimate D2E/DX2                !
 ! A68   A(25,29,35)           116.0378         estimate D2E/DX2                !
 ! A69   A(27,29,35)           118.4847         estimate D2E/DX2                !
 ! A70   A(20,30,31)           122.6931         estimate D2E/DX2                !
 ! A71   A(20,30,34)           116.7607         estimate D2E/DX2                !
 ! A72   A(31,30,34)           120.5463         estimate D2E/DX2                !
 ! A73   A(21,32,33)           122.0941         estimate D2E/DX2                !
 ! A74   A(21,32,34)           116.2707         estimate D2E/DX2                !
 ! A75   A(33,32,34)           121.6352         estimate D2E/DX2                !
 ! A76   A(30,34,32)           125.4774         estimate D2E/DX2                !
 ! A77   A(30,34,39)           116.0378         estimate D2E/DX2                !
 ! A78   A(32,34,39)           118.4847         estimate D2E/DX2                !
 ! A79   A(29,35,36)           109.8958         estimate D2E/DX2                !
 ! A80   A(29,35,37)           107.9542         estimate D2E/DX2                !
 ! A81   A(29,35,38)           109.9088         estimate D2E/DX2                !
 ! A82   A(36,35,37)           110.5822         estimate D2E/DX2                !
 ! A83   A(36,35,38)           107.8964         estimate D2E/DX2                !
 ! A84   A(37,35,38)           110.6073         estimate D2E/DX2                !
 ! A85   A(34,39,40)           109.8958         estimate D2E/DX2                !
 ! A86   A(34,39,41)           107.9542         estimate D2E/DX2                !
 ! A87   A(34,39,42)           109.9088         estimate D2E/DX2                !
 ! A88   A(40,39,41)           110.5822         estimate D2E/DX2                !
 ! A89   A(40,39,42)           107.8964         estimate D2E/DX2                !
 ! A90   A(41,39,42)           110.6073         estimate D2E/DX2                !
 ! D1    D(6,1,2,3)             12.8378         estimate D2E/DX2                !
 ! D2    D(6,1,2,13)          -168.7469         estimate D2E/DX2                !
 ! D3    D(46,1,2,3)          -161.9439         estimate D2E/DX2                !
 ! D4    D(46,1,2,13)           16.4715         estimate D2E/DX2                !
 ! D5    D(2,1,6,5)             -1.4493         estimate D2E/DX2                !
 ! D6    D(2,1,6,9)            177.6935         estimate D2E/DX2                !
 ! D7    D(46,1,6,5)           173.6266         estimate D2E/DX2                !
 ! D8    D(46,1,6,9)            -7.2306         estimate D2E/DX2                !
 ! D9    D(1,2,3,4)            -16.9653         estimate D2E/DX2                !
 ! D10   D(1,2,3,7)            163.0229         estimate D2E/DX2                !
 ! D11   D(13,2,3,4)           164.4643         estimate D2E/DX2                !
 ! D12   D(13,2,3,7)           -15.5475         estimate D2E/DX2                !
 ! D13   D(1,2,13,14)         -147.3207         estimate D2E/DX2                !
 ! D14   D(1,2,13,15)           34.2768         estimate D2E/DX2                !
 ! D15   D(3,2,13,14)           31.0961         estimate D2E/DX2                !
 ! D16   D(3,2,13,15)         -147.3064         estimate D2E/DX2                !
 ! D17   D(2,3,4,5)             10.0537         estimate D2E/DX2                !
 ! D18   D(2,3,4,8)           -169.9678         estimate D2E/DX2                !
 ! D19   D(7,3,4,5)           -169.9347         estimate D2E/DX2                !
 ! D20   D(7,3,4,8)             10.0438         estimate D2E/DX2                !
 ! D21   D(2,3,7,11)           163.037          estimate D2E/DX2                !
 ! D22   D(2,3,7,16)           -15.5211         estimate D2E/DX2                !
 ! D23   D(4,3,7,11)           -16.9748         estimate D2E/DX2                !
 ! D24   D(4,3,7,16)           164.4671         estimate D2E/DX2                !
 ! D25   D(3,4,5,6)              1.6918         estimate D2E/DX2                !
 ! D26   D(3,4,5,25)           179.1246         estimate D2E/DX2                !
 ! D27   D(8,4,5,6)           -178.2865         estimate D2E/DX2                !
 ! D28   D(8,4,5,25)            -0.8537         estimate D2E/DX2                !
 ! D29   D(3,4,8,10)             1.713          estimate D2E/DX2                !
 ! D30   D(3,4,8,27)           179.1726         estimate D2E/DX2                !
 ! D31   D(5,4,8,10)          -178.3086         estimate D2E/DX2                !
 ! D32   D(5,4,8,27)            -0.849          estimate D2E/DX2                !
 ! D33   D(4,5,6,1)             -6.0772         estimate D2E/DX2                !
 ! D34   D(4,5,6,9)            174.7727         estimate D2E/DX2                !
 ! D35   D(25,5,6,1)           176.4762         estimate D2E/DX2                !
 ! D36   D(25,5,6,9)            -2.6739         estimate D2E/DX2                !
 ! D37   D(4,5,25,26)         -178.3477         estimate D2E/DX2                !
 ! D38   D(4,5,25,29)            1.6806         estimate D2E/DX2                !
 ! D39   D(6,5,25,26)           -0.9172         estimate D2E/DX2                !
 ! D40   D(6,5,25,29)          179.1111         estimate D2E/DX2                !
 ! D41   D(3,7,11,10)           12.8636         estimate D2E/DX2                !
 ! D42   D(3,7,11,45)         -161.9253         estimate D2E/DX2                !
 ! D43   D(16,7,11,10)        -168.7346         estimate D2E/DX2                !
 ! D44   D(16,7,11,45)          16.4765         estimate D2E/DX2                !
 ! D45   D(3,7,16,14)           31.0961         estimate D2E/DX2                !
 ! D46   D(3,7,16,19)         -147.3207         estimate D2E/DX2                !
 ! D47   D(11,7,16,14)        -147.3064         estimate D2E/DX2                !
 ! D48   D(11,7,16,19)          34.2768         estimate D2E/DX2                !
 ! D49   D(4,8,10,11)           -6.0852         estimate D2E/DX2                !
 ! D50   D(4,8,10,12)          174.774          estimate D2E/DX2                !
 ! D51   D(27,8,10,11)         176.4263         estimate D2E/DX2                !
 ! D52   D(27,8,10,12)          -2.7146         estimate D2E/DX2                !
 ! D53   D(4,8,27,28)         -178.3541         estimate D2E/DX2                !
 ! D54   D(4,8,27,29)            1.6544         estimate D2E/DX2                !
 ! D55   D(10,8,27,28)          -0.893          estimate D2E/DX2                !
 ! D56   D(10,8,27,29)         179.1155         estimate D2E/DX2                !
 ! D57   D(8,10,11,7)           -1.4644         estimate D2E/DX2                !
 ! D58   D(8,10,11,45)         173.6186         estimate D2E/DX2                !
 ! D59   D(12,10,11,7)         177.6692         estimate D2E/DX2                !
 ! D60   D(12,10,11,45)         -7.2478         estimate D2E/DX2                !
 ! D61   D(2,13,14,16)         -15.5211         estimate D2E/DX2                !
 ! D62   D(2,13,14,17)         164.4671         estimate D2E/DX2                !
 ! D63   D(15,13,14,16)        163.037          estimate D2E/DX2                !
 ! D64   D(15,13,14,17)        -16.9748         estimate D2E/DX2                !
 ! D65   D(2,13,15,18)        -168.7346         estimate D2E/DX2                !
 ! D66   D(2,13,15,43)          16.4765         estimate D2E/DX2                !
 ! D67   D(14,13,15,18)         12.8636         estimate D2E/DX2                !
 ! D68   D(14,13,15,43)       -161.9253         estimate D2E/DX2                !
 ! D69   D(13,14,16,7)         -15.5475         estimate D2E/DX2                !
 ! D70   D(13,14,16,19)        163.0229         estimate D2E/DX2                !
 ! D71   D(17,14,16,7)         164.4643         estimate D2E/DX2                !
 ! D72   D(17,14,16,19)        -16.9653         estimate D2E/DX2                !
 ! D73   D(13,14,17,20)       -169.9347         estimate D2E/DX2                !
 ! D74   D(13,14,17,21)         10.0438         estimate D2E/DX2                !
 ! D75   D(16,14,17,20)         10.0537         estimate D2E/DX2                !
 ! D76   D(16,14,17,21)       -169.9678         estimate D2E/DX2                !
 ! D77   D(13,15,18,21)         -1.4644         estimate D2E/DX2                !
 ! D78   D(13,15,18,22)        177.6692         estimate D2E/DX2                !
 ! D79   D(43,15,18,21)        173.6186         estimate D2E/DX2                !
 ! D80   D(43,15,18,22)         -7.2478         estimate D2E/DX2                !
 ! D81   D(7,16,19,23)        -168.7469         estimate D2E/DX2                !
 ! D82   D(7,16,19,44)          16.4715         estimate D2E/DX2                !
 ! D83   D(14,16,19,23)         12.8378         estimate D2E/DX2                !
 ! D84   D(14,16,19,44)       -161.9439         estimate D2E/DX2                !
 ! D85   D(14,17,20,23)          1.6918         estimate D2E/DX2                !
 ! D86   D(14,17,20,30)        179.1246         estimate D2E/DX2                !
 ! D87   D(21,17,20,23)       -178.2865         estimate D2E/DX2                !
 ! D88   D(21,17,20,30)         -0.8537         estimate D2E/DX2                !
 ! D89   D(14,17,21,18)          1.713          estimate D2E/DX2                !
 ! D90   D(14,17,21,32)        179.1726         estimate D2E/DX2                !
 ! D91   D(20,17,21,18)       -178.3086         estimate D2E/DX2                !
 ! D92   D(20,17,21,32)         -0.849          estimate D2E/DX2                !
 ! D93   D(15,18,21,17)         -6.0852         estimate D2E/DX2                !
 ! D94   D(15,18,21,32)        176.4263         estimate D2E/DX2                !
 ! D95   D(22,18,21,17)        174.774          estimate D2E/DX2                !
 ! D96   D(22,18,21,32)         -2.7146         estimate D2E/DX2                !
 ! D97   D(16,19,23,20)         -1.4493         estimate D2E/DX2                !
 ! D98   D(16,19,23,24)        177.6935         estimate D2E/DX2                !
 ! D99   D(44,19,23,20)        173.6266         estimate D2E/DX2                !
 ! D100  D(44,19,23,24)         -7.2306         estimate D2E/DX2                !
 ! D101  D(17,20,23,19)         -6.0772         estimate D2E/DX2                !
 ! D102  D(17,20,23,24)        174.7727         estimate D2E/DX2                !
 ! D103  D(30,20,23,19)        176.4762         estimate D2E/DX2                !
 ! D104  D(30,20,23,24)         -2.6739         estimate D2E/DX2                !
 ! D105  D(17,20,30,31)       -178.3477         estimate D2E/DX2                !
 ! D106  D(17,20,30,34)          1.6806         estimate D2E/DX2                !
 ! D107  D(23,20,30,31)         -0.9172         estimate D2E/DX2                !
 ! D108  D(23,20,30,34)        179.1111         estimate D2E/DX2                !
 ! D109  D(17,21,32,33)       -178.3541         estimate D2E/DX2                !
 ! D110  D(17,21,32,34)          1.6544         estimate D2E/DX2                !
 ! D111  D(18,21,32,33)         -0.893          estimate D2E/DX2                !
 ! D112  D(18,21,32,34)        179.1155         estimate D2E/DX2                !
 ! D113  D(5,25,29,27)          -0.8311         estimate D2E/DX2                !
 ! D114  D(5,25,29,35)         179.2451         estimate D2E/DX2                !
 ! D115  D(26,25,29,27)        179.1966         estimate D2E/DX2                !
 ! D116  D(26,25,29,35)         -0.7272         estimate D2E/DX2                !
 ! D117  D(8,27,29,25)          -0.7827         estimate D2E/DX2                !
 ! D118  D(8,27,29,35)         179.1394         estimate D2E/DX2                !
 ! D119  D(28,27,29,25)        179.2258         estimate D2E/DX2                !
 ! D120  D(28,27,29,35)         -0.8521         estimate D2E/DX2                !
 ! D121  D(25,29,35,36)        -58.8757         estimate D2E/DX2                !
 ! D122  D(25,29,35,37)       -179.558          estimate D2E/DX2                !
 ! D123  D(25,29,35,38)         59.7215         estimate D2E/DX2                !
 ! D124  D(27,29,35,36)        121.1949         estimate D2E/DX2                !
 ! D125  D(27,29,35,37)          0.5126         estimate D2E/DX2                !
 ! D126  D(27,29,35,38)       -120.2079         estimate D2E/DX2                !
 ! D127  D(20,30,34,32)         -0.8311         estimate D2E/DX2                !
 ! D128  D(20,30,34,39)        179.2451         estimate D2E/DX2                !
 ! D129  D(31,30,34,32)        179.1966         estimate D2E/DX2                !
 ! D130  D(31,30,34,39)         -0.7272         estimate D2E/DX2                !
 ! D131  D(21,32,34,30)         -0.7827         estimate D2E/DX2                !
 ! D132  D(21,32,34,39)        179.1394         estimate D2E/DX2                !
 ! D133  D(33,32,34,30)        179.2258         estimate D2E/DX2                !
 ! D134  D(33,32,34,39)         -0.8521         estimate D2E/DX2                !
 ! D135  D(30,34,39,40)        -58.8757         estimate D2E/DX2                !
 ! D136  D(30,34,39,41)       -179.558          estimate D2E/DX2                !
 ! D137  D(30,34,39,42)         59.7215         estimate D2E/DX2                !
 ! D138  D(32,34,39,40)        121.1949         estimate D2E/DX2                !
 ! D139  D(32,34,39,41)          0.5126         estimate D2E/DX2                !
 ! D140  D(32,34,39,42)       -120.2079         estimate D2E/DX2                !
 --------------------------------------------------------------------------------
 Trust Radius=3.00D-01 FncErr=1.00D-07 GrdErr=1.00D-06
 Number of steps in this run=    276 maximum allowed number of steps=    276.
 GradGradGradGradGradGradGradGradGradGradGradGradGradGradGradGradGradGrad

 Leave Link  103 at Mon Feb 15 05:00:17 2021, MaxMem=  5242880000 cpu:         0.2
 (Enter /opt/nce/packages/global/g09/l202.exe)
                          Input orientation:                          
 ---------------------------------------------------------------------
 Center     Atomic      Atomic             Coordinates (Angstroms)
 Number     Number       Type             X           Y           Z
 ---------------------------------------------------------------------
      1          6           0       -2.313671    1.444653    0.701814
      2          6           0       -1.232407    0.714006    0.176480
      3          6           0        0.003203    1.421335   -0.000734
      4          6           0        0.006344    2.842758   -0.000815
      5          6           0       -1.157935    3.547910    0.382990
      6          6           0       -2.279810    2.849971    0.789197
      7          6           0        1.235457    0.708404   -0.177579
      8          6           0        1.173420    3.543994   -0.384113
      9          1           0       -3.144048    3.397840    1.165018
     10          6           0        2.291922    2.840004   -0.790191
     11          6           0        2.319626    1.434616   -0.703019
     12          1           0        3.158838    3.383613   -1.165825
     13          6           0       -1.235457   -0.708404   -0.177579
     14          6           0       -0.003203   -1.421335   -0.000734
     15          6           0       -2.319626   -1.434616   -0.703019
     16          6           0        1.232407   -0.714006    0.176480
     17          6           0       -0.006344   -2.842758   -0.000815
     18          6           0       -2.291922   -2.840004   -0.790191
     19          6           0        2.313671   -1.444653    0.701814
     20          6           0        1.157935   -3.547910    0.382990
     21          6           0       -1.173420   -3.543994   -0.384113
     22          1           0       -3.158838   -3.383613   -1.165825
     23          6           0        2.279810   -2.849971    0.789197
     24          1           0        3.144048   -3.397840    1.165018
     25          6           0       -1.162958    5.033274    0.406255
     26          8           0       -2.130193    5.681397    0.757004
     27          6           0        1.192601    5.031055   -0.408862
     28          8           0        2.172135    5.658651   -0.762127
     29          7           0        0.014035    5.674363   -0.000527
     30          6           0        1.162958   -5.033274    0.406255
     31          8           0        2.130193   -5.681397    0.757004
     32          6           0       -1.192601   -5.031055   -0.408862
     33          8           0       -2.172135   -5.658651   -0.762127
     34          7           0       -0.014035   -5.674363   -0.000527
     35          6           0       -0.014035    7.136934    0.012185
     36          1           0       -0.815538    7.501325   -0.645419
     37          1           0        0.959669    7.495841   -0.333183
     38          1           0       -0.221042    7.498440    1.029170
     39          6           0        0.014035   -7.136934    0.012185
     40          1           0        0.815538   -7.501325   -0.645419
     41          1           0       -0.959669   -7.495841   -0.333183
     42          1           0        0.221042   -7.498440    1.029170
     43         17           0       -3.705792   -0.650677   -1.400114
     44         17           0        3.703215   -0.666485    1.398541
     45         17           0        3.705792    0.650677   -1.400114
     46         17           0       -3.703215    0.666485    1.398541
 ---------------------------------------------------------------------
                    Distance matrix (angstroms):
                    1          2          3          4          5
     1  C    0.000000
     2  C    1.406753   0.000000
     3  C    2.421161   1.434730   0.000000
     4  C    2.798366   2.469316   1.421426   0.000000
     5  C    2.420964   2.842394   2.453122   1.414246   0.000000
     6  C    1.408439   2.456587   2.806624   2.418816   1.382290
     7  C    3.729840   2.493139   1.434571   2.469298   3.755710
     8  C    4.212633   3.756474   2.453990   1.414467   2.454318
     9  H    2.172331   3.440137   3.894963   3.404740   2.139798
    10  C    5.038310   4.227909   2.806082   2.418055   3.712007
    11  C    4.841601   3.729576   2.420578   2.797718   4.211752
    12  H    6.098852   5.311461   3.894355   3.404114   4.589156
    13  C    2.563500   1.465816   2.470089   3.766174   4.293769
    14  C    3.747762   2.470228   2.842677   4.264104   5.116058
    15  C    3.203714   2.563619   3.747692   4.919264   5.230154
    16  C    4.184549   2.848601   2.470228   3.766329   4.890839
    17  C    4.919282   3.766329   4.264104   5.685530   6.504929
    18  C    4.537052   3.832494   4.904065   6.180528   6.593006
    19  C    5.455308   4.184549   3.747762   4.919282   6.089284
    20  C    6.089284   4.890839   5.116058   6.504929   7.464175
    21  C    5.231253   4.295149   5.117217   6.506102   7.133287
    22  H    5.245430   4.722648   5.868856   7.081195   7.378919
    23  C    6.288998   5.041133   4.904180   6.180609   7.274337
    24  H    7.311019   6.085872   5.869270   7.081625   8.207440
    25  C    3.780171   4.325933   3.817286   2.516214   1.485555
    26  O    4.241074   5.081142   4.824280   3.632761   2.374224
    27  C    5.137103   4.986001   3.822475   2.522370   2.889943
    28  O    6.326402   6.076299   4.820667   3.633112   4.105592
    29  N    4.878724   5.117625   4.253042   2.831615   2.458130
    30  C    7.357842   6.230714   6.570590   7.970906   8.889533
    31  O    8.398307   7.248811   7.452990   8.817383   9.804682
    32  C    6.665223   5.774940   6.574941   7.975017   8.615502
    33  O    7.253970   6.509595   7.445671   8.809048   9.332773
    34  N    7.514120   6.505922   7.095719   8.517145   9.300855
    35  C    6.177862   6.539528   5.715640   4.294244   3.785115
    36  H    6.383002   6.849598   6.168649   4.774228   4.099311
    37  H    6.957216   7.145505   6.158325   4.761353   4.536883
    38  H    6.413626   6.912198   6.167835   4.773672   4.111205
    39  C    8.918376   7.950967   8.558286   9.979703  10.755320
    40  H    9.572748   8.506542   8.982726  10.395690  11.271105
    41  H    9.101482   8.230172   8.975170  10.388950  11.068724
    42  H    9.301121   8.383547   8.981678  10.394582  11.150828
    43  Cl   3.278187   3.235064   4.473046   5.286027   5.224861
    44  Cl   6.414456   5.268734   4.472924   5.285815   6.513313
    45  Cl   6.425141   5.184156   4.032536   4.522076   5.935424
    46  Cl   1.738334   2.756916   4.033027   4.522741   3.976481
                    6          7          8          9         10
     6  C    0.000000
     7  C    4.228246   0.000000
     8  C    3.712563   2.843778   0.000000
     9  H    1.090096   5.311845   4.589303   0.000000
    10  C    4.836869   2.456650   1.382587   5.803774   0.000000
    11  C    5.038328   1.406731   2.421769   6.098815   1.408361
    12  H    5.803945   3.439879   2.139785   6.720075   1.090025
    13  C    3.832409   2.848291   4.891649   4.722979   5.040724
    14  C    4.904180   2.470089   5.117217   5.869270   4.904065
    15  C    4.537177   4.184165   6.090126   5.246129   6.288589
    16  C    5.041133   1.465816   4.295149   6.085872   3.832494
    17  C    6.180609   3.766174   6.506102   7.081625   6.180528
    18  C    5.905119   5.040724   7.275227   6.592394   7.298912
    19  C    6.288998   2.563500   5.231253   7.311019   4.537052
    20  C    7.274337   4.293769   7.133287   8.207440   6.593006
    21  C    6.594205   4.891649   7.466407   7.380531   7.275227
    22  H    6.591841   6.085315   8.208000   7.170854   8.281624
    23  C    7.299279   3.832409   6.594205   8.282187   5.905119
    24  H    8.282187   4.722979   7.380531   9.258586   6.592394
    25  C    2.482099   4.979735   2.881197   2.678635   4.263580
    26  O    2.835559   6.077146   4.096889   2.531602   5.479273
    27  C    4.272015   4.329046   1.487391   4.893977   2.480851
    28  O    5.487723   5.071884   2.368987   6.089906   2.821331
    29  N    3.723248   5.117027   2.455562   4.063809   3.721012
    30  C    8.610740   5.771740   8.613612   9.497879   8.043292
    31  O    9.603822   6.519475   9.344806  10.507932   8.662231
    32  C    8.045368   6.236213   8.895512   8.793834   8.616315
    33  O    8.649558   7.245189   9.799199   9.310131   9.599778
    34  N    8.855601   6.506327   9.302435   9.667489   8.856379
    35  C    4.910757   6.551583   3.804776   5.010672   4.942151
    36  H    5.083041   7.111205   4.436745   5.053536   5.604032
    37  H    5.773913   6.794820   3.957951   5.989884   4.864213
    38  H    5.089634   7.048562   4.424877   5.037593   5.596971
    39  C   10.276368   7.942116  10.750974  11.058209  10.265080
    40  H   10.899020   8.233763  11.054204  11.736601  10.447189
    41  H   10.489916   8.494258  11.244137  11.211084  10.844879
    42  H   10.649012   8.356888  11.173171  11.404876  10.699628
    43  Cl   4.368185   5.268551   6.514156   4.825552   6.966307
    44  Cl   6.966588   3.234858   5.225500   7.966071   4.367810
    45  Cl   6.742211   2.756897   3.976990   7.813265   2.676600
    46  Cl   2.676750   5.184245   5.936285   2.797767   6.742136
                   11         12         13         14         15
    11  C    0.000000
    12  H    2.171878   0.000000
    13  C    4.184165   6.085315   0.000000
    14  C    3.747692   5.868856   1.434571   0.000000
    15  C    5.454828   7.310478   1.406731   2.420578   0.000000
    16  C    2.563619   4.722648   2.493139   1.434730   3.729576
    17  C    4.919264   7.081195   2.469298   1.421426   2.797718
    18  C    6.288589   8.281624   2.456650   2.806082   1.408361
    19  C    3.203714   5.245430   3.729840   2.421161   4.841601
    20  C    5.230154   7.378919   3.755710   2.453122   4.211752
    21  C    6.090126   8.208000   2.843778   2.453990   2.421769
    22  H    7.310478   9.257882   3.439879   3.894355   2.171878
    23  C    4.537177   6.591841   4.228246   2.806624   5.038328
    24  H    5.246129   7.170854   5.311845   3.894963   6.098815
    25  C    5.129251   4.885769   5.771740   6.570590   6.663480
    26  O    6.322002   6.078728   6.519475   7.452990   7.266718
    27  C    3.780355   2.674537   6.236213   6.574941   7.363910
    28  O    4.227022   2.512440   7.245189   7.445671   8.396061
    29  N    4.876956   4.061433   6.506327   7.095719   7.515121
    30  C    6.663480   8.791983   4.979735   3.817286   5.129251
    31  O    7.266718   9.323615   6.077146   4.824280   6.322002
    32  C    7.363910   9.503402   4.329046   3.822475   3.780355
    33  O    8.396061  10.504513   5.071884   4.820667   4.227022
    34  N    7.515121   9.668090   5.117027   4.253042   4.876956
    35  C    6.202735   5.053934   7.942116   8.558286   8.904984
    36  H    6.829168   5.746481   8.233763   8.982726   9.061823
    37  H    6.222918   4.737094   8.494258   8.975170   9.520694
    38  H    6.798929   5.759635   8.356888   8.981678   9.338309
    39  C    8.904984  11.043523   6.551583   5.715640   6.202735
    40  H    9.061823  11.146468   7.111205   6.168649   6.829168
    41  H    9.520694  11.662672   6.794820   6.158325   6.222918
    42  H    9.338309  11.483367   7.048562   6.167835   6.798929
    43  Cl   6.414051   7.965773   2.756897   4.032536   1.738378
    44  Cl   3.278033   4.824481   5.184245   4.033027   6.425044
    45  Cl   1.738378   2.796961   5.268551   4.473046   6.414051
    46  Cl   6.425044   7.813228   3.234858   4.472924   3.278033
                   16         17         18         19         20
    16  C    0.000000
    17  C    2.469316   0.000000
    18  C    4.227909   2.418055   0.000000
    19  C    1.406753   2.798366   5.038310   0.000000
    20  C    2.842394   1.414246   3.712007   2.420964   0.000000
    21  C    3.756474   1.414467   1.382587   4.212633   2.454318
    22  H    5.311461   3.404114   1.090025   6.098852   4.589156
    23  C    2.456587   2.418816   4.836869   1.408439   1.382290
    24  H    3.440137   3.404740   5.803774   2.172331   2.139798
    25  C    6.230714   7.970906   8.043292   7.357842   8.889533
    26  O    7.248811   8.817383   8.662231   8.398307   9.804682
    27  C    5.774940   7.975017   8.616315   6.665223   8.615502
    28  O    6.509595   8.809048   9.599778   7.253970   9.332773
    29  N    6.505922   8.517145   8.856379   7.514120   9.300855
    30  C    4.325933   2.516214   4.263580   3.780171   1.485555
    31  O    5.081142   3.632761   5.479273   4.241074   2.374224
    32  C    4.986001   2.522370   2.480851   5.137103   2.889943
    33  O    6.076299   3.633112   2.821331   6.326402   4.105592
    34  N    5.117625   2.831615   3.721012   4.878724   2.458130
    35  C    7.950967   9.979703  10.265080   8.918376  10.755320
    36  H    8.506542  10.395690  10.447189   9.572748  11.271105
    37  H    8.230172  10.388950  10.844879   9.101482  11.068724
    38  H    8.383547  10.394582  10.699628   9.301121  11.150828
    39  C    6.539528   4.294244   4.942151   6.177862   3.785115
    40  H    6.849598   4.774228   5.604032   6.383002   4.099311
    41  H    7.145505   4.761353   4.864213   6.957216   4.536883
    42  H    6.912198   4.773672   5.596971   6.413626   4.111205
    43  Cl   5.184156   4.522076   2.676600   6.425141   5.935424
    44  Cl   2.756916   4.522741   6.742136   1.738334   3.976481
    45  Cl   3.235064   5.286027   6.966307   3.278187   5.224861
    46  Cl   5.268734   5.285815   4.367810   6.414456   6.513313
                   21         22         23         24         25
    21  C    0.000000
    22  H    2.139785   0.000000
    23  C    3.712563   5.803945   0.000000
    24  H    4.589303   6.720075   1.090096   0.000000
    25  C    8.613612   8.791983   8.610740   9.497879   0.000000
    26  O    9.344806   9.323615   9.603822  10.507932   1.215990
    27  C    8.895512   9.503402   8.045368   8.793834   2.492605
    28  O    9.799199  10.504513   8.649558   9.310131   3.588740
    29  N    9.302435   9.668090   8.855601   9.667489   1.400635
    30  C    2.881197   4.885769   2.482099   2.678635  10.331760
    31  O    4.096889   6.078728   2.835559   2.531602  11.214814
    32  C    1.487391   2.674537   4.272015   4.893977  10.097327
    33  O    2.368987   2.512440   5.487723   6.089906  10.802815
    34  N    2.455562   4.061433   3.723248   4.063809  10.776780
    35  C   10.750974  11.043523  10.276368  11.058209   2.429136
    36  H   11.054204  11.146468  10.899020  11.736601   2.705179
    37  H   11.244137  11.662672  10.489916  11.211084   3.334149
    38  H   11.173171  11.483367  10.649012  11.404876   2.711507
    39  C    3.804776   5.053934   4.910757   5.010672  12.233338
    40  H    4.436745   5.746481   5.083041   5.053536  12.733289
    41  H    3.957951   4.737094   5.773913   5.989884  12.552562
    42  H    4.424877   5.759635   5.089634   5.037593  12.623285
    43  Cl   3.976990   2.796961   6.742211   7.813265   6.483539
    44  Cl   5.936285   7.813228   2.676750   2.797767   7.559863
    45  Cl   6.514156   7.965773   4.368185   4.825552   6.795208
    46  Cl   5.225500   4.824481   6.966588   7.966071   5.148435
                   26         27         28         29         30
    26  O    0.000000
    27  C    3.580942   0.000000
    28  O    4.562708   1.215796   0.000000
    29  N    2.274119   1.403425   2.288597   0.000000
    30  C   11.214814  10.097327  10.802815  10.776780   0.000000
    31  O   12.135237  10.816420  11.441425  11.576064   1.215990
    32  C   10.816420  10.340950  11.212317  10.780941   2.492605
    33  O   11.441425  11.212317  12.122459  11.567047   3.588740
    34  N   11.576064  10.780941  11.567047  11.348761   1.400635
    35  C    2.674223   2.463326   2.750313   1.462896  12.233338
    36  H    2.647120   3.192306   3.512159   2.107574  12.733289
    37  H    3.745392   2.476924   2.242618   2.079102  12.552562
    38  H    2.649637   3.186583   3.510109   2.107794  12.623285
    39  C   13.017760  12.232181  12.999383  12.811303   2.429136
    40  H   13.580437  12.540282  13.230228  13.215788   2.705179
    41  H   13.273968  12.710669  13.528963  13.210338   3.334149
    42  H   13.390686  12.649115  13.421049  13.214608   2.711507
    43  Cl   6.872469   7.566962   8.646657   7.470079   6.795208
    44  Cl   8.644988   6.483198   6.857116   7.468185   5.148435
    45  Cl   8.001251   5.146496   5.276261   6.389471   6.483539
    46  Cl   5.294838   6.803322   8.006869   6.391728   7.559863
                   31         32         33         34         35
    31  O    0.000000
    32  C    3.580942   0.000000
    33  O    4.562708   1.215796   0.000000
    34  N    2.274119   1.403425   2.288597   0.000000
    35  C   13.017760  12.232181  12.999383  12.811303   0.000000
    36  H   13.580437  12.540282  13.230228  13.215788   1.098923
    37  H   13.273968  12.710669  13.528963  13.210338   1.093706
    38  H   13.390686  12.649115  13.421049  13.214608   1.098998
    39  C    2.674223   2.463326   2.750313   1.462896  14.273896
    40  H    2.647120   3.192306   3.512159   2.107574  14.676487
    41  H    3.745392   2.476924   2.242618   2.079102  14.667365
    42  H    2.649637   3.186583   3.510109   2.107794  14.672549
    43  Cl   8.001251   5.146496   5.276261   6.389471   8.733301
    44  Cl   5.294838   6.803322   8.006869   6.391728   8.754044
    45  Cl   6.872469   7.566962   8.646657   7.470079   7.609417
    46  Cl   8.644988   6.483198   6.857116   7.468185   7.576196
                   36         37         38         39         40
    36  H    0.000000
    37  H    1.802465   0.000000
    38  H    1.776987   1.802801   0.000000
    39  C   14.676487  14.667365  14.672549   0.000000
    40  H   15.091054  15.001108  15.128506   1.098923   0.000000
    41  H   15.001108  15.114046  15.074151   1.093706   1.802465
    42  H   15.128506  15.074151  15.003395   1.098998   1.776987
    43  Cl   8.682066   9.448313   9.189832   7.609417   8.242777
    44  Cl   9.555628   8.783478   9.066544   7.576196   7.696200
    45  Cl   8.242777   7.452235   8.259135   8.733301   8.682066
    46  Cl   7.696200   8.448755   7.677081   8.754044   9.555628
                   41         42         43         44         45
    41  H    0.000000
    42  H    1.802801   0.000000
    43  Cl   7.452235   8.259135   0.000000
    44  Cl   8.448755   7.677081   7.919981   0.000000
    45  Cl   9.448313   9.189832   7.524965   3.093120   0.000000
    46  Cl   8.783478   9.066544   3.093120   7.525425   7.919981
                   46
    46  Cl   0.000000
 Symmetry turned off by external request.
 Stoichiometry    C26H10Cl4N2O4
 Framework group  C2[X(C26H10Cl4N2O4)]
 Deg. of freedom    67
 Full point group                 C2      NOp   2
 Rotational constants (GHZ):      0.1503231      0.0665714      0.0496726
 Leave Link  202 at Mon Feb 15 05:00:17 2021, MaxMem=  5242880000 cpu:         0.4
 (Enter /opt/nce/packages/global/g09/l301.exe)
 Standard basis: def2TZVP (5D, 7F)
 Ernie: Thresh=  0.10000D-02 Tol=  0.10000D-05 Strict=F.
  1200 basis functions,  1988 primitive gaussians,  1380 cartesian basis functions
   140 alpha electrons      140 beta electrons
       nuclear repulsion energy      4524.0269155377 Hartrees.
 IExCor=  402 DFT=T Ex+Corr=B3LYP ExCW=0 ScaHFX=  0.200000
 ScaDFX=  0.800000  0.720000  1.000000  0.810000 ScalE2=  1.000000  1.000000
 IRadAn=      5 IRanWt=     -1 IRanGd=            0 ICorTp=0 IEmpDi=141
 NAtoms=   46 NActive=   46 NUniq=   46 SFac= 1.00D+00 NAtFMM=   60 NAOKFM=F Big=F
 Integral buffers will be    131072 words long.
 Raffenetti 2 integral format.
 Two-electron integral symmetry is turned off.
 R6Disp:  Grimme-D3(BJ) Dispersion energy=       -0.1523445795 Hartrees.
 Nuclear repulsion after empirical dispersion term =     4523.8745709582 Hartrees.
 ------------------------------------------------------------------------------
 Polarizable Continuum Model (PCM)
 =================================
 Model                : PCM (using non-symmetric T matrix).
 Atomic radii         : SMD-Coulomb.
 Polarization charges : Total charges.
 Charge compensation  : None.
 Solution method      : On-the-fly selection.
 Cavity type          : VdW (van der Waals Surface) (Alpha=1.000).
 Cavity algorithm     : GePol (No added spheres)
                        Default sphere list used, NSphG=   46.
                        Lebedev-Laikov grids with approx.  5.0 points / Ang**2.
                        Smoothing algorithm: York/Karplus (Gamma=1.0000).
                        Polarization charges: spherical gaussians, with
                                              point-specific exponents (IZeta= 3).
                        Self-potential: point-specific (ISelfS= 7).
                        Self-field    : sphere-specific E.n sum rule (ISelfD= 2).
 1st derivatives      : Analytical E(r).r(x)/FMM algorithm (CHGder, D1EAlg=3).
                        Cavity 1st derivative terms included.
 Solvent              : Dichloromethane, Eps=   8.930000 Eps(inf)=   2.028346
 ------------------------------------------------------------------------------
 GePol: Number of generator spheres                  =      46
 GePol: Total number of spheres                      =      46
 GePol: Number of exposed spheres                    =      46 (100.00%)
 GePol: Number of points                             =    3924
 GePol: Average weight of points                     =       0.13
 GePol: Minimum weight of points                     =   0.99D-09
 GePol: Maximum weight of points                     =    0.20498
 GePol: Number of points with low weight             =     162
 GePol: Fraction of low-weight points (<1% of avg)   =       4.13%
 GePol: Cavity surface area                          =    500.332 Ang**2
 GePol: Cavity volume                                =    565.764 Ang**3
 ------------------------------------------------------------------------------
 Atomic radii for non-electrostatic terms: SMD-CDS.
 ------------------------------------------------------------------------------
 PCM non-electrostatic energy =        -0.0174758624 Hartrees.
 Nuclear repulsion after PCM non-electrostatic terms =     4523.8570950959 Hartrees.
 Leave Link  301 at Mon Feb 15 05:00:18 2021, MaxMem=  5242880000 cpu:         2.5
 (Enter /opt/nce/packages/global/g09/l302.exe)
 NPDir=0 NMtPBC=     1 NCelOv=     1 NCel=       1 NClECP=     1 NCelD=      1
         NCelK=      1 NCelE2=     1 NClLst=     1 CellRange=     0.0.
 One-electron integrals computed using PRISM.
   1 Symmetry operations used in ECPInt.
 ECPInt:  NShTT=   98790 NPrTT=  327714 LenC2=   74876 LenP2D=  163880.
 LDataN:  DoStor=T MaxTD1= 6 Len=  172
 NBasis=  1200 RedAO= T EigKep=  3.46D-06  NBF=  1200
 NBsUse=  1200 1.00D-06 EigRej= -1.00D+00 NBFU=  1200
 Precomputing XC quadrature grid using
 IXCGrd= 4 IRadAn=           5 IRanWt=          -1 IRanGd=           0 AccXCQ= 0.00D+00.
 Generated NRdTot=       0 NPtTot=           0 NUsed=           0 NTot=          32
 NSgBfM=  1294  1294  1294  1294  1294 MxSgAt=    46 MxSgA2=    46.
 Leave Link  302 at Mon Feb 15 05:00:21 2021, MaxMem=  5242880000 cpu:        34.5
 (Enter /opt/nce/packages/global/g09/l303.exe)
 DipDrv:  MaxL=1.
 Leave Link  303 at Mon Feb 15 05:00:21 2021, MaxMem=  5242880000 cpu:         3.6
 (Enter /opt/nce/packages/global/g09/l401.exe)
 ExpMin= 9.52D-02 ExpMax= 6.95D+04 ExpMxC= 2.37D+03 IAcc=3 IRadAn=         5 AccDes= 0.00D+00
 Harris functional with IExCor=  402 and IRadAn=       5 diagonalized for initial guess.
 HarFok:  IExCor=  402 AccDes= 0.00D+00 IRadAn=         5 IDoV= 1 UseB2=F ITyADJ=14
 ICtDFT=  3500011 ScaDFX=  1.000000  1.000000  1.000000  1.000000
 FoFCou: FMM=F IPFlag=           0 FMFlag=      100000 FMFlg1=           0
         NFxFlg=           0 DoJE=T BraDBF=F KetDBF=T FulRan=T
         wScrn=  0.000000 ICntrl=     500 IOpCl=  0 I1Cent=   200000004 NGrid=           0
         NMat0=    1 NMatS0=      1 NMatT0=    0 NMatD0=    1 NMtDS0=    0 NMtDT0=    0
 Symmetry not used in FoFCou.
 Harris En= -3248.58888758582    
 JPrj=0 DoOrth=F DoCkMO=F.
 Leave Link  401 at Mon Feb 15 05:00:32 2021, MaxMem=  5242880000 cpu:       133.3
 (Enter /opt/nce/packages/global/g09/l502.exe)
 Closed shell SCF:
 Using DIIS extrapolation, IDIIS=  1040.
 Two-electron integral symmetry not used.
 IVT=     5756682 IEndB=     5756682 NGot=  5242880000 MDV=  5239045739
 LenX=  5239045739 LenY=  5237139959
 Requested convergence on RMS density matrix=1.00D-08 within 128 cycles.
 Requested convergence on MAX density matrix=1.00D-06.
 Requested convergence on             energy=1.00D-06.
 No special actions if energy rises.
 Fock matrices will be formed incrementally for  20 cycles.

 Cycle   1  Pass 1  IDiag  1:
 FoFJK:  IHMeth= 1 ICntrl=       0 DoSepK=F KAlg= 0 I1Cent=   0 FoldK=F
 IRaf= 640000000 NMat=   1 IRICut=       1 DoRegI=T DoRafI=F ISym2E= 0.
 FoFCou: FMM=F IPFlag=           0 FMFlag=      100000 FMFlg1=           0
         NFxFlg=           0 DoJE=F BraDBF=F KetDBF=F FulRan=T
         wScrn=  0.000000 ICntrl=       0 IOpCl=  0 I1Cent=           0 NGrid=           0
         NMat0=    1 NMatS0=      1 NMatT0=    0 NMatD0=    1 NMtDS0=    0 NMtDT0=    0
 Symmetry not used in FoFCou.
 Inv3:  Mode=1 IEnd=    46193328.
 Iteration    1 A*A^-1 deviation from unit magnitude is 6.66D-15 for   3918.
 Iteration    1 A*A^-1 deviation from orthogonality  is 3.31D-15 for    888    363.
 Iteration    1 A^-1*A deviation from unit magnitude is 6.44D-15 for   3918.
 Iteration    1 A^-1*A deviation from orthogonality  is 1.75D-13 for   2293   2287.
 E= -3248.03369192669    
 DIIS: error= 1.88D-02 at cycle   1 NSaved=   1.
 NSaved= 1 IEnMin= 1 EnMin= -3248.03369192669     IErMin= 1 ErrMin= 1.88D-02
 ErrMax= 1.88D-02  0.00D+00 EMaxC= 1.00D-01 BMatC= 1.09D+00 BMatP= 1.09D+00
 IDIUse=3 WtCom= 8.12D-01 WtEn= 1.88D-01
 Coeff-Com:  0.100D+01
 Coeff-En:   0.100D+01
 Coeff:      0.100D+01
 Gap=     0.245 Goal=   None    Shift=    0.000
 GapD=    0.245 DampG=1.000 DampE=0.500 DampFc=0.5000 IDamp=-1.
 Damping current iteration by 5.00D-01
 RMSDP=7.16D-03 MaxDP=8.77D-01              OVMax= 3.25D-01

 Cycle   2  Pass 1  IDiag  1:
 RMSU=  3.58D-03    CP:  1.01D+00
 E= -3248.25093447346     Delta-E=       -0.217242546769 Rises=F Damp=T
 DIIS: error= 9.88D-03 at cycle   2 NSaved=   2.
 NSaved= 2 IEnMin= 2 EnMin= -3248.25093447346     IErMin= 2 ErrMin= 9.88D-03
 ErrMax= 9.88D-03  0.00D+00 EMaxC= 1.00D-01 BMatC= 1.95D-01 BMatP= 1.09D+00
 IDIUse=3 WtCom= 9.01D-01 WtEn= 9.88D-02
 Coeff-Com:  0.217D+00 0.783D+00
 Coeff-En:   0.362D+00 0.638D+00
 Coeff:      0.232D+00 0.768D+00
 Gap=     0.169 Goal=   None    Shift=    0.000
 RMSDP=2.83D-03 MaxDP=3.82D-01 DE=-2.17D-01 OVMax= 2.39D-01

 Cycle   3  Pass 1  IDiag  1:
 RMSU=  1.32D-03    CP:  9.08D-01  3.27D-01
 E= -3248.76450109054     Delta-E=       -0.513566617080 Rises=F Damp=F
 DIIS: error= 9.16D-03 at cycle   3 NSaved=   3.
 NSaved= 3 IEnMin= 3 EnMin= -3248.76450109054     IErMin= 3 ErrMin= 9.16D-03
 ErrMax= 9.16D-03  0.00D+00 EMaxC= 1.00D-01 BMatC= 1.54D-01 BMatP= 1.95D-01
 IDIUse=3 WtCom= 9.08D-01 WtEn= 9.16D-02
 Coeff-Com:  0.352D-01 0.464D+00 0.501D+00
 Coeff-En:   0.000D+00 0.000D+00 0.100D+01
 Coeff:      0.320D-01 0.422D+00 0.546D+00
 Gap=     0.093 Goal=   None    Shift=    0.000
 RMSDP=6.74D-04 MaxDP=4.50D-02 DE=-5.14D-01 OVMax= 1.10D-01

 Cycle   4  Pass 1  IDiag  1:
 RMSU=  5.10D-04    CP:  9.38D-01  3.69D-01  7.31D-01
 E= -3248.86235970432     Delta-E=       -0.097858613773 Rises=F Damp=F
 DIIS: error= 3.96D-03 at cycle   4 NSaved=   4.
 NSaved= 4 IEnMin= 4 EnMin= -3248.86235970432     IErMin= 4 ErrMin= 3.96D-03
 ErrMax= 3.96D-03  0.00D+00 EMaxC= 1.00D-01 BMatC= 3.45D-02 BMatP= 1.54D-01
 IDIUse=3 WtCom= 9.60D-01 WtEn= 3.96D-02
 Coeff-Com: -0.114D-01 0.963D-01 0.343D+00 0.572D+00
 Coeff-En:   0.000D+00 0.000D+00 0.227D+00 0.773D+00
 Coeff:     -0.109D-01 0.925D-01 0.339D+00 0.580D+00
 Gap=     0.093 Goal=   None    Shift=    0.000
 RMSDP=3.96D-04 MaxDP=3.22D-02 DE=-9.79D-02 OVMax= 3.74D-02

 Cycle   5  Pass 1  IDiag  1:
 RMSU=  1.72D-04    CP:  9.15D-01  3.53D-01  9.17D-01  6.29D-01
 E= -3248.89131220369     Delta-E=       -0.028952499371 Rises=F Damp=F
 DIIS: error= 6.20D-04 at cycle   5 NSaved=   5.
 NSaved= 5 IEnMin= 5 EnMin= -3248.89131220369     IErMin= 5 ErrMin= 6.20D-04
 ErrMax= 6.20D-04  0.00D+00 EMaxC= 1.00D-01 BMatC= 1.21D-03 BMatP= 3.45D-02
 IDIUse=3 WtCom= 9.94D-01 WtEn= 6.20D-03
 Coeff-Com: -0.697D-02 0.210D-01 0.140D+00 0.292D+00 0.555D+00
 Coeff-En:   0.000D+00 0.000D+00 0.000D+00 0.000D+00 0.100D+01
 Coeff:     -0.692D-02 0.209D-01 0.139D+00 0.290D+00 0.557D+00
 Gap=     0.093 Goal=   None    Shift=    0.000
 RMSDP=1.11D-04 MaxDP=6.79D-03 DE=-2.90D-02 OVMax= 9.01D-03

 Cycle   6  Pass 1  IDiag  1:
 RMSU=  4.82D-05    CP:  9.21D-01  3.56D-01  8.74D-01  6.61D-01  6.02D-01
 E= -3248.89225491236     Delta-E=       -0.000942708674 Rises=F Damp=F
 DIIS: error= 3.36D-04 at cycle   6 NSaved=   6.
 NSaved= 6 IEnMin= 6 EnMin= -3248.89225491236     IErMin= 6 ErrMin= 3.36D-04
 ErrMax= 3.36D-04  0.00D+00 EMaxC= 1.00D-01 BMatC= 1.83D-04 BMatP= 1.21D-03
 IDIUse=3 WtCom= 9.97D-01 WtEn= 3.36D-03
 Coeff-Com: -0.273D-02 0.271D-02 0.499D-01 0.120D+00 0.332D+00 0.499D+00
 Coeff-En:   0.000D+00 0.000D+00 0.000D+00 0.000D+00 0.971D-01 0.903D+00
 Coeff:     -0.272D-02 0.270D-02 0.497D-01 0.119D+00 0.331D+00 0.500D+00
 Gap=     0.093 Goal=   None    Shift=    0.000
 RMSDP=2.49D-05 MaxDP=1.87D-03 DE=-9.43D-04 OVMax= 3.31D-03

 Cycle   7  Pass 1  IDiag  1:
 RMSU=  1.86D-05    CP:  9.21D-01  3.57D-01  8.70D-01  6.74D-01  6.48D-01
                    CP:  7.76D-01
 E= -3248.89242018836     Delta-E=       -0.000165275995 Rises=F Damp=F
 DIIS: error= 9.57D-05 at cycle   7 NSaved=   7.
 NSaved= 7 IEnMin= 7 EnMin= -3248.89242018836     IErMin= 7 ErrMin= 9.57D-05
 ErrMax= 9.57D-05  0.00D+00 EMaxC= 1.00D-01 BMatC= 1.45D-05 BMatP= 1.83D-04
 IDIUse=1 WtCom= 1.00D+00 WtEn= 0.00D+00
 Coeff-Com: -0.474D-03-0.129D-02 0.953D-02 0.291D-01 0.109D+00 0.264D+00
 Coeff-Com:  0.590D+00
 Coeff:     -0.474D-03-0.129D-02 0.953D-02 0.291D-01 0.109D+00 0.264D+00
 Coeff:      0.590D+00
 Gap=     0.093 Goal=   None    Shift=    0.000
 RMSDP=9.97D-06 MaxDP=7.88D-04 DE=-1.65D-04 OVMax= 1.66D-03

 Cycle   8  Pass 1  IDiag  1:
 RMSU=  5.10D-06    CP:  9.21D-01  3.55D-01  8.69D-01  6.77D-01  6.36D-01
                    CP:  8.18D-01  8.92D-01
 E= -3248.89243296517     Delta-E=       -0.000012776810 Rises=F Damp=F
 DIIS: error= 3.80D-05 at cycle   8 NSaved=   8.
 NSaved= 8 IEnMin= 8 EnMin= -3248.89243296517     IErMin= 8 ErrMin= 3.80D-05
 ErrMax= 3.80D-05  0.00D+00 EMaxC= 1.00D-01 BMatC= 2.30D-06 BMatP= 1.45D-05
 IDIUse=1 WtCom= 1.00D+00 WtEn= 0.00D+00
 Coeff-Com:  0.562D-04-0.105D-02 0.783D-03 0.498D-02 0.293D-01 0.948D-01
 Coeff-Com:  0.335D+00 0.536D+00
 Coeff:      0.562D-04-0.105D-02 0.783D-03 0.498D-02 0.293D-01 0.948D-01
 Coeff:      0.335D+00 0.536D+00
 Gap=     0.093 Goal=   None    Shift=    0.000
 RMSDP=2.88D-06 MaxDP=1.34D-04 DE=-1.28D-05 OVMax= 7.58D-04

 Cycle   9  Pass 1  IDiag  1:
 RMSU=  1.51D-06    CP:  9.21D-01  3.55D-01  8.69D-01  6.78D-01  6.45D-01
                    CP:  8.10D-01  9.33D-01  8.57D-01
 E= -3248.89243510523     Delta-E=       -0.000002140061 Rises=F Damp=F
 DIIS: error= 1.43D-05 at cycle   9 NSaved=   9.
 NSaved= 9 IEnMin= 9 EnMin= -3248.89243510523     IErMin= 9 ErrMin= 1.43D-05
 ErrMax= 1.43D-05  0.00D+00 EMaxC= 1.00D-01 BMatC= 2.76D-07 BMatP= 2.30D-06
 IDIUse=1 WtCom= 1.00D+00 WtEn= 0.00D+00
 Coeff-Com:  0.986D-04-0.469D-03-0.546D-03-0.499D-03 0.468D-02 0.238D-01
 Coeff-Com:  0.117D+00 0.303D+00 0.553D+00
 Coeff:      0.986D-04-0.469D-03-0.546D-03-0.499D-03 0.468D-02 0.238D-01
 Coeff:      0.117D+00 0.303D+00 0.553D+00
 Gap=     0.093 Goal=   None    Shift=    0.000
 RMSDP=7.74D-07 MaxDP=3.73D-05 DE=-2.14D-06 OVMax= 2.62D-04

 Cycle  10  Pass 1  IDiag  1:
 RMSU=  5.15D-07    CP:  9.21D-01  3.55D-01  8.69D-01  6.77D-01  6.45D-01
                    CP:  8.17D-01  9.33D-01  8.92D-01  7.57D-01
 E= -3248.89243534597     Delta-E=       -0.000000240748 Rises=F Damp=F
 DIIS: error= 7.01D-06 at cycle  10 NSaved=  10.
 NSaved=10 IEnMin=10 EnMin= -3248.89243534597     IErMin=10 ErrMin= 7.01D-06
 ErrMax= 7.01D-06  0.00D+00 EMaxC= 1.00D-01 BMatC= 5.34D-08 BMatP= 2.76D-07
 IDIUse=1 WtCom= 1.00D+00 WtEn= 0.00D+00
 Coeff-Com:  0.642D-04-0.155D-03-0.530D-03-0.127D-02-0.173D-02 0.113D-02
 Coeff-Com:  0.245D-01 0.115D+00 0.354D+00 0.509D+00
 Coeff:      0.642D-04-0.155D-03-0.530D-03-0.127D-02-0.173D-02 0.113D-02
 Coeff:      0.245D-01 0.115D+00 0.354D+00 0.509D+00
 Gap=     0.093 Goal=   None    Shift=    0.000
 RMSDP=4.36D-07 MaxDP=4.09D-05 DE=-2.41D-07 OVMax= 8.70D-05

 Cycle  11  Pass 1  IDiag  1:
 RMSU=  2.17D-07    CP:  9.21D-01  3.55D-01  8.69D-01  6.78D-01  6.44D-01
                    CP:  8.18D-01  9.41D-01  9.00D-01  8.43D-01  8.19D-01
 E= -3248.89243539902     Delta-E=       -0.000000053045 Rises=F Damp=F
 DIIS: error= 1.75D-06 at cycle  11 NSaved=  11.
 NSaved=11 IEnMin=11 EnMin= -3248.89243539902     IErMin=11 ErrMin= 1.75D-06
 ErrMax= 1.75D-06  0.00D+00 EMaxC= 1.00D-01 BMatC= 3.33D-09 BMatP= 5.34D-08
 IDIUse=1 WtCom= 1.00D+00 WtEn= 0.00D+00
 Coeff-Com:  0.213D-04-0.259D-04-0.187D-03-0.539D-03-0.132D-02-0.190D-02
 Coeff-Com: -0.142D-02 0.237D-01 0.123D+00 0.263D+00 0.595D+00
 Coeff:      0.213D-04-0.259D-04-0.187D-03-0.539D-03-0.132D-02-0.190D-02
 Coeff:     -0.142D-02 0.237D-01 0.123D+00 0.263D+00 0.595D+00
 Gap=     0.093 Goal=   None    Shift=    0.000
 RMSDP=1.20D-07 MaxDP=5.18D-06 DE=-5.30D-08 OVMax= 2.67D-05

 Cycle  12  Pass 1  IDiag  1:
 RMSU=  7.23D-08    CP:  9.21D-01  3.55D-01  8.69D-01  6.78D-01  6.44D-01
                    CP:  8.19D-01  9.42D-01  9.10D-01  8.35D-01  8.51D-01
                    CP:  8.57D-01
 E= -3248.89243540233     Delta-E=       -0.000000003311 Rises=F Damp=F
 DIIS: error= 5.23D-07 at cycle  12 NSaved=  12.
 NSaved=12 IEnMin=12 EnMin= -3248.89243540233     IErMin=12 ErrMin= 5.23D-07
 ErrMax= 5.23D-07  0.00D+00 EMaxC= 1.00D-01 BMatC= 3.39D-10 BMatP= 3.33D-09
 IDIUse=1 WtCom= 1.00D+00 WtEn= 0.00D+00
 Coeff-Com:  0.197D-05 0.537D-05-0.293D-04-0.101D-03-0.458D-03-0.107D-02
 Coeff-Com: -0.360D-02-0.367D-02 0.137D-01 0.506D-01 0.284D+00 0.660D+00
 Coeff:      0.197D-05 0.537D-05-0.293D-04-0.101D-03-0.458D-03-0.107D-02
 Coeff:     -0.360D-02-0.367D-02 0.137D-01 0.506D-01 0.284D+00 0.660D+00
 Gap=     0.093 Goal=   None    Shift=    0.000
 RMSDP=4.83D-08 MaxDP=2.63D-06 DE=-3.31D-09 OVMax= 9.98D-06

 Cycle  13  Pass 1  IDiag  1:
 RMSU=  2.05D-08    CP:  9.21D-01  3.55D-01  8.69D-01  6.78D-01  6.45D-01
                    CP:  8.18D-01  9.43D-01  9.11D-01  8.47D-01  8.66D-01
                    CP:  9.12D-01  8.76D-01
 E= -3248.89243540281     Delta-E=       -0.000000000476 Rises=F Damp=F
 DIIS: error= 1.20D-07 at cycle  13 NSaved=  13.
 NSaved=13 IEnMin=13 EnMin= -3248.89243540281     IErMin=13 ErrMin= 1.20D-07
 ErrMax= 1.20D-07  0.00D+00 EMaxC= 1.00D-01 BMatC= 3.29D-11 BMatP= 3.39D-10
 IDIUse=1 WtCom= 1.00D+00 WtEn= 0.00D+00
 Coeff-Com: -0.854D-06 0.447D-05 0.423D-05 0.517D-05-0.922D-04-0.306D-03
 Coeff-Com: -0.145D-02-0.362D-02-0.285D-02 0.229D-02 0.936D-01 0.318D+00
 Coeff-Com:  0.595D+00
 Coeff:     -0.854D-06 0.447D-05 0.423D-05 0.517D-05-0.922D-04-0.306D-03
 Coeff:     -0.145D-02-0.362D-02-0.285D-02 0.229D-02 0.936D-01 0.318D+00
 Coeff:      0.595D+00
 Gap=     0.093 Goal=   None    Shift=    0.000
 RMSDP=1.21D-08 MaxDP=7.16D-07 DE=-4.76D-10 OVMax= 1.93D-06

 Cycle  14  Pass 1  IDiag  1:
 RMSU=  7.09D-09    CP:  9.21D-01  3.55D-01  8.69D-01  6.78D-01  6.45D-01
                    CP:  8.19D-01  9.43D-01  9.11D-01  8.47D-01  8.68D-01
                    CP:  9.25D-01  9.45D-01  7.40D-01
 E= -3248.89243540279     Delta-E=        0.000000000021 Rises=F Damp=F
 DIIS: error= 4.05D-08 at cycle  14 NSaved=  14.
 NSaved=14 IEnMin=13 EnMin= -3248.89243540281     IErMin=14 ErrMin= 4.05D-08
 ErrMax= 4.05D-08  0.00D+00 EMaxC= 1.00D-01 BMatC= 5.19D-12 BMatP= 3.29D-11
 IDIUse=1 WtCom= 1.00D+00 WtEn= 0.00D+00
 Coeff-Com: -0.627D-06 0.170D-05 0.433D-05 0.111D-04-0.119D-04-0.720D-04
 Coeff-Com: -0.455D-03-0.174D-02-0.321D-02-0.486D-02 0.218D-01 0.107D+00
 Coeff-Com:  0.337D+00 0.544D+00
 Coeff:     -0.627D-06 0.170D-05 0.433D-05 0.111D-04-0.119D-04-0.720D-04
 Coeff:     -0.455D-03-0.174D-02-0.321D-02-0.486D-02 0.218D-01 0.107D+00
 Coeff:      0.337D+00 0.544D+00
 Gap=     0.093 Goal=   None    Shift=    0.000
 RMSDP=5.63D-09 MaxDP=4.65D-07 DE= 2.09D-11 OVMax= 7.33D-07

 Error on total polarization charges =  0.02613
 SCF Done:  E(RB3LYP) =  -3248.89243540     A.U. after   14 cycles
            NFock= 14  Conv=0.56D-08     -V/T= 2.0031
 KE= 3.238704327075D+03 PE=-1.670134340583D+04 EE= 5.689889548252D+03
 SMD-CDS (non-electrostatic) energy       (kcal/mol) =     -10.97
 (included in total energy above)
 Leave Link  502 at Mon Feb 15 05:41:23 2021, MaxMem=  5242880000 cpu:     29370.8
 (Enter /opt/nce/packages/global/g09/l601.exe)
 Copying SCF densities to generalized density rwf, IOpCl= 0 IROHF=0.

 **********************************************************************

            Population analysis using the SCF density.

 **********************************************************************

 Alpha  occ. eigenvalues -- -101.54384-101.54384-101.54382-101.54382 -19.12264
 Alpha  occ. eigenvalues --  -19.12264 -19.12222 -19.12222 -14.38129 -14.38129
 Alpha  occ. eigenvalues --  -10.30552 -10.30552 -10.30337 -10.30337 -10.26747
 Alpha  occ. eigenvalues --  -10.26746 -10.26742 -10.26741 -10.23624 -10.23623
 Alpha  occ. eigenvalues --  -10.23591 -10.23589 -10.22930 -10.22930 -10.22160
 Alpha  occ. eigenvalues --  -10.22160 -10.21772 -10.21772 -10.21740 -10.21739
 Alpha  occ. eigenvalues --  -10.21328 -10.21328 -10.21327 -10.21327 -10.20206
 Alpha  occ. eigenvalues --  -10.20206  -9.47605  -9.47605  -9.47603  -9.47603
 Alpha  occ. eigenvalues --   -7.23776  -7.23776  -7.23773  -7.23773  -7.22913
 Alpha  occ. eigenvalues --   -7.22913  -7.22910  -7.22910  -7.22848  -7.22848
 Alpha  occ. eigenvalues --   -7.22845  -7.22845  -1.07953  -1.07953  -1.06220
 Alpha  occ. eigenvalues --   -1.06220  -0.95552  -0.95453  -0.94532  -0.91953
 Alpha  occ. eigenvalues --   -0.91913  -0.89992  -0.88374  -0.87341  -0.85559
 Alpha  occ. eigenvalues --   -0.83409  -0.82778  -0.79917  -0.79388  -0.76016
 Alpha  occ. eigenvalues --   -0.75614  -0.73960  -0.73536  -0.71727  -0.70306
 Alpha  occ. eigenvalues --   -0.67971  -0.66708  -0.65869  -0.64709  -0.63509
 Alpha  occ. eigenvalues --   -0.62604  -0.61755  -0.57952  -0.56267  -0.55937
 Alpha  occ. eigenvalues --   -0.55073  -0.54596  -0.53535  -0.51828  -0.50212
 Alpha  occ. eigenvalues --   -0.49400  -0.49244  -0.48976  -0.48931  -0.47938
 Alpha  occ. eigenvalues --   -0.47916  -0.47864  -0.47652  -0.46840  -0.45968
 Alpha  occ. eigenvalues --   -0.45375  -0.45070  -0.44487  -0.43785  -0.43716
 Alpha  occ. eigenvalues --   -0.43404  -0.43328  -0.42478  -0.42275  -0.42148
 Alpha  occ. eigenvalues --   -0.41479  -0.40749  -0.40480  -0.40387  -0.40105
 Alpha  occ. eigenvalues --   -0.39916  -0.39858  -0.38681  -0.38485  -0.37557
 Alpha  occ. eigenvalues --   -0.37377  -0.36054  -0.33845  -0.33676  -0.33434
 Alpha  occ. eigenvalues --   -0.33068  -0.32432  -0.31958  -0.30913  -0.30271
 Alpha  occ. eigenvalues --   -0.30234  -0.29236  -0.28863  -0.28425  -0.28415
 Alpha  occ. eigenvalues --   -0.28229  -0.28142  -0.26705  -0.26026  -0.22814
 Alpha virt. eigenvalues --   -0.13482  -0.08842  -0.07339  -0.05241  -0.05134
 Alpha virt. eigenvalues --   -0.03097  -0.02484  -0.01229   0.00855   0.01431
 Alpha virt. eigenvalues --    0.02145   0.02283   0.04305   0.04853   0.04883
 Alpha virt. eigenvalues --    0.05968   0.06844   0.06988   0.07726   0.08295
 Alpha virt. eigenvalues --    0.08559   0.08930   0.09349   0.09400   0.09652
 Alpha virt. eigenvalues --    0.10958   0.11483   0.11865   0.12360   0.12373
 Alpha virt. eigenvalues --    0.12727   0.12979   0.13877   0.14101   0.14664
 Alpha virt. eigenvalues --    0.15659   0.15684   0.15731   0.16234   0.16818
 Alpha virt. eigenvalues --    0.16859   0.17019   0.17418   0.18097   0.18114
 Alpha virt. eigenvalues --    0.18829   0.18864   0.19443   0.19547   0.20140
 Alpha virt. eigenvalues --    0.20162   0.20532   0.20666   0.21147   0.21189
 Alpha virt. eigenvalues --    0.21448   0.21703   0.22270   0.22318   0.22523
 Alpha virt. eigenvalues --    0.22764   0.23121   0.23558   0.23688   0.23795
 Alpha virt. eigenvalues --    0.23869   0.24131   0.25074   0.25080   0.25344
 Alpha virt. eigenvalues --    0.25750   0.25933   0.26711   0.27044   0.27424
 Alpha virt. eigenvalues --    0.27609   0.27755   0.27844   0.27902   0.28595
 Alpha virt. eigenvalues --    0.29164   0.29360   0.29756   0.29785   0.29922
 Alpha virt. eigenvalues --    0.30378   0.30649   0.31081   0.31851   0.31995
 Alpha virt. eigenvalues --    0.32071   0.32305   0.32313   0.32617   0.33522
 Alpha virt. eigenvalues --    0.33762   0.34299   0.34484   0.34679   0.34956
 Alpha virt. eigenvalues --    0.35316   0.35417   0.35690   0.36341   0.36434
 Alpha virt. eigenvalues --    0.36599   0.36698   0.36922   0.37323   0.37533
 Alpha virt. eigenvalues --    0.37826   0.38123   0.38365   0.38609   0.39428
 Alpha virt. eigenvalues --    0.39443   0.39786   0.40260   0.40686   0.40869
 Alpha virt. eigenvalues --    0.41393   0.41733   0.42374   0.42443   0.42875
 Alpha virt. eigenvalues --    0.43632   0.43922   0.44250   0.44315   0.45083
 Alpha virt. eigenvalues --    0.45167   0.45239   0.45746   0.45772   0.46171
 Alpha virt. eigenvalues --    0.47583   0.47733   0.48161   0.48264   0.48693
 Alpha virt. eigenvalues --    0.48771   0.49247   0.49398   0.49729   0.50037
 Alpha virt. eigenvalues --    0.50582   0.50767   0.51387   0.51469   0.51935
 Alpha virt. eigenvalues --    0.51982   0.52883   0.52897   0.53233   0.53530
 Alpha virt. eigenvalues --    0.53765   0.53972   0.54072   0.54954   0.55039
 Alpha virt. eigenvalues --    0.55947   0.56507   0.56610   0.56998   0.58040
 Alpha virt. eigenvalues --    0.58236   0.58361   0.58421   0.59185   0.59453
 Alpha virt. eigenvalues --    0.59566   0.59985   0.60025   0.60050   0.60633
 Alpha virt. eigenvalues --    0.61082   0.61149   0.61308   0.61913   0.62667
 Alpha virt. eigenvalues --    0.62772   0.63197   0.63419   0.63603   0.63931
 Alpha virt. eigenvalues --    0.64299   0.65137   0.65313   0.65769   0.66101
 Alpha virt. eigenvalues --    0.66419   0.66681   0.67088   0.67713   0.67802
 Alpha virt. eigenvalues --    0.68107   0.68409   0.69023   0.69232   0.69939
 Alpha virt. eigenvalues --    0.69946   0.70114   0.71103   0.71663   0.71684
 Alpha virt. eigenvalues --    0.71998   0.72402   0.72488   0.73040   0.73103
 Alpha virt. eigenvalues --    0.73279   0.73881   0.74125   0.74188   0.74749
 Alpha virt. eigenvalues --    0.74870   0.75476   0.75835   0.76383   0.76996
 Alpha virt. eigenvalues --    0.77026   0.77467   0.77948   0.78093   0.79137
[...]
     2  C   -0.015643  -0.000311   0.002508   0.000072   0.000019   0.000026
     3  C    0.029250   0.000619   0.002715  -0.000075  -0.008884  -0.000079
     4  C   -0.095061  -0.011223  -0.065485  -0.017903  -0.098834   0.000002
     5  C    0.170324  -0.216706  -0.044046  -0.000792  -0.076894   0.000000
     6  C   -0.079232   0.065074   0.009552   0.000317   0.035769  -0.000000
     7  C    0.005752   0.000065  -0.006415  -0.000162  -0.000301  -0.000989
     8  C   -0.051616  -0.001475   0.177351  -0.213350  -0.083059  -0.000001
     9  H   -0.009612   0.021420   0.000411   0.000003   0.001722  -0.000000
    10  C    0.003473   0.000278  -0.052822   0.067326   0.034620   0.000004
    11  C   -0.002608  -0.000020   0.022689   0.005809   0.000349   0.000046
    12  H    0.000181   0.000003  -0.009362   0.020523   0.001665   0.000000
    13  C   -0.000989  -0.000040   0.000035  -0.000000   0.000000   0.005752
    14  C   -0.000079  -0.000000  -0.000089  -0.000001  -0.000001   0.029250
    15  C    0.000046   0.000001   0.000004   0.000000  -0.000000  -0.002608
    16  C    0.000026  -0.000002  -0.000706  -0.000033  -0.000004  -0.015643
    17  C    0.000002   0.000000   0.000001   0.000000  -0.000000  -0.095061
    18  C    0.000004   0.000000  -0.000000  -0.000000  -0.000000   0.003473
    19  C    0.000005   0.000000   0.000034   0.000001  -0.000000   0.031485
    20  C    0.000000  -0.000000  -0.000001  -0.000000   0.000000   0.170324
    21  C   -0.000001  -0.000000   0.000000  -0.000000   0.000000  -0.051616
    22  H    0.000000  -0.000000  -0.000000   0.000000   0.000000   0.000181
    23  C   -0.000000   0.000000   0.000004   0.000000  -0.000000  -0.079232
    24  H   -0.000000   0.000000   0.000000   0.000000   0.000000  -0.009612
    25  C    4.757639   0.748890  -0.069520  -0.006012   0.417328  -0.000000
    26  O    0.748890   7.865484  -0.003739  -0.000239  -0.117599  -0.000000
    27  C   -0.069520  -0.003739   4.695034   0.746204   0.438720  -0.000000
    28  O   -0.006012  -0.000239   0.746204   7.881105  -0.112465  -0.000000
    29  N    0.417328  -0.117599   0.438720  -0.112465   6.480606   0.000000
    30  C   -0.000000  -0.000000  -0.000000  -0.000000   0.000000   4.757639
    31  O   -0.000000   0.000000  -0.000000   0.000000  -0.000000   0.748890
    32  C   -0.000000  -0.000000  -0.000000  -0.000000   0.000000  -0.069520
    33  O   -0.000000   0.000000  -0.000000  -0.000000  -0.000000  -0.006012
    34  N    0.000000  -0.000000   0.000000  -0.000000   0.000000   0.417328
    35  C   -0.053949   0.000944  -0.053101  -0.020709   0.252773   0.000000
    36  H   -0.011242   0.004276   0.006358   0.001034  -0.033476   0.000000
    37  H    0.009011   0.001703  -0.023500   0.020380  -0.033065   0.000000
    38  H   -0.008108   0.003266   0.004524   0.000900  -0.035050  -0.000000
    39  C    0.000000  -0.000000   0.000000  -0.000000   0.000000  -0.053949
    40  H    0.000000   0.000000   0.000000   0.000000   0.000000  -0.011242
    41  H    0.000000  -0.000000   0.000000  -0.000000  -0.000000   0.009011
    42  H   -0.000000   0.000000  -0.000000  -0.000000  -0.000000  -0.008108
    43  Cl  -0.000023  -0.000000   0.000001  -0.000000  -0.000000  -0.000002
    44  Cl   0.000000  -0.000000  -0.000023  -0.000000  -0.000000  -0.001216
    45  Cl  -0.000002   0.000000  -0.001035   0.000026   0.000003  -0.000023
    46  Cl  -0.001216   0.000025   0.000001   0.000000   0.000003   0.000000
              31         32         33         34         35         36
     1  C    0.000000   0.000034   0.000001  -0.000000   0.000028   0.000004
     2  C   -0.000002  -0.000706  -0.000033  -0.000004  -0.000027  -0.000010
     3  C   -0.000000  -0.000089  -0.000001  -0.000001   0.000707   0.000022
     4  C    0.000000   0.000001   0.000000  -0.000000   0.001146   0.000143
     5  C   -0.000000  -0.000001  -0.000000   0.000000   0.005059  -0.001412
     6  C    0.000000   0.000004   0.000000  -0.000000  -0.002815  -0.000100
     7  C   -0.000040   0.000035  -0.000000   0.000000  -0.000005   0.000007
     8  C   -0.000000   0.000000  -0.000000   0.000000   0.003989  -0.000164
     9  H    0.000000   0.000000   0.000000   0.000000  -0.000201  -0.000014
    10  C    0.000000  -0.000000  -0.000000  -0.000000  -0.001318  -0.000019
    11  C    0.000001   0.000004   0.000000  -0.000000   0.000052  -0.000004
    12  H   -0.000000  -0.000000   0.000000   0.000000  -0.000048  -0.000001
    13  C    0.000065  -0.006415  -0.000162  -0.000301   0.000001  -0.000000
    14  C    0.000619   0.002715  -0.000075  -0.008884  -0.000000  -0.000000
    15  C   -0.000020   0.022689   0.005809   0.000349   0.000000   0.000000
    16  C   -0.000311   0.002508   0.000072   0.000019   0.000001   0.000000
    17  C   -0.011223  -0.065485  -0.017903  -0.098834   0.000000  -0.000000
    18  C    0.000278  -0.052822   0.067326   0.034620   0.000000   0.000000
    19  C    0.006594  -0.001924  -0.000022   0.000187   0.000000  -0.000000
    20  C   -0.216706  -0.044046  -0.000792  -0.076894   0.000000   0.000000
    21  C   -0.001475   0.177351  -0.213350  -0.083059   0.000000  -0.000000
    22  H    0.000003  -0.009362   0.020523   0.001665   0.000000  -0.000000
    23  C    0.065074   0.009552   0.000317   0.035769   0.000000   0.000000
    24  H    0.021420   0.000411   0.000003   0.001722   0.000000   0.000000
    25  C   -0.000000  -0.000000  -0.000000   0.000000  -0.053949  -0.011242
    26  O    0.000000  -0.000000   0.000000  -0.000000   0.000944   0.004276
    27  C   -0.000000  -0.000000  -0.000000   0.000000  -0.053101   0.006358
    28  O    0.000000  -0.000000  -0.000000  -0.000000  -0.020709   0.001034
    29  N   -0.000000   0.000000  -0.000000   0.000000   0.252773  -0.033476
    30  C    0.748890  -0.069520  -0.006012   0.417328   0.000000   0.000000
    31  O    7.865484  -0.003739  -0.000239  -0.117599  -0.000000   0.000000
    32  C   -0.003739   4.695033   0.746204   0.438720   0.000000   0.000000
    33  O   -0.000239   0.746204   7.881105  -0.112465  -0.000000   0.000000
    34  N   -0.117599   0.438720  -0.112465   6.480606   0.000000   0.000000
    35  C   -0.000000   0.000000  -0.000000   0.000000   4.925803   0.407022
    36  H    0.000000   0.000000   0.000000   0.000000   0.407022   0.531110
    37  H   -0.000000   0.000000  -0.000000  -0.000000   0.406541  -0.020828
    38  H    0.000000  -0.000000  -0.000000  -0.000000   0.411081  -0.031142
    39  C    0.000944  -0.053101  -0.020709   0.252773   0.000000   0.000000
    40  H    0.004276   0.006358   0.001034  -0.033476   0.000000   0.000000
    41  H    0.001703  -0.023500   0.020380  -0.033065   0.000000  -0.000000
    42  H    0.003266   0.004524   0.000900  -0.035050  -0.000000  -0.000000
    43  Cl   0.000000  -0.001035   0.000026   0.000003  -0.000000   0.000000
    44  Cl   0.000025   0.000001   0.000000   0.000003  -0.000000  -0.000000
    45  Cl  -0.000000   0.000001  -0.000000  -0.000000  -0.000001   0.000000
    46  Cl  -0.000000  -0.000023  -0.000000  -0.000000  -0.000001  -0.000000
              37         38         39         40         41         42
     1  C   -0.000002   0.000004   0.000000  -0.000000  -0.000000   0.000000
     2  C    0.000000   0.000002   0.000001   0.000000   0.000000  -0.000000
     3  C    0.000028   0.000040  -0.000000  -0.000000  -0.000000   0.000000
     4  C   -0.000298   0.000495   0.000000  -0.000000  -0.000000   0.000000
     5  C    0.001147  -0.002140   0.000000   0.000000   0.000000   0.000000
     6  C   -0.000060  -0.000132   0.000000   0.000000  -0.000000  -0.000000
     7  C    0.000002  -0.000006   0.000001  -0.000000   0.000000   0.000000
     8  C    0.006631  -0.000239   0.000000  -0.000000   0.000000  -0.000000
     9  H   -0.000003  -0.000010   0.000000   0.000000  -0.000000  -0.000000
    10  C   -0.000751  -0.000019   0.000000   0.000000  -0.000000  -0.000000
    11  C   -0.000007  -0.000000   0.000000   0.000000  -0.000000  -0.000000
    12  H   -0.000066   0.000000   0.000000  -0.000000  -0.000000   0.000000
    13  C    0.000000   0.000000  -0.000005   0.000007   0.000002  -0.000006
    14  C   -0.000000   0.000000   0.000707   0.000022   0.000028   0.000040
    15  C   -0.000000  -0.000000   0.000052  -0.000004  -0.000007  -0.000000
    16  C    0.000000  -0.000000  -0.000027  -0.000010   0.000000   0.000002
    17  C   -0.000000   0.000000   0.001146   0.000143  -0.000298   0.000495
    18  C   -0.000000  -0.000000  -0.001318  -0.000019  -0.000751  -0.000019
    19  C   -0.000000   0.000000   0.000028   0.000004  -0.000002   0.000004
    20  C    0.000000   0.000000   0.005059  -0.001412   0.001147  -0.002140
    21  C    0.000000  -0.000000   0.003989  -0.000164   0.006631  -0.000239
    22  H   -0.000000   0.000000  -0.000048  -0.000001  -0.000066   0.000000
    23  C   -0.000000  -0.000000  -0.002815  -0.000100  -0.000060  -0.000132
    24  H   -0.000000  -0.000000  -0.000201  -0.000014  -0.000003  -0.000010
    25  C    0.009011  -0.008108   0.000000   0.000000   0.000000  -0.000000
    26  O    0.001703   0.003266  -0.000000   0.000000  -0.000000   0.000000
    27  C   -0.023500   0.004524   0.000000   0.000000   0.000000  -0.000000
    28  O    0.020380   0.000900  -0.000000   0.000000  -0.000000  -0.000000
    29  N   -0.033065  -0.035050   0.000000   0.000000  -0.000000  -0.000000
    30  C    0.000000  -0.000000  -0.053949  -0.011242   0.009011  -0.008108
    31  O   -0.000000   0.000000   0.000944   0.004276   0.001703   0.003266
    32  C    0.000000  -0.000000  -0.053101   0.006358  -0.023500   0.004524
    33  O   -0.000000  -0.000000  -0.020709   0.001034   0.020380   0.000900
    34  N   -0.000000  -0.000000   0.252773  -0.033476  -0.033065  -0.035050
    35  C    0.406541   0.411081   0.000000   0.000000   0.000000  -0.000000
    36  H   -0.020828  -0.031142   0.000000   0.000000  -0.000000  -0.000000
    37  H    0.494877  -0.022088   0.000000  -0.000000   0.000000   0.000000
    38  H   -0.022088   0.529829  -0.000000  -0.000000   0.000000   0.000000
    39  C    0.000000  -0.000000   4.925803   0.407022   0.406541   0.411081
    40  H   -0.000000  -0.000000   0.407022   0.531110  -0.020828  -0.031142
    41  H    0.000000   0.000000   0.406541  -0.020828   0.494877  -0.022088
    42  H    0.000000   0.000000   0.411081  -0.031142  -0.022088   0.529829
    43  Cl   0.000000   0.000000  -0.000001   0.000000  -0.000000   0.000000
    44  Cl  -0.000000   0.000000  -0.000001  -0.000000  -0.000000   0.000000
    45  Cl  -0.000000   0.000000  -0.000000   0.000000   0.000000   0.000000
    46  Cl  -0.000000   0.000000  -0.000000  -0.000000  -0.000000   0.000000
              43         44         45         46
     1  C    0.005582   0.000050  -0.000013   0.322493
     2  C    0.007049  -0.000503   0.000554  -0.118946
     3  C   -0.005062  -0.005094   0.012783   0.012874
     4  C    0.000541   0.000535  -0.001788  -0.001488
     5  C   -0.002785   0.000020  -0.000102   0.008562
     6  C    0.012257  -0.000025   0.000009  -0.027417
     7  C   -0.000491   0.006769  -0.119756   0.000572
     8  C    0.000023  -0.002764   0.009174  -0.000080
     9  H    0.000212  -0.000000   0.000000   0.006698
    10  C   -0.000025   0.012231  -0.027591   0.000009
    11  C    0.000051   0.005571   0.322889  -0.000013
    12  H   -0.000000   0.000214   0.006522   0.000000
    13  C   -0.119757   0.000572  -0.000491   0.006769
    14  C    0.012783   0.012874  -0.005062  -0.005094
    15  C    0.322890  -0.000013   0.000051   0.005572
    16  C    0.000554  -0.118946   0.007049  -0.000503
    17  C   -0.001788  -0.001488   0.000541   0.000535
    18  C   -0.027591   0.000009  -0.000025   0.012231
    19  C   -0.000013   0.322493   0.005582   0.000050
    20  C   -0.000102   0.008562  -0.002785   0.000020
    21  C    0.009174  -0.000080   0.000023  -0.002764
    22  H    0.006522   0.000000  -0.000000   0.000214
    23  C    0.000009  -0.027418   0.012257  -0.000025
    24  H    0.000000   0.006698   0.000212  -0.000000
    25  C   -0.000023   0.000000  -0.000002  -0.001216
    26  O   -0.000000  -0.000000   0.000000   0.000025
    27  C    0.000001  -0.000023  -0.001035   0.000001
    28  O   -0.000000  -0.000000   0.000026   0.000000
    29  N   -0.000000  -0.000000   0.000003   0.000003
    30  C   -0.000002  -0.001216  -0.000023   0.000000
    31  O    0.000000   0.000025  -0.000000  -0.000000
    32  C   -0.001035   0.000001   0.000001  -0.000023
    33  O    0.000026   0.000000  -0.000000  -0.000000
    34  N    0.000003   0.000003  -0.000000  -0.000000
    35  C   -0.000000  -0.000000  -0.000001  -0.000001
    36  H    0.000000  -0.000000   0.000000  -0.000000
    37  H    0.000000  -0.000000  -0.000000  -0.000000
    38  H    0.000000   0.000000   0.000000   0.000000
    39  C   -0.000001  -0.000001  -0.000000  -0.000000
    40  H    0.000000  -0.000000   0.000000  -0.000000
    41  H   -0.000000  -0.000000   0.000000  -0.000000
    42  H    0.000000   0.000000   0.000000   0.000000
    43  Cl  16.891542  -0.000000   0.000000  -0.029135
    44  Cl  -0.000000  16.891415  -0.029133   0.000000
    45  Cl   0.000000  -0.029133  16.891541  -0.000000
    46  Cl  -0.029135   0.000000  -0.000000  16.891417
 Mulliken charges:
               1
     1  C    0.090072
     2  C    0.080119
     3  C    0.016905
     4  C    0.028936
     5  C    0.070476
     6  C   -0.255501
     7  C    0.079480
     8  C    0.068409
     9  H    0.159253
    10  C   -0.251594
    11  C    0.087660
    12  H    0.160168
    13  C    0.079481
    14  C    0.016905
    15  C    0.087660
    16  C    0.080118
    17  C    0.028936
    18  C   -0.251595
    19  C    0.090072
    20  C    0.070476
    21  C    0.068410
    22  H    0.160168
    23  C   -0.255500
    24  H    0.159253
    25  C    0.231497
    26  O   -0.367288
    27  C    0.225622
    28  O   -0.371937
    29  N   -0.064132
    30  C    0.231497
    31  O   -0.367288
    32  C    0.225622
    33  O   -0.371937
    34  N   -0.064132
    35  C   -0.282973
    36  H    0.148437
    37  H    0.160347
    38  H    0.148794
    39  C   -0.282973
    40  H    0.148437
    41  H    0.160347
    42  H    0.148794
    43  Cl  -0.081410
    44  Cl  -0.081341
    45  Cl  -0.081410
    46  Cl  -0.081340
 Sum of Mulliken charges =  -0.00000
 Mulliken charges with hydrogens summed into heavy atoms:
               1
     1  C    0.090072
     2  C    0.080119
     3  C    0.016905
     4  C    0.028936
     5  C    0.070476
     6  C   -0.096248
     7  C    0.079480
     8  C    0.068409
    10  C   -0.091427
    11  C    0.087660
    13  C    0.079481
    14  C    0.016905
    15  C    0.087660
    16  C    0.080118
    17  C    0.028936
    18  C   -0.091428
    19  C    0.090072
    20  C    0.070476
    21  C    0.068410
    23  C   -0.096247
    25  C    0.231497
    26  O   -0.367288
    27  C    0.225622
    28  O   -0.371937
    29  N   -0.064132
    30  C    0.231497
    31  O   -0.367288
    32  C    0.225622
    33  O   -0.371937
    34  N   -0.064132
    35  C    0.174604
    39  C    0.174604
    43  Cl  -0.081410
    44  Cl  -0.081341
    45  Cl  -0.081410
    46  Cl  -0.081340
 Electronic spatial extent (au):  <R**2>=          19876.0789
 Charge=             -0.0000 electrons
 Dipole moment (field-independent basis, Debye):
    X=              0.0000    Y=              0.0000    Z=             -0.0556  Tot=              0.0556
 Quadrupole moment (field-independent basis, Debye-Ang):
   XX=           -251.2186   YY=           -252.5123   ZZ=           -230.6662
   XY=              0.0725   XZ=             -0.0000   YZ=              0.0000
 Traceless Quadrupole moment (field-independent basis, Debye-Ang):
   XX=             -6.4196   YY=             -7.7133   ZZ=             14.1328
   XY=              0.0725   XZ=             -0.0000   YZ=              0.0000
 Octapole moment (field-independent basis, Debye-Ang**2):
  XXX=              0.0000  YYY=              0.0003  ZZZ=              1.2664  XYY=             -0.0000
  XXY=              0.0000  XXZ=             -3.4020  XZZ=              0.0000  YZZ=             -0.0001
  YYZ=             -1.1680  XYZ=            -52.8445
 Hexadecapole moment (field-independent basis, Debye-Ang**3):
 XXXX=         -18131.2064 YYYY=          -7013.4986 ZZZZ=          -1172.8149 XXXY=            -12.3563
 XXXZ=              0.0007 YYYX=              3.8632 YYYZ=             -0.0000 ZZZX=              0.0004
 ZZZY=             -0.0000 XXYY=          -5030.3696 XXZZ=          -3239.1357 YYZZ=          -1355.4145
 XXYZ=              0.0000 YYXZ=             -0.0000 ZZXY=              3.1789
 N-N= 4.542907334573D+03 E-N=-1.673989872080D+04  KE= 3.239410560569D+03
 Leave Link  601 at Tue Feb 16 12:23:27 2021, MaxMem=  5242880000 cpu:        20.9
 (Enter /opt/nce/packages/global/g09/l9999.exe)
 1\1\GINC-CN019\SP\RB3LYP TD-FC\Gen\C26H10Cl4N2O4\PNG4RJV\16-Feb-2021\0
 \\#p b3lyp chkbasis geom=allcheck Guess=Read int=ultrafine scrf=(SMD,s
 olvent=Dichloromethane) td=(NStates=30) EmpiricalDispersion=GD3BJ\\Tit
 le\\0,1\C,0,-2.2903106997,1.435731964,0.7179323765\C,0,-1.2242727177,0
 .7103621994,0.181743184\C,0,0.0033532958,1.41525729,0.0015388773\C,0,0
 .0065198491,2.8287707733,0.0009921556\C,0,-1.1494862223,3.5286543619,0
 .3926884094\C,0,-2.2592978402,2.8320812648,0.809556475\C,0,1.227557875
 5,0.7044772602,-0.1776645462\C,0,1.1656796376,3.5245206377,-0.38962380
 51\H,0,-3.1158419277,3.3647376135,1.1958768242\C,0,2.2724640199,2.8216
 22181,-0.8046707259\C,0,2.2969916252,1.4251892817,-0.7132957184\H,0,3.
 1321470282,3.3499459893,-1.1897408989\C,0,-1.2275562898,-0.7044770817,
 -0.1776647329\C,0,-0.0033517978,-1.4152572949,0.0015378234\C,0,-2.2969
 912404,-1.4251888051,-0.7132934642\C,0,1.2242743054,-0.7103623837,0.18
 17429983\C,0,-0.0065186862,-2.8287707794,0.000990827\C,0,-2.2724638839
 ,-2.8216216269,-0.8046693988\C,0,2.2903110959,-1.4357324466,0.71793460
 23\C,0,1.1494870543,-3.5286546443,0.3926875208\C,0,-1.1656788058,-3.52
 45203531,-0.389624707\H,0,-3.1321479684,-3.3499452571,-1.1897374618\C,
 0,2.2592979844,-2.8320818209,0.8095577784\H,0,3.1158409966,-3.36473834
 67,1.1958802163\C,0,-1.1506861936,5.0054851207,0.4119620989\O,0,-2.116
 028085,5.6563860508,0.7716866326\C,0,1.1813113208,5.0032134772,-0.4109
 400284\O,0,2.1620930594,5.634023035,-0.7631797293\N,0,0.0121746158,5.6
 481081027,-0.0057143919\C,0,1.150686642,-5.0054854019,0.4119611364\O,0
 ,2.1160280751,-5.6563865886,0.7716865044\C,0,-1.1813108728,-5.00321318
 45,-0.4109410272\O,0,-2.1620930224,-5.6340225037,-0.7631799337\N,0,-0.
 0121743073,-5.6481080878,-0.0057153712\C,0,-0.0178306979,7.1118370607,
 0.0015047041\H,0,-0.8475551283,7.46358583,-0.6083991014\H,0,0.92086420
 61,7.4725825006,-0.4009997392\H,0,-0.1504333082,7.4751471337,1.0196413
 493\C,0,0.0178305281,-7.1118370568,0.0015041554\H,0,0.847554825,-7.463
 5862869,-0.6083995736\H,0,-0.9208645035,-7.4725822987,-0.4010001558\H,
 0,0.1504330431,-7.4751468786,1.0196409062\Cl,0,-3.6753658736,-0.638437
 5299,-1.4217951123\Cl,0,3.6717469738,-0.6550364175,1.4270553395\Cl,0,3
 .675362417,0.6384389017,-1.4218058977\Cl,0,-3.6717504018,0.6550350454,
 1.4270446258\\Version=ES64L-G09RevE.01\State=1-A\HF=-3248.8951763\RMSD
 =4.282e-09\PG=C01 [X(C26H10Cl4N2O4)]\\@


 THERE IS AN OLD, OLD RECIPE IN MAINE FOR STEWING COOT. PLACE THE
 BIRD IN A KETTLE OF WATER WITH A RED BUILDING BRICK FREE OF MORTAR AND
 BLEMISHES. PARBOIL THE COOT AND BRICK TOGETHER FOR THREE HOURS.
 POUR OFF THE WATER, REFILL THE KETTLE, AND AGAIN PARBOIL FOR THREE HOURS.
 ONCE AGAIN POUR OFF THE WATER, FOR THE LAST TIME ADD FRESH WATER,
 AND LET THE COOT AND BRICK SIMMER TOGETHER OVERNIGHT. IN THE MORNING,
 THROW AWAY THE COOT AND EAT THE BRICK.
 Job cpu time:       2 days 16 hours 13 minutes 14.4 seconds.
 File lengths (MBytes):  RWF=   7161 Int=      0 D2E=      0 Chk=   1292 Scr=      1
 Normal termination of Gaussian 09 at Tue Feb 16 12:23:30 2021.
