
                                 *****************
                                 * O   R   C   A *
                                 *****************

                                            #,                                       
                                            ###                                      
                                            ####                                     
                                            #####                                    
                                            ######                                   
                                           ########,                                 
                                     ,,################,,,,,                         
                               ,,#################################,,                 
                          ,,##########################################,,             
                       ,#########################################, ''#####,          
                    ,#############################################,,   '####,        
                  ,##################################################,,,,####,       
                ,###########''''           ''''###############################       
              ,#####''   ,,,,##########,,,,          '''####'''          '####       
            ,##' ,,,,###########################,,,                        '##       
           ' ,,###''''                  '''############,,,                           
         ,,##''                                '''############,,,,        ,,,,,,###''
      ,#''                                            '''#######################'''  
     '                                                          ''''####''''         
             ,#######,   #######,   ,#######,      ##                                
            ,#'     '#,  ##    ##  ,#'     '#,    #''#        ######   ,####,        
            ##       ##  ##   ,#'  ##            #'  '#       #        #'  '#        
            ##       ##  #######   ##           ,######,      #####,   #    #        
            '#,     ,#'  ##    ##  '#,     ,#' ,#      #,         ##   #,  ,#        
             '#######'   ##     ##  '#######'  #'      '#     #####' # '####'        



                  #######################################################
                  #                        -***-                        #
                  #          Department of theory and spectroscopy      #
                  #    Directorship and core code : Frank Neese         #
                  #        Max Planck Institute fuer Kohlenforschung    #
                  #                Kaiser Wilhelm Platz 1               #
                  #                 D-45470 Muelheim/Ruhr               #
                  #                      Germany                        #
                  #                                                     #
                  #                  All rights reserved                #
                  #                        -***-                        #
                  #######################################################


                         Program Version 5.0.2 -  RELEASE  -


 With contributions from (in alphabetic order):
   Daniel Aravena         : Magnetic Suceptibility
   Michael Atanasov       : Ab Initio Ligand Field Theory (pilot matlab implementation)
   Alexander A. Auer      : GIAO ZORA, VPT2 properties, NMR spectrum
   Ute Becker             : Parallelization
   Giovanni Bistoni       : ED, misc. LED, open-shell LED, HFLD
   Martin Brehm           : Molecular dynamics
   Dmytro Bykov           : SCF Hessian
   Vijay G. Chilkuri      : MRCI spin determinant printing, contributions to CSF-ICE
   Dipayan Datta          : RHF DLPNO-CCSD density
   Achintya Kumar Dutta   : EOM-CC, STEOM-CC
   Dmitry Ganyushin       : Spin-Orbit,Spin-Spin,Magnetic field MRCI
   Miquel Garcia          : C-PCM and meta-GGA Hessian, CC/C-PCM, Gaussian charge scheme
   Yang Guo               : DLPNO-NEVPT2, F12-NEVPT2, CIM, IAO-localization
   Andreas Hansen         : Spin unrestricted coupled pair/coupled cluster methods
   Benjamin Helmich-Paris : MC-RPA, TRAH-SCF, COSX integrals
   Lee Huntington         : MR-EOM, pCC
   Robert Izsak           : Overlap fitted RIJCOSX, COSX-SCS-MP3, EOM
   Marcus Kettner         : VPT2
   Christian Kollmar      : KDIIS, OOCD, Brueckner-CCSD(T), CCSD density, CASPT2, CASPT2-K
   Simone Kossmann        : Meta GGA functionals, TD-DFT gradient, OOMP2, MP2 Hessian
   Martin Krupicka        : Initial AUTO-CI
   Lucas Lang             : DCDCAS
   Marvin Lechner         : AUTO-CI (C++ implementation), FIC-MRCC
   Dagmar Lenk            : GEPOL surface, SMD
   Dimitrios Liakos       : Extrapolation schemes; Compound Job, initial MDCI parallelization
   Dimitrios Manganas     : Further ROCIS development; embedding schemes
   Dimitrios Pantazis     : SARC Basis sets
   Anastasios Papadopoulos: AUTO-CI, single reference methods and gradients
   Taras Petrenko         : DFT Hessian,TD-DFT gradient, ASA, ECA, R-Raman, ABS, FL, XAS/XES, NRVS
   Peter Pinski           : DLPNO-MP2, DLPNO-MP2 Gradient
   Christoph Reimann      : Effective Core Potentials
   Marius Retegan         : Local ZFS, SOC
   Christoph Riplinger    : Optimizer, TS searches, QM/MM, DLPNO-CCSD(T), (RO)-DLPNO pert. Triples
   Tobias Risthaus        : Range-separated hybrids, TD-DFT gradient, RPA, STAB
   Michael Roemelt        : Original ROCIS implementation
   Masaaki Saitow         : Open-shell DLPNO-CCSD energy and density
   Barbara Sandhoefer     : DKH picture change effects
   Avijit Sen             : IP-ROCIS
   Kantharuban Sivalingam : CASSCF convergence, NEVPT2, FIC-MRCI
   Bernardo de Souza      : ESD, SOC TD-DFT
   Georgi Stoychev        : AutoAux, RI-MP2 NMR, DLPNO-MP2 response
   Willem Van den Heuvel  : Paramagnetic NMR
   Boris Wezisla          : Elementary symmetry handling
   Frank Wennmohs         : Technical directorship


 We gratefully acknowledge several colleagues who have allowed us to
 interface, adapt or use parts of their codes:
   Stefan Grimme, W. Hujo, H. Kruse, P. Pracht,  : VdW corrections, initial TS optimization,
                  C. Bannwarth, S. Ehlert          DFT functionals, gCP, sTDA/sTD-DF
   Ed Valeev, F. Pavosevic, A. Kumar             : LibInt (2-el integral package), F12 methods
   Garnet Chan, S. Sharma, J. Yang, R. Olivares  : DMRG
   Ulf Ekstrom                                   : XCFun DFT Library
   Mihaly Kallay                                 : mrcc  (arbitrary order and MRCC methods)
   Jiri Pittner, Ondrej Demel                    : Mk-CCSD
   Frank Weinhold                                : gennbo (NPA and NBO analysis)
   Christopher J. Cramer and Donald G. Truhlar   : smd solvation model
   Lars Goerigk                                  : TD-DFT with DH, B97 family of functionals
   V. Asgeirsson, H. Jonsson                     : NEB implementation
   FAccTs GmbH                                   : IRC, NEB, NEB-TS, DLPNO-Multilevel, CI-OPT
                                                   MM, QMMM, 2- and 3-layer-ONIOM, Crystal-QMMM,
                                                   LR-CPCM, SF, NACMEs, symmetry and pop. for TD-DFT,
                                                   nearIR, NL-DFT gradient (VV10), updates on ESD,
                                                   ML-optimized integration grids
   S Lehtola, MJT Oliveira, MAL Marques          : LibXC Library
   Liviu Ungur et al                             : ANISO software


 Your calculation uses the libint2 library for the computation of 2-el integrals
 For citations please refer to: http://libint.valeyev.net

 Your ORCA version has been built with support for libXC version: 5.1.0
 For citations please refer to: https://tddft.org/programs/libxc/

 This ORCA versions uses:
   CBLAS   interface :  Fast vector & matrix operations
   LAPACKE interface :  Fast linear algebra routines
   SCALAPACK package :  Parallel linear algebra routines
   Shared memory     :  Shared parallel matrices
   BLAS/LAPACK       :  OpenBLAS 0.3.15  USE64BITINT DYNAMIC_ARCH NO_AFFINITY Prescott SINGLE_THREADED
        Core in use  :  Prescott
   Copyright (c) 2011-2014, The OpenBLAS Project


Your calculation utilizes the SMD solvation module
Please cite in your paper:
A.V. Marenich, C.J. Cramer, D.G. Truhlar J. Phys. Chem. B, 113, (2009), 6378 

================================================================================

----- Orbital basis set information -----
Your calculation utilizes the basis: def2-TZVP
   F. Weigend and R. Ahlrichs, Phys. Chem. Chem. Phys. 7, 3297 (2005).

----- AuxJ basis set information -----
Your calculation utilizes the auxiliary basis: def2/J
   F. Weigend, Phys. Chem. Chem. Phys. 8, 1057 (2006).

----- AuxC basis set information -----
Your calculation utilizes the auxiliary basis: def2-TZVP/C
  H-La, Hf-Rn : A. Hellweg, C. Hattig, S. Hofener and W. Klopper, Theor. Chem. Acc. 117, 587 (2007).
        Ce-Lu : J. Chmela and M. E. Harding, Mol. Phys. (2018).

================================================================================
                                        WARNINGS
                       Please study these warnings very carefully!
================================================================================

INFO   : Checking CIS options ...
  ===> : (D) CORRECTION FOUND - SETTING MODE=3
  ===> : JK MODE FOUND - ACTIVATING RI-MP2 CODE
  ===> : MP2 AND CIS FOUND - CHECKING
WARNING: CIS(D) and MP2 runs must have the same orbital window
  ===> : adjusting orbital windows

WARNING: No MP2 level density has been requested!
         To caclulate MP2 level properties use
         %mp2 Density relaxed end
         or
         %mp2 Density unrelaxed end
         Otherwise for double-hybrid DFT only the energy is correct!

WARNING: The frozen-core approximation is turned on by default for 
         the MP2 part of double-hybrid DFT.

WARNING: CIS/ROCIS methods need fully converged wavefunctions
  ===> : Setting SCFConvForced true
         You can overwrite this default with %scf ConvForced false 


INFO   : the flag for use of the SHARK integral package has been found!

================================================================================
                                       INPUT FILE
================================================================================
NAME = PDI_2_M06L_def2TZVP_coords.inp
|  1> %maxcore 20000
|  2> %pal
|  3>  nprocs= 4
|  4> end
|  5> ! RI-B2GP-PLYP   def2-TZVP def2/J def2-TZVP/C RIJCOSX CPCM TightSCF
|  6> %TDDFT  
|  7>    NROOTS   30
|  8>    dcorr 4
|  9>    TDA      FALSE
| 10> END
| 11> 
| 12> %CPCM
| 13>    SMD          TRUE
| 14>    SMDsolvent   "DICHLOROMETHANE"
| 15> END
| 16>    
| 17> 
| 18> * xyz 0 1
| 19> C                   1.43137300    2.29418800    0.70438500
| 20> C                   0.70439600    1.22302400    0.17341900
| 21> C                   1.41160100   -0.00015500   -0.00126900
| 22> C                   2.82474200   -0.00027400   -0.00119400
| 23> C                   3.52149700    1.15730000    0.38105200
| 24> C                   2.82228800    2.26690200    0.79369700
| 25> C                   0.70405000   -1.22300200   -0.17559400
| 26> C                   3.52285500   -1.15758300   -0.38266900
| 27> H                   3.35673600    3.12398000    1.17950300
| 28> C                   2.82228800   -2.26663500   -0.79522700
| 29> C                   1.43137300   -2.29391200   -0.70639200
| 30> H                   3.35628000   -3.12414500   -1.18047800
| 31> C                  -0.70405000    1.22300200   -0.17559400
| 32> C                  -1.41160100    0.00015500   -0.00126900
| 33> C                  -1.43137300    2.29391200   -0.70639200
| 34> C                  -0.70439600   -1.22302400    0.17341900
| 35> C                  -2.82474200    0.00027400   -0.00119400
| 36> C                  -2.82228800    2.26663500   -0.79522700
| 37> C                  -1.43137300   -2.29418800    0.70438500
| 38> C                  -3.52149700   -1.15730000    0.38105200
| 39> C                  -3.52285500    1.15758300   -0.38266900
| 40> H                  -3.35628000    3.12414500   -1.18047800
| 41> C                  -2.82228800   -2.26690200    0.79369700
| 42> H                  -3.35673600   -3.12398000    1.17950300
| 43> C                   4.99064900    1.16612600    0.40310100
| 44> O                   5.64225000    2.13307100    0.75315200
| 45> C                   4.99419600   -1.17543900   -0.40560700
| 46> O                   5.62839400   -2.15226100   -0.75801100
| 47> N                   5.63329500   -0.00261900    0.00024400
| 48> C                  -4.99064900   -1.16612600    0.40310100
| 49> O                  -5.64225000   -2.13307100    0.75315200
| 50> C                  -4.99419600    1.17543900   -0.40560700
| 51> O                  -5.62839400    2.15226100   -0.75801100
| 52> N                  -5.63329500    0.00261900    0.00024400
| 53> C                   7.08797400    0.03123000    0.01520000
| 54> H                   7.45013100    0.82016800   -0.64041300
| 55> H                   7.45483800   -0.92943800   -0.32481800
| 56> H                   7.44679400    0.23066200    1.02272400
| 57> C                  -7.08797400   -0.03123000    0.01520000
| 58> H                  -7.45013100   -0.82016800   -0.64041300
| 59> H                  -7.45483800    0.92943800   -0.32481800
| 60> H                  -7.44679400   -0.23066200    1.02272400
| 61> Cl                 -0.64800500    3.66045300   -1.41777100
| 62> Cl                 -0.64757500   -3.66049400    1.41560800
| 63> Cl                  0.64800500   -3.66045300   -1.41777100
| 64> Cl                  0.64757500    3.66049400    1.41560800
| 65> *
| 66> 
| 67> 
| 68>                          ****END OF INPUT****
================================================================================

                       ****************************
                       * Single Point Calculation *
                       ****************************

---------------------------------
CARTESIAN COORDINATES (ANGSTROEM)
---------------------------------
  C      1.431373    2.294188    0.704385
  C      0.704396    1.223024    0.173419
  C      1.411601   -0.000155   -0.001269
  C      2.824742   -0.000274   -0.001194
  C      3.521497    1.157300    0.381052
  C      2.822288    2.266902    0.793697
  C      0.704050   -1.223002   -0.175594
  C      3.522855   -1.157583   -0.382669
  H      3.356736    3.123980    1.179503
  C      2.822288   -2.266635   -0.795227
  C      1.431373   -2.293912   -0.706392
  H      3.356280   -3.124145   -1.180478
  C     -0.704050    1.223002   -0.175594
  C     -1.411601    0.000155   -0.001269
  C     -1.431373    2.293912   -0.706392
  C     -0.704396   -1.223024    0.173419
  C     -2.824742    0.000274   -0.001194
  C     -2.822288    2.266635   -0.795227
  C     -1.431373   -2.294188    0.704385
  C     -3.521497   -1.157300    0.381052
  C     -3.522855    1.157583   -0.382669
  H     -3.356280    3.124145   -1.180478
  C     -2.822288   -2.266902    0.793697
  H     -3.356736   -3.123980    1.179503
  C      4.990649    1.166126    0.403101
  O      5.642250    2.133071    0.753152
  C      4.994196   -1.175439   -0.405607
  O      5.628394   -2.152261   -0.758011
  N      5.633295   -0.002619    0.000244
  C     -4.990649   -1.166126    0.403101
  O     -5.642250   -2.133071    0.753152
  C     -4.994196    1.175439   -0.405607
  O     -5.628394    2.152261   -0.758011
  N     -5.633295    0.002619    0.000244
  C      7.087974    0.031230    0.015200
  H      7.450131    0.820168   -0.640413
  H      7.454838   -0.929438   -0.324818
  H      7.446794    0.230662    1.022724
  C     -7.087974   -0.031230    0.015200
  H     -7.450131   -0.820168   -0.640413
  H     -7.454838    0.929438   -0.324818
  H     -7.446794   -0.230662    1.022724
  Cl    -0.648005    3.660453   -1.417771
  Cl    -0.647575   -3.660494    1.415608
  Cl     0.648005   -3.660453   -1.417771
  Cl     0.647575    3.660494    1.415608

----------------------------
CARTESIAN COORDINATES (A.U.)
----------------------------
  NO LB      ZA    FRAG     MASS         X           Y           Z
   0 C     6.0000    0    12.011    2.704903    4.335387    1.331095
   1 C     6.0000    0    12.011    1.331116    2.311180    0.327714
   2 C     6.0000    0    12.011    2.667539   -0.000293   -0.002398
   3 C     6.0000    0    12.011    5.337989   -0.000518   -0.002256
   4 C     6.0000    0    12.011    6.654665    2.186980    0.720084
   5 C     6.0000    0    12.011    5.333351    4.283824    1.499870
   6 C     6.0000    0    12.011    1.330462   -2.311139   -0.331825
   7 C     6.0000    0    12.011    6.657231   -2.187515   -0.723140
   8 H     1.0000    0     1.008    6.343312    5.903467    2.228938
   9 C     6.0000    0    12.011    5.333351   -4.283319   -1.502761
  10 C     6.0000    0    12.011    2.704903   -4.334865   -1.334887
  11 H     1.0000    0     1.008    6.342450   -5.903778   -2.230780
  12 C     6.0000    0    12.011   -1.330462    2.311139   -0.331825
  13 C     6.0000    0    12.011   -2.667539    0.000293   -0.002398
  14 C     6.0000    0    12.011   -2.704903    4.334865   -1.334887
  15 C     6.0000    0    12.011   -1.331116   -2.311180    0.327714
  16 C     6.0000    0    12.011   -5.337989    0.000518   -0.002256
  17 C     6.0000    0    12.011   -5.333351    4.283319   -1.502761
  18 C     6.0000    0    12.011   -2.704903   -4.335387    1.331095
  19 C     6.0000    0    12.011   -6.654665   -2.186980    0.720084
  20 C     6.0000    0    12.011   -6.657231    2.187515   -0.723140
  21 H     1.0000    0     1.008   -6.342450    5.903778   -2.230780
  22 C     6.0000    0    12.011   -5.333351   -4.283824    1.499870
  23 H     1.0000    0     1.008   -6.343312   -5.903467    2.228938
  24 C     6.0000    0    12.011    9.430960    2.203659    0.761750
  25 O     8.0000    0    15.999   10.662307    4.030920    1.423251
  26 C     6.0000    0    12.011    9.437663   -2.221258   -0.766486
  27 O     8.0000    0    15.999   10.636123   -4.067184   -1.432433
  28 N     7.0000    0    14.007   10.645385   -0.004949    0.000461
  29 C     6.0000    0    12.011   -9.430960   -2.203659    0.761750
  30 O     8.0000    0    15.999  -10.662307   -4.030920    1.423251
  31 C     6.0000    0    12.011   -9.437663    2.221258   -0.766486
  32 O     8.0000    0    15.999  -10.636123    4.067184   -1.432433
  33 N     7.0000    0    14.007  -10.645385    0.004949    0.000461
  34 C     6.0000    0    12.011   13.394330    0.059016    0.028724
  35 H     1.0000    0     1.008   14.078707    1.549893   -1.210205
  36 H     1.0000    0     1.008   14.087602   -1.756383   -0.613817
  37 H     1.0000    0     1.008   14.072401    0.435888    1.932668
  38 C     6.0000    0    12.011  -13.394330   -0.059016    0.028724
  39 H     1.0000    0     1.008  -14.078707   -1.549893   -1.210205
  40 H     1.0000    0     1.008  -14.087602    1.756383   -0.613817
  41 H     1.0000    0     1.008  -14.072401   -0.435888    1.932668
  42 Cl   17.0000    0    35.453   -1.224552    6.917254   -2.679199
  43 Cl   17.0000    0    35.453   -1.223739   -6.917331    2.675111
  44 Cl   17.0000    0    35.453    1.224552   -6.917254   -2.679199
  45 Cl   17.0000    0    35.453    1.223739    6.917331    2.675111

--------------------------------
INTERNAL COORDINATES (ANGSTROEM)
--------------------------------
 C      0   0   0     0.000000000000     0.00000000     0.00000000
 C      1   0   0     1.399218627156     0.00000000     0.00000000
 C      2   1   0     1.423664874684   116.50072863     0.00000000
 C      3   2   1     1.413141007001   119.78953565   342.61710070
 C      4   3   2     1.404121469110   119.74668930    10.14154515
 C      5   4   3     1.374912986378   119.64861850     2.11093847
 C      3   2   1     1.423507080641   120.40993659   162.59826545
 C      4   3   2     1.404367849915   119.81203447   190.11606347
 H      6   5   4     1.081232459938   119.69895282   174.03869147
 C      8   4   3     1.375134380181   119.52917717     2.13245416
 C     10   8   4     1.394015864034   120.33020283   353.42255944
 H     10   8   4     1.081151788217   119.66680254   174.05396540
 C      2   1   3     1.451044523634   126.55477647   177.89119413
 C     13   2   1     1.423507080641   116.93720806   213.14728424
 C     13   2   1     1.399140268605   126.57056251    35.26277139
 C     14  13   2     1.423664874684   120.40993659   344.52284371
 C     14  13   2     1.413141007001   119.80052509   164.50400639
 C     15  13   2     1.394015864034   121.86222349   191.12321192
 C     16  14  13     1.399218627156   116.50072863   162.59826545
 C     17  14  13     1.404121469110   119.74668930   190.16026460
 C     18  15  13     1.375134380181   120.33020283   358.61130361
 H     18  15  13     1.081151788217   119.99998169   177.97778841
 C     20  17  14     1.374912986378   119.64861850     2.11093847
 H     23  20  17     1.081232459938   119.69895282   174.03869147
 C      5   4   3     1.469343954213   120.34420757   179.18406572
 O     25   5   4     1.217416197866   122.97332458   181.59355806
 C      8   4   3     1.471628121117   120.74626937   179.26125250
 O     27   8   4     1.216789588262   122.36826871   181.58635009
 N     25   5   4     1.393288383211   116.85962994     1.51445734
 C     20  17  14     1.469343954213   120.34420757   179.18406572
 O     30  20  17     1.217416197866   122.97332458   181.59355806
 C     21  18  15     1.471628121117   119.66263679   176.26229661
 O     32  21  18     1.216789588262   122.36826871   358.71134409
 N     30  20  17     1.393288383211   116.85962994     1.51445734
 C     29  25   5     1.455149624533   116.01525424   179.35076410
 H     35  29  25     1.087846159281   110.08903667   300.72330104
 H     35  29  25     1.083090227564   108.34580011   180.44893049
 H     35  29  25     1.087947391007   110.08960806    60.15123995
 C     34  30  20     1.455149624533   116.01525424   179.35076410
 H     39  34  30     1.087846159281   110.08903667   300.72330104
 H     39  34  30     1.083090227564   108.34580011   180.44893049
 H     39  34  30     1.087947391007   110.08960806    60.15123995
 Cl    15  13   2     1.728340189241   121.71640215    16.75473925
 Cl    19  16  14     1.728285146082   121.71806762   198.85582211
 Cl    11  10   8     1.728340189241   116.19849414   173.27318285
 Cl     1   2   3     1.728285146082   121.71806762   198.85582211

---------------------------
INTERNAL COORDINATES (A.U.)
---------------------------
 C      0   0   0     0.000000000000     0.00000000     0.00000000
 C      1   0   0     2.644140006807     0.00000000     0.00000000
 C      2   1   0     2.690336719637   116.50072863     0.00000000
 C      3   2   1     2.670449491845   119.78953565   342.61710070
 C      4   3   2     2.653405035378   119.74668930    10.14154515
 C      5   4   3     2.598209002226   119.64861850     2.11093847
 C      3   2   1     2.690038532109   120.40993659   162.59826545
 C      4   3   2     2.653870627623   119.81203447   190.11606347
 H      6   5   4     2.043233236389   119.69895282   174.03869147
 C      8   4   3     2.598627375882   119.52917717     2.13245416
 C     10   8   4     2.634308209366   120.33020283   353.42255944
 H     10   8   4     2.043080788930   119.66680254   174.05396540
 C      2   1   3     2.742076757795   126.55477647   177.89119413
 C     13   2   1     2.690038532109   116.93720806   213.14728424
 C     13   2   1     2.643991930605   126.57056251    35.26277139
 C     14  13   2     2.690336719637   120.40993659   344.52284371
 C     14  13   2     2.670449491845   119.80052509   164.50400639
 C     15  13   2     2.634308209366   121.86222349   191.12321192
 C     16  14  13     2.644140006807   116.50072863   162.59826545
 C     17  14  13     2.653405035378   119.74668930   190.16026460
 C     18  15  13     2.598627375882   120.33020283   358.61130361
 H     18  15  13     2.043080788930   119.99998169   177.97778841
 C     20  17  14     2.598209002226   119.64861850     2.11093847
 H     23  20  17     2.043233236389   119.69895282   174.03869147
 C      5   4   3     2.776657669995   120.34420757   179.18406572
 O     25   5   4     2.300583204967   122.97332458   181.59355806
 C      8   4   3     2.780974119887   120.74626937   179.26125250
 O     27   8   4     2.299399084423   122.36826871   181.58635009
 N     25   5   4     2.632933469842   116.85962994     1.51445734
 C     20  17  14     2.776657669995   120.34420757   179.18406572
 O     30  20  17     2.300583204967   122.97332458   181.59355806
 C     21  18  15     2.780974119887   119.66263679   176.26229661
 O     32  21  18     2.299399084423   122.36826871   358.71134409
 N     30  20  17     2.632933469842   116.85962994     1.51445734
 C     29  25   5     2.749834274245   116.01525424   179.35076410
 H     35  29  25     2.055731316879   110.08903667   300.72330104
 H     35  29  25     2.046743908422   108.34580011   180.44893049
 H     35  29  25     2.055922617118   110.08960806    60.15123995
 C     34  30  20     2.749834274245   116.01525424   179.35076410
 H     39  34  30     2.055731316879   110.08903667   300.72330104
 H     39  34  30     2.046743908422   108.34580011   180.44893049
 H     39  34  30     2.055922617118   110.08960806    60.15123995
 Cl    15  13   2     3.266089623915   121.71640215    16.75473925
 Cl    19  16  14     3.265985607420   121.71806762   198.85582211
 Cl    11  10   8     3.266089623915   116.19849414   173.27318285
 Cl     1   2   3     3.265985607420   121.71806762   198.85582211

---------------------
BASIS SET INFORMATION
---------------------
There are 5 groups of distinct atoms

 Group   1 Type C   : 11s6p2d1f contracted to 5s3p2d1f pattern {62111/411/11/1}
 Group   2 Type H   : 5s1p contracted to 3s1p pattern {311/1}
 Group   3 Type O   : 11s6p2d1f contracted to 5s3p2d1f pattern {62111/411/11/1}
 Group   4 Type N   : 11s6p2d1f contracted to 5s3p2d1f pattern {62111/411/11/1}
 Group   5 Type Cl  : 14s9p3d1f contracted to 5s5p2d1f pattern {73211/51111/21/1}

Atom   0C    basis set group =>   1
Atom   1C    basis set group =>   1
Atom   2C    basis set group =>   1
Atom   3C    basis set group =>   1
Atom   4C    basis set group =>   1
Atom   5C    basis set group =>   1
Atom   6C    basis set group =>   1
Atom   7C    basis set group =>   1
Atom   8H    basis set group =>   2
Atom   9C    basis set group =>   1
Atom  10C    basis set group =>   1
Atom  11H    basis set group =>   2
Atom  12C    basis set group =>   1
Atom  13C    basis set group =>   1
Atom  14C    basis set group =>   1
Atom  15C    basis set group =>   1
Atom  16C    basis set group =>   1
Atom  17C    basis set group =>   1
Atom  18C    basis set group =>   1
Atom  19C    basis set group =>   1
Atom  20C    basis set group =>   1
Atom  21H    basis set group =>   2
Atom  22C    basis set group =>   1
Atom  23H    basis set group =>   2
Atom  24C    basis set group =>   1
Atom  25O    basis set group =>   3
Atom  26C    basis set group =>   1
Atom  27O    basis set group =>   3
Atom  28N    basis set group =>   4
Atom  29C    basis set group =>   1
Atom  30O    basis set group =>   3
Atom  31C    basis set group =>   1
Atom  32O    basis set group =>   3
Atom  33N    basis set group =>   4
Atom  34C    basis set group =>   1
Atom  35H    basis set group =>   2
Atom  36H    basis set group =>   2
Atom  37H    basis set group =>   2
Atom  38C    basis set group =>   1
Atom  39H    basis set group =>   2
Atom  40H    basis set group =>   2
Atom  41H    basis set group =>   2
Atom  42Cl   basis set group =>   5
Atom  43Cl   basis set group =>   5
Atom  44Cl   basis set group =>   5
Atom  45Cl   basis set group =>   5
---------------------------------
AUXILIARY/J BASIS SET INFORMATION
---------------------------------
There are 5 groups of distinct atoms

 Group   1 Type C   : 12s5p4d2f1g contracted to 6s4p3d1f1g pattern {711111/2111/211/2/1}
 Group   2 Type H   : 5s2p1d contracted to 3s1p1d pattern {311/2/1}
 Group   3 Type O   : 12s5p4d2f1g contracted to 6s4p3d1f1g pattern {711111/2111/211/2/1}
 Group   4 Type N   : 12s5p4d2f1g contracted to 6s4p3d1f1g pattern {711111/2111/211/2/1}
 Group   5 Type Cl  : 14s5p5d2f1g contracted to 8s4p3d1f1g pattern {71111111/2111/311/2/1}

Atom   0C    basis set group =>   1
Atom   1C    basis set group =>   1
Atom   2C    basis set group =>   1
Atom   3C    basis set group =>   1
Atom   4C    basis set group =>   1
Atom   5C    basis set group =>   1
Atom   6C    basis set group =>   1
Atom   7C    basis set group =>   1
Atom   8H    basis set group =>   2
Atom   9C    basis set group =>   1
Atom  10C    basis set group =>   1
Atom  11H    basis set group =>   2
Atom  12C    basis set group =>   1
Atom  13C    basis set group =>   1
Atom  14C    basis set group =>   1
Atom  15C    basis set group =>   1
Atom  16C    basis set group =>   1
Atom  17C    basis set group =>   1
Atom  18C    basis set group =>   1
Atom  19C    basis set group =>   1
Atom  20C    basis set group =>   1
Atom  21H    basis set group =>   2
Atom  22C    basis set group =>   1
Atom  23H    basis set group =>   2
Atom  24C    basis set group =>   1
Atom  25O    basis set group =>   3
Atom  26C    basis set group =>   1
Atom  27O    basis set group =>   3
Atom  28N    basis set group =>   4
Atom  29C    basis set group =>   1
Atom  30O    basis set group =>   3
Atom  31C    basis set group =>   1
Atom  32O    basis set group =>   3
Atom  33N    basis set group =>   4
Atom  34C    basis set group =>   1
Atom  35H    basis set group =>   2
Atom  36H    basis set group =>   2
Atom  37H    basis set group =>   2
Atom  38C    basis set group =>   1
Atom  39H    basis set group =>   2
Atom  40H    basis set group =>   2
Atom  41H    basis set group =>   2
Atom  42Cl   basis set group =>   5
Atom  43Cl   basis set group =>   5
Atom  44Cl   basis set group =>   5
Atom  45Cl   basis set group =>   5
---------------------------------
AUXILIARY/C BASIS SET INFORMATION
---------------------------------
There are 5 groups of distinct atoms

 Group   1 Type C   : 8s6p5d3f1g contracted to 8s6p4d3f1g pattern {11111111/111111/2111/111/1}
 Group   2 Type H   : 4s3p2d contracted to 4s2p1d pattern {1111/21/2}
 Group   3 Type O   : 8s6p5d3f1g contracted to 8s6p4d3f1g pattern {11111111/111111/2111/111/1}
 Group   4 Type N   : 8s6p5d3f1g contracted to 8s6p4d3f1g pattern {11111111/111111/2111/111/1}
 Group   5 Type Cl  : 10s7p7d5f2g contracted to 9s7p6d5f2g pattern {211111111/1111111/211111/11111/11}

Atom   0C    basis set group =>   1
Atom   1C    basis set group =>   1
Atom   2C    basis set group =>   1
Atom   3C    basis set group =>   1
Atom   4C    basis set group =>   1
Atom   5C    basis set group =>   1
Atom   6C    basis set group =>   1
Atom   7C    basis set group =>   1
Atom   8H    basis set group =>   2
Atom   9C    basis set group =>   1
Atom  10C    basis set group =>   1
Atom  11H    basis set group =>   2
Atom  12C    basis set group =>   1
Atom  13C    basis set group =>   1
Atom  14C    basis set group =>   1
Atom  15C    basis set group =>   1
Atom  16C    basis set group =>   1
Atom  17C    basis set group =>   1
Atom  18C    basis set group =>   1
Atom  19C    basis set group =>   1
Atom  20C    basis set group =>   1
Atom  21H    basis set group =>   2
Atom  22C    basis set group =>   1
Atom  23H    basis set group =>   2
Atom  24C    basis set group =>   1
Atom  25O    basis set group =>   3
Atom  26C    basis set group =>   1
Atom  27O    basis set group =>   3
Atom  28N    basis set group =>   4
Atom  29C    basis set group =>   1
Atom  30O    basis set group =>   3
Atom  31C    basis set group =>   1
Atom  32O    basis set group =>   3
Atom  33N    basis set group =>   4
Atom  34C    basis set group =>   1
Atom  35H    basis set group =>   2
Atom  36H    basis set group =>   2
Atom  37H    basis set group =>   2
Atom  38C    basis set group =>   1
Atom  39H    basis set group =>   2
Atom  40H    basis set group =>   2
Atom  41H    basis set group =>   2
Atom  42Cl   basis set group =>   5
Atom  43Cl   basis set group =>   5
Atom  44Cl   basis set group =>   5
Atom  45Cl   basis set group =>   5


           ************************************************************
           *        Program running with 4 parallel MPI-processes     *
           *              working on a common directory               *
           ************************************************************
------------------------------------------------------------------------------
                           ORCA GTO INTEGRAL CALCULATION
                           -- RI-GTO INTEGRALS CHOSEN --
------------------------------------------------------------------------------
------------------------------------------------------------------------------
                   ___                                                        
                  /   \      - P O W E R E D   B Y -                         
                 /     \                                                     
                 |  |  |   _    _      __       _____    __    __             
                 |  |  |  | |  | |    /  \     |  _  \  |  |  /  |          
                  \  \/   | |  | |   /    \    | | | |  |  | /  /          
                 / \  \   | |__| |  /  /\  \   | |_| |  |  |/  /          
                |  |  |   |  __  | /  /__\  \  |    /   |      \           
                |  |  |   | |  | | |   __   |  |    \   |  |\   \          
                \     /   | |  | | |  |  |  |  | |\  \  |  | \   \       
                 \___/    |_|  |_| |__|  |__|  |_| \__\ |__|  \__/        
                                                                              
                      - O R C A' S   B I G   F R I E N D -                    
                                      &                                       
                       - I N T E G R A L  F E E D E R -                       
                                                                              
 v1 FN, 2020, v2 2021                                                         
------------------------------------------------------------------------------


Reading SHARK input file PDI_2_M06L_def2TZVP_coords.SHARKINP.tmp ... ok
----------------------
SHARK INTEGRAL PACKAGE
----------------------

Number of atoms                             ...     46
Number of basis functions                   ...   1200
Number of shells                            ...    444
Maximum angular momentum                    ...      3
Integral batch strategy                     ... SHARK/LIBINT Hybrid
RI-J (if used) integral strategy            ... SPLIT-RIJ (Revised 2003 algorithm where possible)
Printlevel                                  ...      1
Contraction scheme used                     ... SEGMENTED contraction
Coulomb Range Separation                    ... NOT USED
Exchange Range Separation                   ... NOT USED
Finite Nucleus Model                        ... NOT USED
Auxiliary Coulomb fitting basis             ... AVAILABLE
   # of basis functions in Aux-J            ...   1882
   # of shells in Aux-J                     ...    598
   Maximum angular momentum in Aux-J        ...      4
Auxiliary J/K fitting basis                 ... NOT available
Auxiliary Correlation fitting basis         ... AVAILABLE
   # of basis functions in Aux-C            ...   3034
   # of shells in Aux-C                     ...    890
   Maximum angular momentum in Aux-C        ...      4
Auxiliary 'external' fitting basis          ... NOT available
Integral threshold                          ...     2.500000e-11
Primitive cut-off                           ...     2.500000e-12
Primitive pair pre-selection threshold      ...     2.500000e-12

Calculating pre-screening integrals         ... done (  0.2 sec) Dimension = 444
Organizing shell pair data                  ... done (  1.4 sec)
Shell pair information
Total number of shell pairs                 ...     98790
Shell pairs after pre-screening             ...     57916
Total number of primitive shell pairs       ...    327714
Primitive shell pairs kept                  ...    119920
          la=0 lb=0:  11835 shell pairs
          la=1 lb=0:  16396 shell pairs
          la=1 lb=1:   5573 shell pairs
          la=2 lb=0:   8388 shell pairs
          la=2 lb=1:   5830 shell pairs
          la=2 lb=2:   1507 shell pairs
          la=3 lb=0:   3894 shell pairs
          la=3 lb=1:   2748 shell pairs
          la=3 lb=2:   1394 shell pairs
          la=3 lb=3:    351 shell pairs

Calculating one electron integrals          ... done (  0.2 sec)
Calculating RI/J V-Matrix + Cholesky decomp.... done (  0.2 sec)
Calculating RI/C V-Matrix + Cholesky decomp.... done (  0.7 sec)
Calculating Nuclear repulsion               ... done (  0.0 sec) ENN=   4554.393209965006 Eh

SHARK setup successfully completed in   3.5 seconds

Maximum memory used throughout the entire GTOINT-calculation: 132.7 MB


           ************************************************************
           *        Program running with 4 parallel MPI-processes     *
           *              working on a common directory               *
           ************************************************************
-------------------------------------------------------------------------------
                                 ORCA SCF
-------------------------------------------------------------------------------

------------
SCF SETTINGS
------------
Hamiltonian:
 Density Functional     Method          .... DFT(GTOs)
 Exchange Functional    Exchange        .... B88
   X-Alpha parameter    XAlpha          ....  0.666667
   Becke's b parameter  XBeta           ....  0.004200
 Correlation Functional Correlation     .... LYP
 LDA part of GGA corr.  LDAOpt          .... VWN-3
 Gradients option       PostSCFGGA      .... off
 Hybrid DFT is turned on
   Fraction HF Exchange ScalHFX         ....  0.650000
   Scaling of DF-GGA-X  ScalDFX         ....  0.350000
   Scaling of DF-GGA-C  ScalDFC         ....  0.640000
   Scaling of DF-LDA-C  ScalLDAC        ....  0.640000
   Perturbative correction              ....  0.360000
   Density functional embedding theory  .... OFF
 RI-approximation to the Coulomb term is turned on
   Number of AuxJ basis functions       .... 1882
   RIJ-COSX (HFX calculated with COS-X)).... on


General Settings:
 Integral files         IntName         .... PDI_2_M06L_def2TZVP_coords
 Hartree-Fock type      HFTyp           .... RHF
 Total Charge           Charge          ....    0
 Multiplicity           Mult            ....    1
 Number of Electrons    NEL             ....  280
 Basis Dimension        Dim             .... 1200
 Nuclear Repulsion      ENuc            ....   4554.3932099650 Eh

Convergence Acceleration:
 DIIS                   CNVDIIS         .... on
   Start iteration      DIISMaxIt       ....    12
   Startup error        DIISStart       ....  0.200000
   # of expansion vecs  DIISMaxEq       ....     5
   Bias factor          DIISBfac        ....   1.050
   Max. coefficient     DIISMaxC        ....  10.000
 Trust-Rad. Augm. Hess. CNVTRAH         .... auto
   Auto Start mean grad. ratio tolernc. ....  1.125000
   Auto Start start iteration           ....    20
   Auto Start num. interpolation iter.  ....    10
   Max. Number of Micro iterations      ....    16
   Max. Number of Macro iterations      .... Maxiter - #DIIS iter
   Number of Davidson start vectors     ....     2
   Converg. threshold I  (grad. norm)   ....   1.000e-05
   Converg. threshold II (energy diff.) ....   1.000e-08
   Grad. Scal. Fac. for Micro threshold ....   0.100
   Minimum threshold for Micro iter.    ....   0.010
   NR start threshold (gradient norm)   ....   0.001
   Initial trust radius                 ....   0.400
   Minimum AH scaling param. (alpha)    ....   1.000
   Maximum AH scaling param. (alpha)    .... 1000.000
   Orbital update algorithm             .... Taylor
   White noise on init. David. guess    .... on
   Maximum white noise                  ....   0.010
   Quad. conv. algorithm                .... NR
 SOSCF                  CNVSOSCF        .... on
   Start iteration      SOSCFMaxIt      ....   150
   Startup grad/error   SOSCFStart      ....  0.003300
 Level Shifting         CNVShift        .... on
   Level shift para.    LevelShift      ....    0.2500
   Turn off err/grad.   ShiftErr        ....    0.0010
 Zerner damping         CNVZerner       .... off
 Static damping         CNVDamp         .... on
   Fraction old density DampFac         ....    0.7000
   Max. Damping (<1)    DampMax         ....    0.9800
   Min. Damping (>=0)   DampMin         ....    0.0000
   Turn off err/grad.   DampErr         ....    0.1000
 Fernandez-Rico         CNVRico         .... off

SCF Procedure:
 Maximum # iterations   MaxIter         ....   125
 SCF integral mode      SCFMode         .... Direct
   Integral package                     .... SHARK and LIBINT hybrid scheme
 Reset frequency        DirectResetFreq ....    20
 Integral Threshold     Thresh          ....  2.500e-11 Eh
 Primitive CutOff       TCut            ....  2.500e-12 Eh

Convergence Tolerance:
 Convergence Check Mode ConvCheckMode   .... Total+1el-Energy
 Convergence forced     ConvForced      .... 1
 Energy Change          TolE            ....  1.000e-08 Eh
 1-El. energy change                    ....  1.000e-05 Eh
 Orbital Gradient       TolG            ....  1.000e-05
 Orbital Rotation angle TolX            ....  1.000e-05
 DIIS Error             TolErr          ....  5.000e-07


Diagonalization of the overlap matrix:
Smallest eigenvalue                        ... 3.137e-06
Time for diagonalization                   ...    0.435 sec
Threshold for overlap eigenvalues          ... 1.000e-08
Number of eigenvalues below threshold      ... 0
Time for construction of square roots      ...    0.295 sec
Total time needed                          ...    0.736 sec

Time for model grid setup =    0.731 sec

------------------------------
INITIAL GUESS: MODEL POTENTIAL
------------------------------
Loading Hartree-Fock densities                     ... done
Calculating cut-offs                               ... done
Initializing the effective Hamiltonian             ... done
Setting up the integral package (SHARK)            ... done
Starting the Coulomb interaction                   ... done (   2.0 sec)
Reading the grid                                   ... done
Mapping shells                                     ... done
Starting the XC term evaluation                    ... done (   1.3 sec)
  promolecular density results
     # of electrons  =    280.005877614
     EX              =   -293.006256461
     EC              =     -1.341837797
     EX+EC           =   -294.348094259
Transforming the Hamiltonian                       ... done (   0.3 sec)
Diagonalizing the Hamiltonian                      ... done (   0.4 sec)
Back transforming the eigenvectors                 ... done (   0.1 sec)
Now organizing SCF variables                       ... done
                      ------------------
                      INITIAL GUESS DONE (   4.8 sec)
                      ------------------
-------------------
DFT GRID GENERATION
-------------------

General Integration Accuracy     IntAcc      ... 4.388
Radial Grid Type                 RadialGrid  ... OptM3 with GC (2021)
Angular Grid (max. ang.)         AngularGrid ... 4 (Lebedev-302)
Angular grid pruning method      GridPruning ... 4 (adaptive)
Weight generation scheme         WeightScheme... Becke
Basis function cutoff            BFCut       ... 1.0000e-11
Integration weight cutoff        WCut        ... 1.0000e-14
Angular grids for H and He will be reduced by one unit
Partially contracted basis set               ... off
Rotationally invariant grid construction     ... off

Total number of grid points                  ...   251010
Total number of batches                      ...     3942
Average number of points per batch           ...       63
Average number of grid points per atom       ...     5457
Time for grid setup =    2.736 sec

--------------------
COSX GRID GENERATION
--------------------

GRIDX 1
-------
General Integration Accuracy     IntAcc      ... 3.816
Radial Grid Type                 RadialGrid  ... OptM3 with GC (2021)
Angular Grid (max. ang.)         AngularGrid ... 1 (Lebedev-50)
Angular grid pruning method      GridPruning ... 4 (adaptive)
Weight generation scheme         WeightScheme... Becke
Basis function cutoff            BFCut       ... 1.0000e-11
Integration weight cutoff        WCut        ... 1.0000e-14
Angular grids for H and He will be reduced by one unit
Partially contracted basis set               ... on
Rotationally invariant grid construction     ... off

Total number of grid points                  ...    31430
Total number of batches                      ...      512
Average number of points per batch           ...       61
Average number of grid points per atom       ...      683
UseSFitting                                  ... on

GRIDX 2
-------
General Integration Accuracy     IntAcc      ... 4.020
Radial Grid Type                 RadialGrid  ... OptM3 with GC (2021)
Angular Grid (max. ang.)         AngularGrid ... 2 (Lebedev-110)
Angular grid pruning method      GridPruning ... 4 (adaptive)
Weight generation scheme         WeightScheme... Becke
Basis function cutoff            BFCut       ... 1.0000e-11
Integration weight cutoff        WCut        ... 1.0000e-14
Angular grids for H and He will be reduced by one unit
Partially contracted basis set               ... on
Rotationally invariant grid construction     ... off

Total number of grid points                  ...    70726
Total number of batches                      ...     1128
Average number of points per batch           ...       62
Average number of grid points per atom       ...     1538
UseSFitting                                  ... on

GRIDX 3
-------
General Integration Accuracy     IntAcc      ... 4.338
Radial Grid Type                 RadialGrid  ... OptM3 with GC (2021)
Angular Grid (max. ang.)         AngularGrid ... 3 (Lebedev-194)
Angular grid pruning method      GridPruning ... 4 (adaptive)
Weight generation scheme         WeightScheme... Becke
Basis function cutoff            BFCut       ... 1.0000e-11
Integration weight cutoff        WCut        ... 1.0000e-14
Angular grids for H and He will be reduced by one unit
Partially contracted basis set               ... on
Rotationally invariant grid construction     ... off

Total number of grid points                  ...   157466
Total number of batches                      ...     2484
Average number of points per batch           ...       63
Average number of grid points per atom       ...     3423
UseSFitting                                  ... on

Time for X-Grid setup             =    7.579 sec


--------------------
CPCM SOLVATION MODEL
--------------------
CPCM parameters:
  Epsilon                                         ...       8.9300
  Refrac                                          ...       1.4242
  Rsolv                                           ...       1.3000
  Surface type                                    ... GAUSSIAN VDW
  Epsilon function type                           ...         CPCM
Solvent:                                     ... DICHLOROMETHANE
SMD-CDS solvent descriptors:
  Soln                                       ...    1.4242
  Soln25                                     ...    1.4212
  Sola                                       ...    0.1000
  Solb                                       ...    0.0500
  Solg                                       ...   39.1500
  Solc                                       ...    0.0000
  Solh                                       ...    0.6670
Radii:
 Radius for C  used is    3.4960 Bohr (=   1.8500 Ang.)
 Radius for H  used is    2.2677 Bohr (=   1.2000 Ang.)
 Radius for O  used is    3.9949 Bohr (=   2.1140 Ang.)
 Radius for N  used is    3.5716 Bohr (=   1.8900 Ang.)
 Radius for Cl used is    4.4975 Bohr (=   2.3800 Ang.)
Calculating surface                               ...        done! (  0.0s)
GEPOL surface points                              ...         2218
GEPOL Volume                                      ...    3773.7853
GEPOL Surface-area                                ...    1765.6570
Calculating surface distance matrix               ...        done! (  0.0s)
Performing Cholesky decomposition & store         ...        done! (  0.3s)
Overall time for CPCM initialization              ...                 0.3s
--------------
SCF ITERATIONS
--------------
ITER       Energy         Delta-E        Max-DP      RMS-DP      [F,P]     Damp
               ***  Starting incremental Fock matrix formation  ***
  0  -3243.1868196908   0.000000000000 0.08681390  0.00093634  0.2941546 0.7000
  1  -3243.5305239449  -0.343704254073 0.08651916  0.00078828  0.1532817 0.7000
                               ***Turning on DIIS***
  2  -3243.7101714855  -0.179647540566 0.12123516  0.00148117  0.0674680 0.0000
  3  -3244.0381870669  -0.328015581437 0.11040492  0.00073931  0.0652546 0.0000
  4  -3244.0727749175  -0.034587850598 0.03205292  0.00025158  0.0116809 0.0000
  5  -3244.0751566080  -0.002381690460 0.01800846  0.00013239  0.0060635 0.0000
                      *** Initiating the SOSCF procedure ***
                           *** Shutting down DIIS ***
                      *** Re-Reading the Fockian *** 
                      *** Removing any level shift *** 
ITER      Energy       Delta-E        Grad      Rot      Max-DP    RMS-DP
  6  -3244.07580219  -0.0006455788  0.002296  0.002296  0.006845  0.000062
               *** Restarting incremental Fock matrix formation ***
  7  -3244.07604644  -0.0002442512  0.001479  0.006047  0.025145  0.000237
  8  -3244.07614243  -0.0000959943  0.000577  0.004876  0.008976  0.000095
  9  -3244.07615899  -0.0000165549  0.000306  0.000868  0.008579  0.000079
 10  -3244.07616744  -0.0000084536  0.000090  0.000509  0.000477  0.000006
 11  -3244.07616782  -0.0000003787  0.000035  0.000080  0.000518  0.000005
 12  -3244.07616797  -0.0000001497  0.000011  0.000060  0.000328  0.000003
 13  -3244.07616797   0.0000000003  0.000006  0.000019  0.000149  0.000002
 14  -3244.07616794   0.0000000244  0.000003  0.000020  0.000149  0.000002
                  ***Gradient check signals convergence***
              ***Rediagonalizing the Fockian in SOSCF/NRSCF***

               *****************************************************
               *                     SUCCESS                       *
               *           SCF CONVERGED AFTER  15 CYCLES          *
               *****************************************************

Old exchange energy                            =   -191.982832210 Eh
New exchange energy                            =   -191.982799773 Eh
Exchange energy change after final integration =      0.000032437 Eh
Total energy after final integration           =  -3244.076135546 Eh
Final COS-X integration done in                =   134.985 sec

SMD CDS free energy correction energy :               -11.10051     Kcal/mol
Total Energy after SMD CDS correction =             -3244.093825334 Eh

----------------
TOTAL SCF ENERGY
----------------

Total Energy       :        -3244.09382533 Eh          -88276.28087 eV

Components:
Nuclear Repulsion  :         4554.39320997 Eh          123931.33979 eV
Electronic Energy  :        -7798.48703530 Eh         -212207.62066 eV
One Electron Energy:       -13519.62246084 Eh         -367887.63021 eV
Two Electron Energy:         5721.13542554 Eh          155680.00955 eV
Max COSX asymmetry :            0.00001061 Eh               0.00029 eV
CPCM Dielectric    :           -0.02539777 Eh              -0.69111 eV
SMD CDS (Gcds)     :           -0.01768979 Eh              -0.48136 eV

Virial components:
Potential Energy   :        -6482.42965501 Eh         -176395.87871 eV
Kinetic Energy     :         3238.33582968 Eh           88119.59784 eV
Virial Ratio       :            2.00177807


DFT components:
N(Alpha)           :      139.999892911964 electrons
N(Beta)            :      139.999892911964 electrons
N(Total)           :      279.999785823928 electrons
E(X)               :     -103.523547520865 Eh       
E(C)               :       -6.592197980577 Eh       
E(XC)              :     -110.115745501442 Eh       
DFET-embed. en.    :        0.000000000000 Eh       
CPCM Solvation Model Properties:
Surface-charge          :           -0.02647838
Charge-correction       :            0.00022545 Eh               0.00613 eV
Free-energy (cav+disp)  :           -0.01768979 Eh              -0.48136 eV

---------------
SCF CONVERGENCE
---------------

  Last Energy change         ...   -3.8420e-08  Tolerance :   1.0000e-08
  Last MAX-Density change    ...    6.2172e-15  Tolerance :   1.0000e-07
  Last RMS-Density change    ...    1.5998e-17  Tolerance :   5.0000e-09
  Last Orbital Gradient      ...    6.5008e-07  Tolerance :   1.0000e-05
  Last Orbital Rotation      ...    1.7150e-06  Tolerance :   1.0000e-05

             **** THE GBW FILE WAS UPDATED (PDI_2_M06L_def2TZVP_coords.gbw) ****
             **** DENSITY PDI_2_M06L_def2TZVP_coords.scfp WAS UPDATED ****
             **** ENERGY FILE WAS UPDATED (PDI_2_M06L_def2TZVP_coords.en.tmp) ****
             **** THE GBW FILE WAS UPDATED (PDI_2_M06L_def2TZVP_coords.gbw) ****
             **** DENSITY PDI_2_M06L_def2TZVP_coords.scfp WAS UPDATED ****
----------------
ORBITAL ENERGIES
----------------

  NO   OCC          E(Eh)            E(eV) 
   0   2.0000    -103.422670     -2814.2739 
   1   2.0000    -103.422670     -2814.2739 
   2   2.0000    -103.422637     -2814.2730 
   3   2.0000    -103.422637     -2814.2730 
   4   2.0000     -19.933357      -542.4142 
   5   2.0000     -19.933357      -542.4142 
   6   2.0000     -19.933321      -542.4132 
   7   2.0000     -19.933321      -542.4132 
   8   2.0000     -15.087527      -410.5525 
   9   2.0000     -15.087527      -410.5525 
  10   2.0000     -10.919905      -297.1457 
  11   2.0000     -10.919904      -297.1457 
  12   2.0000     -10.917579      -297.0824 
  13   2.0000     -10.917578      -297.0824 
  14   2.0000     -10.871725      -295.8347 
  15   2.0000     -10.871724      -295.8346 
  16   2.0000     -10.871643      -295.8324 
  17   2.0000     -10.871641      -295.8324 
  18   2.0000     -10.840200      -294.9768 
  19   2.0000     -10.840189      -294.9765 
  20   2.0000     -10.839545      -294.9590 
  21   2.0000     -10.839509      -294.9580 
  22   2.0000     -10.830395      -294.7100 
  23   2.0000     -10.830391      -294.7099 
  24   2.0000     -10.824434      -294.5478 
  25   2.0000     -10.824433      -294.5478 
  26   2.0000     -10.818120      -294.3760 
  27   2.0000     -10.818119      -294.3760 
  28   2.0000     -10.817887      -294.3697 
  29   2.0000     -10.817884      -294.3696 
  30   2.0000     -10.816265      -294.3255 
  31   2.0000     -10.816265      -294.3255 
  32   2.0000     -10.816220      -294.3243 
  33   2.0000     -10.816219      -294.3243 
  34   2.0000     -10.798004      -293.8286 
  35   2.0000     -10.798003      -293.8286 
  36   2.0000     -10.101902      -274.8867 
  37   2.0000     -10.101902      -274.8867 
  38   2.0000     -10.101868      -274.8858 
  39   2.0000     -10.101868      -274.8858 
  40   2.0000      -7.697750      -209.4664 
  41   2.0000      -7.697750      -209.4664 
  42   2.0000      -7.697718      -209.4656 
  43   2.0000      -7.697718      -209.4656 
  44   2.0000      -7.693078      -209.3393 
  45   2.0000      -7.693077      -209.3393 
  46   2.0000      -7.693044      -209.3384 
  47   2.0000      -7.693043      -209.3384 
  48   2.0000      -7.692918      -209.3349 
  49   2.0000      -7.692918      -209.3349 
  50   2.0000      -7.692884      -209.3340 
  51   2.0000      -7.692884      -209.3340 
  52   2.0000      -1.278113       -34.7792 
  53   2.0000      -1.278111       -34.7792 
  54   2.0000      -1.258125       -34.2353 
  55   2.0000      -1.258124       -34.2353 
  56   2.0000      -1.138117       -30.9697 
  57   2.0000      -1.135834       -30.9076 
  58   2.0000      -1.127722       -30.6869 
  59   2.0000      -1.097856       -29.8742 
  60   2.0000      -1.093674       -29.7604 
  61   2.0000      -1.070715       -29.1356 
  62   2.0000      -1.049338       -28.5539 
  63   2.0000      -1.038216       -28.2513 
  64   2.0000      -1.026811       -27.9409 
  65   2.0000      -0.995325       -27.0842 
  66   2.0000      -0.989370       -26.9221 
  67   2.0000      -0.959876       -26.1195 
  68   2.0000      -0.954826       -25.9821 
  69   2.0000      -0.912815       -24.8390 
  70   2.0000      -0.908998       -24.7351 
  71   2.0000      -0.889824       -24.2134 
  72   2.0000      -0.882529       -24.0148 
  73   2.0000      -0.861778       -23.4502 
  74   2.0000      -0.848147       -23.0792 
  75   2.0000      -0.817806       -22.2536 
  76   2.0000      -0.804275       -21.8854 
  77   2.0000      -0.792075       -21.5535 
  78   2.0000      -0.776130       -21.1196 
  79   2.0000      -0.763803       -20.7841 
  80   2.0000      -0.754596       -20.5336 
  81   2.0000      -0.747761       -20.3476 
  82   2.0000      -0.698627       -19.0106 
  83   2.0000      -0.678998       -18.4765 
  84   2.0000      -0.674909       -18.3652 
  85   2.0000      -0.665691       -18.1144 
  86   2.0000      -0.663103       -18.0440 
  87   2.0000      -0.646508       -17.5924 
  88   2.0000      -0.626023       -17.0350 
  89   2.0000      -0.610112       -16.6020 
  90   2.0000      -0.604001       -16.4357 
  91   2.0000      -0.596986       -16.2448 
  92   2.0000      -0.595097       -16.1934 
  93   2.0000      -0.592324       -16.1180 
  94   2.0000      -0.587887       -15.9972 
  95   2.0000      -0.581564       -15.8252 
  96   2.0000      -0.581267       -15.8171 
  97   2.0000      -0.573825       -15.6146 
  98   2.0000      -0.570526       -15.5248 
  99   2.0000      -0.568674       -15.4744 
 100   2.0000      -0.556999       -15.1567 
 101   2.0000      -0.553154       -15.0521 
 102   2.0000      -0.539180       -14.6718 
 103   2.0000      -0.529061       -14.3965 
 104   2.0000      -0.527585       -14.3563 
 105   2.0000      -0.527316       -14.3490 
 106   2.0000      -0.525570       -14.3015 
 107   2.0000      -0.515505       -14.0276 
 108   2.0000      -0.512013       -13.9326 
 109   2.0000      -0.510338       -13.8870 
 110   2.0000      -0.505315       -13.7503 
 111   2.0000      -0.495121       -13.4729 
 112   2.0000      -0.493813       -13.4373 
 113   2.0000      -0.490016       -13.3340 
 114   2.0000      -0.488549       -13.2941 
 115   2.0000      -0.487510       -13.2658 
 116   2.0000      -0.484669       -13.1885 
 117   2.0000      -0.476905       -12.9773 
 118   2.0000      -0.473092       -12.8735 
 119   2.0000      -0.458940       -12.4884 
 120   2.0000      -0.455014       -12.3816 
 121   2.0000      -0.440014       -11.9734 
 122   2.0000      -0.420335       -11.4379 
 123   2.0000      -0.415933       -11.3181 
 124   2.0000      -0.410650       -11.1744 
 125   2.0000      -0.406558       -11.0630 
 126   2.0000      -0.400099       -10.8872 
 127   2.0000      -0.399336       -10.8665 
 128   2.0000      -0.399075       -10.8594 
 129   2.0000      -0.392470       -10.6796 
 130   2.0000      -0.381965       -10.3938 
 131   2.0000      -0.381515       -10.3815 
 132   2.0000      -0.381338       -10.3767 
 133   2.0000      -0.362491        -9.8639 
 134   2.0000      -0.360362        -9.8060 
 135   2.0000      -0.336067        -9.1448 
 136   2.0000      -0.331873        -9.0307 
 137   2.0000      -0.315243        -8.5782 
 138   2.0000      -0.308317        -8.3897 
 139   2.0000      -0.263310        -7.1650 
 140   0.0000      -0.081238        -2.2106 
 141   0.0000      -0.017911        -0.4874 
 142   0.0000      -0.002688        -0.0731 
 143   0.0000       0.021736         0.5915 
 144   0.0000       0.023015         0.6263 
 145   0.0000       0.058784         1.5996 
 146   0.0000       0.059241         1.6120 
 147   0.0000       0.080020         2.1774 
 148   0.0000       0.102522         2.7898 
 149   0.0000       0.105445         2.8693 
 150   0.0000       0.105777         2.8783 
 151   0.0000       0.109505         2.9798 
 152   0.0000       0.117773         3.2048 
 153   0.0000       0.118150         3.2150 
 154   0.0000       0.127032         3.4567 
 155   0.0000       0.135149         3.6776 
 156   0.0000       0.140933         3.8350 
 157   0.0000       0.141273         3.8442 
 158   0.0000       0.148424         4.0388 
 159   0.0000       0.150871         4.1054 
 160   0.0000       0.153632         4.1805 
 161   0.0000       0.156404         4.2560 
 162   0.0000       0.160527         4.3682 
 163   0.0000       0.174402         4.7457 
 164   0.0000       0.175706         4.7812 
 165   0.0000       0.176954         4.8152 
 166   0.0000       0.178792         4.8652 
 167   0.0000       0.180410         4.9092 
 168   0.0000       0.186383         5.0717 
 169   0.0000       0.191170         5.2020 
 170   0.0000       0.194213         5.2848 
 171   0.0000       0.207051         5.6341 
 172   0.0000       0.209000         5.6872 
 173   0.0000       0.210594         5.7306 
 174   0.0000       0.215992         5.8775 
 175   0.0000       0.222210         6.0466 
 176   0.0000       0.223381         6.0785 
 177   0.0000       0.229096         6.2340 
 178   0.0000       0.230348         6.2681 
 179   0.0000       0.240711         6.5501 
 180   0.0000       0.245533         6.6813 
 181   0.0000       0.249353         6.7852 
 182   0.0000       0.252932         6.8826 
 183   0.0000       0.259299         7.0559 
 184   0.0000       0.265990         7.2380 
 185   0.0000       0.269927         7.3451 
 186   0.0000       0.271808         7.3963 
 187   0.0000       0.275873         7.5069 
 188   0.0000       0.278570         7.5803 
 189   0.0000       0.280120         7.6225 
 190   0.0000       0.284772         7.7490 
 191   0.0000       0.286122         7.7858 
 192   0.0000       0.290111         7.8943 
 193   0.0000       0.292453         7.9581 
 194   0.0000       0.295157         8.0316 
 195   0.0000       0.300095         8.1660 
 196   0.0000       0.306982         8.3534 
 197   0.0000       0.309219         8.4143 
 198   0.0000       0.309342         8.4176 
 199   0.0000       0.314313         8.5529 
 200   0.0000       0.315579         8.5873 
 201   0.0000       0.319111         8.6834 
 202   0.0000       0.319890         8.7047 
 203   0.0000       0.325404         8.8547 
 204   0.0000       0.328125         8.9287 
 205   0.0000       0.328309         8.9337 
 206   0.0000       0.333038         9.0624 
 207   0.0000       0.338048         9.1988 
 208   0.0000       0.338560         9.2127 
 209   0.0000       0.344388         9.3713 
 210   0.0000       0.346672         9.4334 
 211   0.0000       0.348836         9.4923 
 212   0.0000       0.351761         9.5719 
 213   0.0000       0.352308         9.5868 
 214   0.0000       0.353860         9.6290 
 215   0.0000       0.362534         9.8651 
 216   0.0000       0.366095         9.9619 
 217   0.0000       0.368064        10.0155 
 218   0.0000       0.370041        10.0693 
 219   0.0000       0.370732        10.0881 
 220   0.0000       0.381007        10.3677 
 221   0.0000       0.381686        10.3862 
 222   0.0000       0.385372        10.4865 
 223   0.0000       0.386534        10.5181 
 224   0.0000       0.387585        10.5467 
 225   0.0000       0.391496        10.6531 
 226   0.0000       0.393209        10.6998 
 227   0.0000       0.402939        10.9645 
 228   0.0000       0.406048        11.0491 
 229   0.0000       0.407820        11.0974 
 230   0.0000       0.413362        11.2481 
 231   0.0000       0.416177        11.3248 
 232   0.0000       0.421417        11.4673 
 233   0.0000       0.422092        11.4857 
 234   0.0000       0.428983        11.6732 
 235   0.0000       0.433292        11.7905 
 236   0.0000       0.433775        11.8036 
 237   0.0000       0.436097        11.8668 
 238   0.0000       0.441282        12.0079 
 239   0.0000       0.443534        12.0692 
 240   0.0000       0.445040        12.1102 
 241   0.0000       0.446281        12.1439 
 242   0.0000       0.453531        12.3412 
 243   0.0000       0.455207        12.3868 
 244   0.0000       0.459371        12.5001 
 245   0.0000       0.463618        12.6157 
 246   0.0000       0.464053        12.6275 
 247   0.0000       0.464539        12.6407 
 248   0.0000       0.468853        12.7581 
 249   0.0000       0.473973        12.8975 
 250   0.0000       0.474296        12.9062 
 251   0.0000       0.476962        12.9788 
 252   0.0000       0.480338        13.0706 
 253   0.0000       0.482298        13.1240 
 254   0.0000       0.485730        13.2174 
 255   0.0000       0.490717        13.3531 
 256   0.0000       0.491649        13.3784 
 257   0.0000       0.494395        13.4532 
 258   0.0000       0.503381        13.6977 
 259   0.0000       0.503539        13.7020 
 260   0.0000       0.511370        13.9151 
 261   0.0000       0.514438        13.9986 
 262   0.0000       0.517225        14.0744 
 263   0.0000       0.524292        14.2667 
 264   0.0000       0.528976        14.3942 
 265   0.0000       0.530868        14.4456 
 266   0.0000       0.536646        14.6029 
 267   0.0000       0.538366        14.6497 
 268   0.0000       0.539153        14.6711 
 269   0.0000       0.549789        14.9605 
 270   0.0000       0.556299        15.1377 
 271   0.0000       0.561018        15.2661 
 272   0.0000       0.562090        15.2953 
 273   0.0000       0.564798        15.3689 
 274   0.0000       0.566404        15.4126 
 275   0.0000       0.573335        15.6012 
 276   0.0000       0.578030        15.7290 
 277   0.0000       0.579201        15.7609 
 278   0.0000       0.581028        15.8106 
 279   0.0000       0.582428        15.8487 
 280   0.0000       0.590710        16.0740 
 281   0.0000       0.593513        16.1503 
 282   0.0000       0.601749        16.3744 
 283   0.0000       0.604299        16.4438 
 284   0.0000       0.606549        16.5050 
 285   0.0000       0.611512        16.6401 
 286   0.0000       0.616431        16.7740 
 287   0.0000       0.616705        16.7814 
 288   0.0000       0.623087        16.9551 
 289   0.0000       0.624899        17.0044 
 290   0.0000       0.629932        17.1413 
 291   0.0000       0.631480        17.1835 
 292   0.0000       0.633295        17.2328 
 293   0.0000       0.636433        17.3182 
 294   0.0000       0.638888        17.3850 
 295   0.0000       0.644284        17.5318 
 296   0.0000       0.649554        17.6753 
 297   0.0000       0.650549        17.7023 
 298   0.0000       0.653770        17.7900 
 299   0.0000       0.654455        17.8086 
 300   0.0000       0.669380        18.2148 
 301   0.0000       0.670002        18.2317 
 302   0.0000       0.675931        18.3930 
 303   0.0000       0.678244        18.4560 
 304   0.0000       0.680810        18.5258 
 305   0.0000       0.683211        18.5911 
 306   0.0000       0.688524        18.7357 
 307   0.0000       0.690117        18.7790 
 308   0.0000       0.690592        18.7920 
 309   0.0000       0.693369        18.8675 
 310   0.0000       0.698767        19.0144 
 311   0.0000       0.700977        19.0746 
 312   0.0000       0.704357        19.1665 
 313   0.0000       0.704859        19.1802 
 314   0.0000       0.714801        19.4507 
 315   0.0000       0.716021        19.4839 
 316   0.0000       0.716793        19.5049 
 317   0.0000       0.722038        19.6477 
 318   0.0000       0.727599        19.7990 
 319   0.0000       0.732751        19.9392 
 320   0.0000       0.733394        19.9567 
 321   0.0000       0.736870        20.0513 
 322   0.0000       0.737066        20.0566 
 323   0.0000       0.738835        20.1047 
 324   0.0000       0.742773        20.2119 
 325   0.0000       0.742845        20.2138 
 326   0.0000       0.754293        20.5254 
 327   0.0000       0.756219        20.5778 
 328   0.0000       0.765070        20.8186 
 329   0.0000       0.766333        20.8530 
 330   0.0000       0.767198        20.8765 
 331   0.0000       0.773113        21.0375 
 332   0.0000       0.773684        21.0530 
 333   0.0000       0.786029        21.3889 
 334   0.0000       0.787387        21.4259 
 335   0.0000       0.794889        21.6300 
 336   0.0000       0.797799        21.7092 
 337   0.0000       0.801442        21.8083 
 338   0.0000       0.807042        21.9607 
 339   0.0000       0.807447        21.9718 
 340   0.0000       0.813485        22.1360 
 341   0.0000       0.813632        22.1401 
 342   0.0000       0.818738        22.2790 
 343   0.0000       0.828068        22.5329 
 344   0.0000       0.828688        22.5498 
 345   0.0000       0.829499        22.5718 
 346   0.0000       0.834228        22.7005 
 347   0.0000       0.836205        22.7543 
 348   0.0000       0.841227        22.8910 
 349   0.0000       0.849548        23.1174 
 350   0.0000       0.849874        23.1262 
 351   0.0000       0.855385        23.2762 
 352   0.0000       0.858163        23.3518 
 353   0.0000       0.859201        23.3801 
 354   0.0000       0.862049        23.4575 
 355   0.0000       0.866981        23.5917 
 356   0.0000       0.873928        23.7808 
 357   0.0000       0.877154        23.8686 
 358   0.0000       0.879143        23.9227 
 359   0.0000       0.886104        24.1121 
 360   0.0000       0.887833        24.1592 
 361   0.0000       0.894030        24.3278 
 362   0.0000       0.898488        24.4491 
 363   0.0000       0.900029        24.4910 
 364   0.0000       0.907630        24.6979 
 365   0.0000       0.908899        24.7324 
 366   0.0000       0.918967        25.0064 
 367   0.0000       0.927210        25.2307 
 368   0.0000       0.933111        25.3912 
 369   0.0000       0.933919        25.4132 
 370   0.0000       0.935742        25.4628 
 371   0.0000       0.940993        25.6057 
 372   0.0000       0.944954        25.7135 
 373   0.0000       0.945597        25.7310 
 374   0.0000       0.948486        25.8096 
 375   0.0000       0.950714        25.8702 
 376   0.0000       0.953512        25.9464 
 377   0.0000       0.955862        26.0103 
 378   0.0000       0.956383        26.0245 
 379   0.0000       0.966453        26.2985 
 380   0.0000       0.975197        26.5365 
 381   0.0000       0.977875        26.6093 
 382   0.0000       0.980148        26.6712 
 383   0.0000       0.983500        26.7624 
 384   0.0000       0.989737        26.9321 
 385   0.0000       0.996310        27.1110 
 386   0.0000       0.996635        27.1198 
 387   0.0000       1.003905        27.3176 
 388   0.0000       1.012189        27.5431 
 389   0.0000       1.015421        27.6310 
 390   0.0000       1.017192        27.6792 
 391   0.0000       1.020845        27.7786 
 392   0.0000       1.024064        27.8662 
 393   0.0000       1.029402        28.0114 
 394   0.0000       1.031647        28.0725 
 395   0.0000       1.042845        28.3773 
 396   0.0000       1.050396        28.5827 
 397   0.0000       1.051354        28.6088 
 398   0.0000       1.058673        28.8080 
 399   0.0000       1.070022        29.1168 
 400   0.0000       1.074814        29.2472 
 401   0.0000       1.075867        29.2758 
 402   0.0000       1.080620        29.4052 
 403   0.0000       1.081382        29.4259 
 404   0.0000       1.084079        29.4993 
 405   0.0000       1.089182        29.6381 
 406   0.0000       1.092843        29.7378 
 407   0.0000       1.099785        29.9267 
 408   0.0000       1.109261        30.1845 
 409   0.0000       1.113513        30.3002 
 410   0.0000       1.115718        30.3602 
 411   0.0000       1.118735        30.4423 
 412   0.0000       1.125542        30.6276 
 413   0.0000       1.142431        31.0871 
 414   0.0000       1.144804        31.1517 
 415   0.0000       1.153907        31.3994 
 416   0.0000       1.157460        31.4961 
 417   0.0000       1.163328        31.6558 
 418   0.0000       1.166979        31.7551 
 419   0.0000       1.172809        31.9138 
 420   0.0000       1.173468        31.9317 
 421   0.0000       1.188089        32.3295 
 422   0.0000       1.194075        32.4924 
 423   0.0000       1.203599        32.7516 
 424   0.0000       1.205460        32.8022 
 425   0.0000       1.217913        33.1411 
 426   0.0000       1.219329        33.1796 
 427   0.0000       1.225502        33.3476 
 428   0.0000       1.226542        33.3759 
 429   0.0000       1.231140        33.5010 
 430   0.0000       1.237790        33.6820 
 431   0.0000       1.255209        34.1560 
 432   0.0000       1.257739        34.2248 
 433   0.0000       1.262109        34.3437 
 434   0.0000       1.275209        34.7002 
 435   0.0000       1.281572        34.8733 
 436   0.0000       1.290163        35.1071 
 437   0.0000       1.293857        35.2076 
 438   0.0000       1.298511        35.3343 
 439   0.0000       1.303044        35.4576 
 440   0.0000       1.305187        35.5159 
 441   0.0000       1.311572        35.6897 
 442   0.0000       1.322850        35.9966 
 443   0.0000       1.346907        36.6512 
 444   0.0000       1.350684        36.7540 
 445   0.0000       1.352938        36.8153 
 446   0.0000       1.360475        37.0204 
 447   0.0000       1.364646        37.1339 
 448   0.0000       1.364826        37.1388 
 449   0.0000       1.371810        37.3288 
 450   0.0000       1.376511        37.4568 
 451   0.0000       1.379708        37.5438 
 452   0.0000       1.391336        37.8602 
 453   0.0000       1.393505        37.9192 
 454   0.0000       1.396487        38.0003 
 455   0.0000       1.399063        38.0704 
 456   0.0000       1.399101        38.0715 
 457   0.0000       1.410129        38.3716 
 458   0.0000       1.427577        38.8463 
 459   0.0000       1.429136        38.8888 
 460   0.0000       1.438935        39.1554 
 461   0.0000       1.440514        39.1984 
 462   0.0000       1.454640        39.5828 
 463   0.0000       1.459051        39.7028 
 464   0.0000       1.463495        39.8237 
 465   0.0000       1.477986        40.2180 
 466   0.0000       1.491500        40.5858 
 467   0.0000       1.494139        40.6576 
 468   0.0000       1.495982        40.7077 
 469   0.0000       1.498548        40.7776 
 470   0.0000       1.510076        41.0913 
 471   0.0000       1.516687        41.2711 
 472   0.0000       1.518120        41.3102 
 473   0.0000       1.519448        41.3463 
 474   0.0000       1.533970        41.7415 
 475   0.0000       1.542588        41.9760 
 476   0.0000       1.544434        42.0262 
 477   0.0000       1.549440        42.1624 
 478   0.0000       1.558227        42.4015 
 479   0.0000       1.561117        42.4801 
 480   0.0000       1.561845        42.5000 
 481   0.0000       1.566019        42.6136 
 482   0.0000       1.573034        42.8044 
 483   0.0000       1.573734        42.8235 
 484   0.0000       1.575233        42.8643 
 485   0.0000       1.581261        43.0283 
 486   0.0000       1.588098        43.2143 
 487   0.0000       1.593158        43.3520 
 488   0.0000       1.604940        43.6726 
 489   0.0000       1.607139        43.7325 
 490   0.0000       1.613704        43.9111 
 491   0.0000       1.624365        44.2012 
 492   0.0000       1.630095        44.3571 
 493   0.0000       1.643122        44.7116 
 494   0.0000       1.647058        44.8187 
 495   0.0000       1.647105        44.8200 
 496   0.0000       1.655713        45.0542 
 497   0.0000       1.656653        45.0798 
 498   0.0000       1.669884        45.4399 
 499   0.0000       1.671369        45.4803 
 500   0.0000       1.676590        45.6223 
 501   0.0000       1.682976        45.7961 
 502   0.0000       1.687786        45.9270 
 503   0.0000       1.687868        45.9292 
 504   0.0000       1.689020        45.9606 
 505   0.0000       1.692611        46.0583 
 506   0.0000       1.696661        46.1685 
 507   0.0000       1.696847        46.1736 
 508   0.0000       1.704090        46.3707 
 509   0.0000       1.713792        46.6346 
 510   0.0000       1.719542        46.7911 
 511   0.0000       1.724697        46.9314 
 512   0.0000       1.727876        47.0179 
 513   0.0000       1.729879        47.0724 
 514   0.0000       1.749858        47.6161 
 515   0.0000       1.751392        47.6578 
 516   0.0000       1.756784        47.8045 
 517   0.0000       1.767546        48.0974 
 518   0.0000       1.768217        48.1156 
 519   0.0000       1.773008        48.2460 
 520   0.0000       1.776368        48.3374 
 521   0.0000       1.791296        48.7436 
 522   0.0000       1.795044        48.8456 
 523   0.0000       1.796787        48.8930 
 524   0.0000       1.807637        49.1883 
 525   0.0000       1.816545        49.4307 
 526   0.0000       1.817282        49.4507 
 527   0.0000       1.820296        49.5328 
 528   0.0000       1.835878        49.9568 
 529   0.0000       1.850118        50.3443 
 530   0.0000       1.852531        50.4099 
 531   0.0000       1.853463        50.4353 
 532   0.0000       1.854045        50.4511 
 533   0.0000       1.859870        50.6096 
 534   0.0000       1.865349        50.7587 
 535   0.0000       1.872234        50.9461 
 536   0.0000       1.873908        50.9916 
 537   0.0000       1.879969        51.1565 
 538   0.0000       1.883308        51.2474 
 539   0.0000       1.885012        51.2938 
 540   0.0000       1.891417        51.4681 
 541   0.0000       1.897917        51.6449 
 542   0.0000       1.900952        51.7275 
 543   0.0000       1.913923        52.0805 
 544   0.0000       1.917049        52.1656 
 545   0.0000       1.919978        52.2453 
 546   0.0000       1.921703        52.2922 
 547   0.0000       1.926812        52.4312 
 548   0.0000       1.932382        52.5828 
 549   0.0000       1.941263        52.8245 
 550   0.0000       1.950836        53.0850 
 551   0.0000       1.952717        53.1361 
 552   0.0000       1.961822        53.3839 
 553   0.0000       1.963187        53.4210 
 554   0.0000       1.966117        53.5008 
 555   0.0000       1.975966        53.7688 
 556   0.0000       1.984092        53.9899 
 557   0.0000       1.987879        54.0929 
 558   0.0000       1.993930        54.2576 
 559   0.0000       1.998608        54.3849 
 560   0.0000       2.000428        54.4344 
 561   0.0000       2.013739        54.7966 
 562   0.0000       2.021189        54.9993 
 563   0.0000       2.021898        55.0186 
 564   0.0000       2.027112        55.1605 
 565   0.0000       2.027625        55.1745 
 566   0.0000       2.035735        55.3952 
 567   0.0000       2.040452        55.5235 
 568   0.0000       2.044091        55.6225 
 569   0.0000       2.046647        55.6921 
 570   0.0000       2.046993        55.7015 
 571   0.0000       2.056671        55.9649 
 572   0.0000       2.064114        56.1674 
 573   0.0000       2.065283        56.1992 
 574   0.0000       2.065340        56.2008 
[...]
   129a -> 142a  :     0.012544 
   131a -> 140a  :     0.503672 
   131a -> 145a  :     0.076937 
   132a -> 141a  :     0.202624 
   132a -> 147a  :     0.038222 

STATE 10:  E=   0.160956 au      4.380 eV    35325.7 cm**-1 <S**2> =   0.000000
   133a -> 140a  :     0.013104 
   136a -> 144a  :     0.052677 
   137a -> 140a  :     0.068456 
   138a -> 141a  :     0.020673 
   139a -> 142a  :     0.017602 
   139a -> 143a  :     0.788576 

STATE 11:  E=   0.159259 au      4.334 eV    34953.2 cm**-1 <S**2> =   0.000000
   125a -> 140a  :     0.020373 
   133a -> 141a  :     0.023029 
   134a -> 140a  :     0.120893 
   135a -> 141a  :     0.015779 
   136a -> 142a  :     0.016022 
   136a -> 143a  :     0.039330 
   137a -> 141a  :     0.042792 
   138a -> 140a  :     0.075990 
   139a -> 144a  :     0.598630 
   139a -> 146a  :     0.015502 

STATE 12:  E=   0.157880 au      4.296 eV    34650.6 cm**-1 <S**2> =   0.000000
   122a -> 140a  :     0.017095 
   124a -> 141a  :     0.010076 
   126a -> 141a  :     0.163407 
   126a -> 147a  :     0.026636 
   127a -> 140a  :     0.094994 
   127a -> 145a  :     0.012940 
   128a -> 140a  :     0.160100 
   128a -> 145a  :     0.020011 
   129a -> 140a  :     0.212879 
   129a -> 145a  :     0.015010 
   131a -> 142a  :     0.078500 
   131a -> 156a  :     0.022256 
   132a -> 146a  :     0.064259 

STATE 13:  E=   0.158578 au      4.315 eV    34803.9 cm**-1 <S**2> =   0.000000
   122a -> 141a  :     0.016975 
   124a -> 140a  :     0.018280 
   126a -> 140a  :     0.412921 
   126a -> 145a  :     0.058472 
   127a -> 141a  :     0.041600 
   128a -> 141a  :     0.070290 
   128a -> 147a  :     0.011257 
   129a -> 141a  :     0.059727 
   130a -> 140a  :     0.029156 
   131a -> 146a  :     0.069947 
   132a -> 142a  :     0.083562 
   132a -> 156a  :     0.022971 

STATE 14:  E=   0.156445 au      4.257 eV    34335.8 cm**-1 <S**2> =   0.000000
   125a -> 140a  :     0.023777 
   133a -> 141a  :     0.051575 
   134a -> 140a  :     0.518402 
   134a -> 145a  :     0.014314 
   135a -> 141a  :     0.097721 
   137a -> 141a  :     0.099444 
   138a -> 140a  :     0.039467 
   139a -> 144a  :     0.101515 
   139a -> 146a  :     0.013452 

STATE 15:  E=   0.153663 au      4.181 eV    33725.2 cm**-1 <S**2> =   0.000000
   133a -> 140a  :     0.644867 
   133a -> 145a  :     0.012845 
   134a -> 141a  :     0.107525 
   137a -> 140a  :     0.020399 
   138a -> 141a  :     0.143576 
   138a -> 142a  :     0.017691 

STATE 16:  E=   0.171348 au      4.663 eV    37606.6 cm**-1 <S**2> =   0.000000
   126a -> 140a  :     0.011690 
   130a -> 140a  :     0.196068 
   133a -> 140a  :     0.017249 
   135a -> 144a  :     0.026660 
   137a -> 146a  :     0.037819 
   138a -> 142a  :     0.629261 

STATE 17:  E=   0.180255 au      4.905 eV    39561.3 cm**-1 <S**2> =   0.000000
   127a -> 140a  :     0.029005 
   128a -> 140a  :     0.051166 
   129a -> 140a  :     0.124970 
   135a -> 142a  :     0.015814 
   135a -> 143a  :     0.016483 
   136a -> 141a  :     0.076279 
   137a -> 142a  :     0.471088 
   137a -> 143a  :     0.042836 
   138a -> 144a  :     0.061713 
   138a -> 146a  :     0.034518 

STATE 18:  E=   0.166551 au      4.532 eV    36553.8 cm**-1 <S**2> =   0.000000
   133a -> 140a  :     0.134468 
   134a -> 141a  :     0.021470 
   137a -> 140a  :     0.039425 
   138a -> 141a  :     0.703134 
   138a -> 147a  :     0.011206 
   139a -> 143a  :     0.059581 

STATE 19:  E=   0.190157 au      5.174 eV    41734.5 cm**-1 <S**2> =   0.000000
   125a -> 140a  :     0.122943 
   127a -> 140a  :     0.010717 
   133a -> 141a  :     0.022996 
   134a -> 140a  :     0.036167 
   135a -> 141a  :     0.199852 
   136a -> 142a  :     0.112439 
   137a -> 141a  :     0.245927 
   138a -> 145a  :     0.013953 
   139a -> 144a  :     0.082241 
   139a -> 146a  :     0.097497 

STATE 20:  E=   0.190746 au      5.190 eV    41864.0 cm**-1 <S**2> =   0.000000
   125a -> 144a  :     0.010396 
   135a -> 142a  :     0.028778 
   135a -> 143a  :     0.048685 
   136a -> 141a  :     0.338680 
   137a -> 142a  :     0.224133 
   137a -> 143a  :     0.100088 
   138a -> 144a  :     0.107249 
   138a -> 146a  :     0.034016 
   139a -> 140a  :     0.022462 
   139a -> 145a  :     0.026403 

STATE 21:  E=   0.179235 au      4.877 eV    39337.5 cm**-1 <S**2> =   0.000000
   125a -> 140a  :     0.024859 
   133a -> 141a  :     0.024651 
   134a -> 140a  :     0.126420 
   135a -> 141a  :     0.018319 
   136a -> 142a  :     0.062673 
   137a -> 141a  :     0.451408 
   137a -> 147a  :     0.010903 
   138a -> 140a  :     0.011527 
   139a -> 144a  :     0.067064 
   139a -> 146a  :     0.164400 

STATE 22:  E=   0.195498 au      5.320 eV    42906.8 cm**-1 <S**2> =   0.000000
   128a -> 140a  :     0.012243 
   129a -> 140a  :     0.073185 
   135a -> 142a  :     0.197347 
   135a -> 143a  :     0.014675 
   136a -> 141a  :     0.083126 
   137a -> 143a  :     0.131863 
   138a -> 144a  :     0.122935 
   139a -> 145a  :     0.281392 

STATE 23:  E=   0.176512 au      4.803 eV    38739.9 cm**-1 <S**2> =   0.000000
   124a -> 140a  :     0.022917 
   127a -> 142a  :     0.015490 
   130a -> 140a  :     0.639787 
   137a -> 144a  :     0.023379 
   138a -> 142a  :     0.151469 
   138a -> 143a  :     0.046196 
   139a -> 147a  :     0.010896 

STATE 24:  E=   0.206293 au      5.614 eV    45276.0 cm**-1 <S**2> =   0.000000
   130a -> 140a  :     0.038178 
   136a -> 140a  :     0.026557 
   137a -> 144a  :     0.330458 
   138a -> 142a  :     0.040759 
   138a -> 143a  :     0.458698 
   139a -> 141a  :     0.012785 
   139a -> 147a  :     0.018197 

STATE 25:  E=   0.181530 au      4.940 eV    39841.3 cm**-1 <S**2> =   0.000000
   125a -> 140a  :     0.042454 
   127a -> 140a  :     0.021000 
   128a -> 140a  :     0.012477 
   133a -> 141a  :     0.020988 
   134a -> 140a  :     0.020795 
   135a -> 141a  :     0.336275 
   136a -> 142a  :     0.358327 
   137a -> 141a  :     0.013118 
   139a -> 144a  :     0.019033 
   139a -> 146a  :     0.114592 

STATE 26:  E=   0.184148 au      5.011 eV    40415.8 cm**-1 <S**2> =   0.000000
   119a -> 140a  :     0.022686 
   124a -> 142a  :     0.019394 
   127a -> 140a  :     0.461404 
   128a -> 140a  :     0.278176 
   130a -> 142a  :     0.021568 
   132a -> 140a  :     0.029142 
   135a -> 141a  :     0.055382 
   136a -> 142a  :     0.016941 
   137a -> 141a  :     0.021013 

STATE 27:  E=   0.200621 au      5.459 eV    44031.2 cm**-1 <S**2> =   0.000000
   125a -> 146a  :     0.010041 
   129a -> 140a  :     0.037540 
   130a -> 141a  :     0.012399 
   135a -> 142a  :     0.464435 
   136a -> 141a  :     0.112252 
   137a -> 142a  :     0.018941 
   137a -> 143a  :     0.110846 
   138a -> 144a  :     0.168734 

STATE 28:  E=   0.189566 au      5.158 eV    41604.8 cm**-1 <S**2> =   0.000000
   119a -> 140a  :     0.012175 
   125a -> 140a  :     0.520551 
   127a -> 140a  :     0.035387 
   129a -> 140a  :     0.013539 
   135a -> 141a  :     0.063511 
   136a -> 142a  :     0.040364 
   139a -> 145a  :     0.011911 
   139a -> 146a  :     0.208301 

STATE 29:  E=   0.186249 au      5.068 eV    40876.9 cm**-1 <S**2> =   0.000000
   122a -> 140a  :     0.026774 
   125a -> 140a  :     0.018069 
   127a -> 140a  :     0.016997 
   128a -> 140a  :     0.055516 
   129a -> 140a  :     0.339284 
   135a -> 142a  :     0.026782 
   135a -> 143a  :     0.027871 
   137a -> 142a  :     0.116905 
   137a -> 143a  :     0.029947 
   138a -> 144a  :     0.048302 
   139a -> 145a  :     0.168284 
   139a -> 146a  :     0.014503 
   139a -> 148a  :     0.015539 

STATE 30:  E=   0.199491 au      5.428 eV    43783.2 cm**-1 <S**2> =   0.000000
   122a -> 140a  :     0.040470 
   127a -> 140a  :     0.017928 
   128a -> 140a  :     0.032464 
   129a -> 140a  :     0.033488 
   130a -> 141a  :     0.025273 
   135a -> 142a  :     0.175445 
   136a -> 141a  :     0.235433 
   136a -> 147a  :     0.035247 
   137a -> 142a  :     0.021758 
   137a -> 151a  :     0.013316 
   138a -> 144a  :     0.018250 
   138a -> 153a  :     0.011042 
   139a -> 145a  :     0.210050 
   139a -> 148a  :     0.050034 


-------------------------
TD-DFT-EXCITATION SPECTRA
-------------------------

Center of mass = (  0.0000,  0.0000, -0.0004)
Calculating the Dipole integrals                  ... done
Transforming integrals                            ... done
Calculating the Linear Momentum integrals         ... done
Transforming integrals                            ... done
Calculating angular momentum integrals            ... done
Transforming integrals                            ... done

-----------------------------------------------------------------------------
         ABSORPTION SPECTRUM VIA TRANSITION ELECTRIC DIPOLE MOMENTS
-----------------------------------------------------------------------------
State   Energy    Wavelength  fosc         T2        TX        TY        TZ  
        (cm-1)      (nm)                 (au**2)    (au)      (au)      (au) 
-----------------------------------------------------------------------------
   1   19433.3    514.6   0.733985726  12.43419  -3.52621   0.00052  -0.00000
   2   24861.5    402.2   0.235139375   3.11368   0.00164  -1.76456  -0.00015
   3   25822.0    387.3   0.026981203   0.34399   0.00004   0.00040  -0.58651
   4   29941.4    334.0   0.021638112   0.23792   0.00001   0.00005  -0.48777
   5   30336.1    329.6   0.000029319   0.00032  -0.00001   0.00000  -0.01784
   6   28370.5    352.5   0.000001374   0.00002  -0.00003   0.00001  -0.00399
   7   29464.5    339.4   0.000435073   0.00486  -0.00002   0.00000   0.06972
   8   30858.7    324.1   0.000072706   0.00078   0.00313  -0.02767   0.00016
   9   30858.8    324.1   0.000339989   0.00363  -0.00001  -0.00013  -0.06023
  10   35325.7    283.1   0.065094483   0.60664  -0.00003   0.00004   0.77887
  11   34953.2    286.1   0.275984970   2.59940  -0.00618  -1.61225   0.00002
  12   34650.6    288.6   0.005130468   0.04874  -0.21107   0.06475  -0.00003
  13   34803.9    287.3   0.000003226   0.00003   0.00004   0.00003   0.00552
  14   34335.8    291.2   0.429292943   4.11606  -0.02511   2.02865   0.00000
  15   33725.2    296.5   0.026549657   0.25917   0.00004  -0.00003   0.50908
  16   37606.6    265.9   0.000803852   0.00704  -0.00005  -0.00005  -0.08389
  17   39561.3    252.8   0.017712840   0.14740  -0.38119  -0.04576   0.00002
  18   36553.8    273.6   0.053959907   0.48598  -0.00003   0.00021   0.69712
  19   41734.5    239.6   0.082045816   0.64720  -0.00594  -0.80446   0.00007
  20   41864.0    238.9   0.015538490   0.12219  -0.34825   0.03023  -0.00003
  21   39337.5    254.2   0.527969258   4.41852   0.02986  -2.10182   0.00003
  22   42906.8    233.1   0.161760234   1.24114  -1.11130  -0.07842  -0.00001
  23   38739.9    258.1   0.000011699   0.00010  -0.00001   0.00009   0.00997
  24   45276.0    220.9   0.000000070   0.00000   0.00007   0.00003   0.00071
  25   39841.3    251.0   0.000316040   0.00261  -0.04561  -0.02304   0.00000
  26   40415.8    247.4   0.027894987   0.22722   0.01073   0.47656  -0.00001
  27   44031.2    227.1   1.521027877  11.37240   3.37230  -0.00255   0.00002
  28   41604.8    240.4   0.010287818   0.08141  -0.28477  -0.01768   0.00001
  29   40876.9    244.6   0.248183349   1.99880   1.41360   0.02331  -0.00002
  30   43783.2    228.4   0.348118923   2.61756  -1.61781  -0.01597   0.00002

-----------------------------------------------------------------------------
         ABSORPTION SPECTRUM VIA TRANSITION VELOCITY DIPOLE MOMENTS
-----------------------------------------------------------------------------
State   Energy    Wavelength   fosc        P2         PX        PY        PZ  
        (cm-1)      (nm)                 (au**2)     (au)      (au)      (au) 
-----------------------------------------------------------------------------
   1   19433.3    514.6   0.889844777   0.11819   0.34378  -0.00008  -0.00000
   2   24861.5    402.2   0.330145806   0.05610  -0.00032   0.23685   0.00002
   3   25822.0    387.3   0.036041451   0.00636  -0.00000  -0.00005   0.07975
   4   29941.4    334.0   0.025210221   0.00516  -0.00000  -0.00000   0.07183
   5   30336.1    329.6   0.000035326   0.00001   0.00000  -0.00000   0.00271
   6   28370.5    352.5   0.000002203   0.00000   0.00001   0.00000   0.00065
   7   29464.5    339.4   0.000668187   0.00013   0.00000   0.00000  -0.01160
   8   30858.7    324.1   0.000126771   0.00003  -0.00057   0.00514  -0.00003
   9   30858.8    324.1   0.000695053   0.00015   0.00000   0.00002   0.01211
  10   35325.7    283.1   0.086127635   0.02079   0.00001  -0.00001  -0.14420
  11   34953.2    286.1   0.391820163   0.09360   0.00076   0.30594  -0.00000
  12   34650.6    288.6   0.007529143   0.00178   0.04038  -0.01234  -0.00000
  13   34803.9    287.3   0.000008129   0.00000  -0.00001  -0.00000  -0.00139
  14   34335.8    291.2   0.667640963   0.15667   0.00426  -0.39580   0.00000
  15   33725.2    296.5   0.043211478   0.00996  -0.00001   0.00001  -0.09980
  16   37606.6    265.9   0.001057250   0.00027   0.00001   0.00001   0.01648
  17   39561.3    252.8   0.022106191   0.00598   0.07678   0.00905  -0.00000
  18   36553.8    273.6   0.084187662   0.02103   0.00001  -0.00005  -0.14503
  19   41734.5    239.6   0.102033024   0.02910   0.00100   0.17059  -0.00002
  20   41864.0    238.9   0.019375022   0.00554   0.07418  -0.00641   0.00000
  21   39337.5    254.2   0.745441762   0.20041  -0.00612   0.44763  -0.00001
  22   42906.8    233.1   0.204900093   0.06009   0.24457   0.01656   0.00000
  23   38739.9    258.1   0.000018858   0.00000   0.00000  -0.00002  -0.00223
  24   45276.0    220.9   0.000000039   0.00000  -0.00002  -0.00001  -0.00011
  25   39841.3    251.0   0.000534126   0.00015   0.01038   0.00614  -0.00000
  26   40415.8    247.4   0.041472409   0.01146  -0.00241  -0.10700   0.00000
  27   44031.2    227.1   2.001735888   0.60239  -0.77613   0.00030  -0.00000
  28   41604.8    240.4   0.015456607   0.00440   0.06616   0.00419  -0.00001
  29   40876.9    244.6   0.389330867   0.10877  -0.32975  -0.00555   0.00000
  30   43783.2    228.4   0.485568913   0.14530   0.38116   0.00391  -0.00000

-------------------------------------------------------------------
                             CD SPECTRUM
-------------------------------------------------------------------
State  Energy     Wavelength     R         MX        MY        MZ   
       (cm-1)       (nm)     (1e40*cgs)   (au)      (au)      (au)  
-------------------------------------------------------------------
   1   19433.3    514.6    139.31986  -0.08380   0.00057  -0.00001
   2   24861.5    402.2    -147.58019   0.00003   0.17740  -0.00016
   3   25822.0    387.3    218.23816  -0.00000  -0.00004  -0.78926
   4   29941.4    334.0    -235.31001   0.00000  -0.00001   1.02328
   5   30336.1    329.6     -0.14728  -0.00000  -0.00001   0.01751
   6   28370.5    352.5     -0.01344  -0.00001   0.00000   0.00714
   7   29464.5    339.4     -5.13823   0.00000   0.00000  -0.15632
   8   30858.7    324.1     -5.96719   0.02651   0.46038   0.00033
   9   30858.8    324.1      3.81186   0.00008   0.00136  -0.13425
  10   35325.7    283.1    469.53998  -0.00001  -0.00000   1.27871
  11   34953.2    286.1    -84.18460  -0.00264   0.11076   0.00003
  12   34650.6    288.6     31.65488  -0.32016  -0.00669  -0.00003
  13   34803.9    287.3      0.04090   0.00004   0.00001   0.01570
  14   34335.8    291.2    -675.90209   0.01276  -0.70655   0.00000
  15   33725.2    296.5    342.28911   0.00000   0.00003   1.42615
  16   37606.6    265.9      9.53921   0.00003   0.00003  -0.24120
  17   39561.3    252.8    -26.53857   0.14486   0.02340   0.00008
  18   36553.8    273.6    366.15984  -0.00000  -0.00005   1.11411
  19   41734.5    239.6    -87.94200  -0.00228   0.23189   0.00011
  20   41864.0    238.9     15.29381  -0.09388  -0.00841  -0.00005
  21   39337.5    254.2    -240.44889   0.00020   0.24266   0.00005
  22   42906.8    233.1     20.98639  -0.04102   0.01370  -0.00001
  23   38739.9    258.1      0.13878  -0.00001  -0.00004   0.02953
  24   45276.0    220.9      0.00107   0.00001   0.00010   0.00320
  25   39841.3    251.0      1.38868   0.00019  -0.12822  -0.00001
  26   40415.8    247.4    -68.62662   0.00309  -0.30552  -0.00001
  27   44031.2    227.1    116.88886   0.07352  -0.00685   0.00002
  28   41604.8    240.4     -0.63662   0.00913  -0.07062  -0.00001
  29   40876.9    244.6    -38.26873  -0.05701  -0.02502  -0.00003
  30   43783.2    228.4     66.05884  -0.08671   0.01061   0.00002

Total run time:    82236.896 sec

           *** ORCA-CIS/TD-DFT FINISHED WITHOUT ERROR ***

Maximum memory used throughout the entire CIS-calculation: 6717.1 MB

-----------------------
CIS/TD-DFT TOTAL ENERGY
-----------------------

    E(SCF)  =  -3244.093825334 Eh
    DE(CIS) =      0.088544464 Eh (Root  1)
    ----------------------------- ---------
    E(tot)  =  -3244.005280870 Eh


-------------------------   --------------------
FINAL SINGLE POINT ENERGY     -3244.005280869718
-------------------------   --------------------


                            ***************************************
                            *     ORCA property calculations      *
                            ***************************************


  WARNING: The energy has been calculated at the MP2 level but the densities
           used in the property calculations are still SCF densities
           MP2 response densities have not been calculated 
           use %mp2 Density relaxed end
           or  %mp2 Density unrelaxed end

                                    ---------------------
                                    Active property flags
                                    ---------------------
   (+) Dipole Moment


------------------------------------------------------------------------------
                       ORCA ELECTRIC PROPERTIES CALCULATION
------------------------------------------------------------------------------

Dipole Moment Calculation                       ... on
Quadrupole Moment Calculation                   ... off
Polarizability Calculation                      ... off
GBWName                                         ... PDI_2_M06L_def2TZVP_coords.gbw
Electron density                                ... PDI_2_M06L_def2TZVP_coords.scfp
The origin for moment calculation is the CENTER OF MASS  = ( 0.000000,  0.000000 -0.000402)

-------------
DIPOLE MOMENT
-------------
                                X             Y             Z
Electronic contribution:      0.00001       0.00003      -0.10979
Nuclear contribution   :      0.00000      -0.00000       0.11258
                        -----------------------------------------
Total Dipole Moment    :      0.00001       0.00003       0.00279
                        -----------------------------------------
Magnitude (a.u.)       :      0.00279
Magnitude (Debye)      :      0.00709



--------------------
Rotational spectrum 
--------------------
 
Rotational constants in cm-1:     0.005049     0.002246     0.001678 
Rotational constants in MHz :   151.365717    67.318622    50.310932 

 Dipole components along the rotational axes: 
x,y,z [a.u.] :     0.000007     0.000025     0.002791 
x,y,z [Debye]:     0.000017     0.000065     0.007095 

 

Timings for individual modules:

Sum of individual times         ...    85618.911 sec (=1426.982 min)
GTO integral calculation        ...        3.783 sec (=   0.063 min)   0.0 %
SCF iterations                  ...     1036.140 sec (=  17.269 min)   1.2 %
MP2 module                      ...     2341.653 sec (=  39.028 min)   2.7 %
CIS module                      ...    82237.335 sec (=1370.622 min)  96.1 %
                             ****ORCA TERMINATED NORMALLY****
TOTAL RUN TIME: 0 days 23 hours 47 minutes 3 seconds 182 msec
