 Entering Gaussian System, Link 0=g09
 Input=/home/png4rjv/fotokatalizis/benchmark/OPCs/PDI_2_PBE-D3_def2TZVP.gjf
 Output=/home/png4rjv/fotokatalizis/benchmark/OPCs/PDI_2_PBE-D3_def2TZVP.log
 Initial command:
 /opt/nce/packages/global/g09/l1.exe "/home/png4rjv/fotokatalizis/benchmark/OPCs/PDI_2_PBE-D3_def2TZVP/Gau-30311.inp" -scrdir="/home/png4rjv/fotokatalizis/benchmark/OPCs/PDI_2_PBE-D3_def2TZVP/"
 Default is to use a total of  12 processors:
                               12 via shared-memory
                                1 via Linda
 Entering Link 1 = /opt/nce/packages/global/g09/l1.exe PID=     30312.
  
 Copyright (c) 1988,1990,1992,1993,1995,1998,2003,2009,2015,
            Gaussian, Inc.  All Rights Reserved.
  
 This is part of the Gaussian(R) 09 program.  It is based on
 the Gaussian(R) 03 system (copyright 2003, Gaussian, Inc.),
 the Gaussian(R) 98 system (copyright 1998, Gaussian, Inc.),
 the Gaussian(R) 94 system (copyright 1995, Gaussian, Inc.),
 the Gaussian 92(TM) system (copyright 1992, Gaussian, Inc.),
 the Gaussian 90(TM) system (copyright 1990, Gaussian, Inc.),
 the Gaussian 88(TM) system (copyright 1988, Gaussian, Inc.),
 the Gaussian 86(TM) system (copyright 1986, Carnegie Mellon
 University), and the Gaussian 82(TM) system (copyright 1983,
 Carnegie Mellon University). Gaussian is a federally registered
 trademark of Gaussian, Inc.
  
 This software contains proprietary and confidential information,
 including trade secrets, belonging to Gaussian, Inc.
  
 This software is provided under written license and may be
 used, copied, transmitted, or stored only in accord with that
 written license.
  
 The following legend is applicable only to US Government
 contracts under FAR:
  
                    RESTRICTED RIGHTS LEGEND
  
 Use, reproduction and disclosure by the US Government is
 subject to restrictions as set forth in subparagraphs (a)
 and (c) of the Commercial Computer Software - Restricted
 Rights clause in FAR 52.227-19.
  
 Gaussian, Inc.
 340 Quinnipiac St., Bldg. 40, Wallingford CT 06492
  
  
 ---------------------------------------------------------------
 Warning -- This program may not be used in any manner that
 competes with the business of Gaussian, Inc. or will provide
 assistance to any competitor of Gaussian, Inc.  The licensee
 of this program is prohibited from giving any competitor of
 Gaussian, Inc. access to this program.  By using this program,
 the user acknowledges that Gaussian, Inc. is engaged in the
 business of creating and licensing software in the field of
 computational chemistry and represents and warrants to the
 licensee that it is not a competitor of Gaussian, Inc. and that
 it will not use this program in any manner prohibited above.
 ---------------------------------------------------------------
  

 Cite this work as:
 Gaussian 09, Revision E.01,
 M. J. Frisch, G. W. Trucks, H. B. Schlegel, G. E. Scuseria, 
 M. A. Robb, J. R. Cheeseman, G. Scalmani, V. Barone, B. Mennucci, 
 G. A. Petersson, H. Nakatsuji, M. Caricato, X. Li, H. P. Hratchian, 
 A. F. Izmaylov, J. Bloino, G. Zheng, J. L. Sonnenberg, M. Hada, 
 M. Ehara, K. Toyota, R. Fukuda, J. Hasegawa, M. Ishida, T. Nakajima, 
 Y. Honda, O. Kitao, H. Nakai, T. Vreven, J. A. Montgomery, Jr., 
 J. E. Peralta, F. Ogliaro, M. Bearpark, J. J. Heyd, E. Brothers, 
 K. N. Kudin, V. N. Staroverov, T. Keith, R. Kobayashi, J. Normand, 
 K. Raghavachari, A. Rendell, J. C. Burant, S. S. Iyengar, J. Tomasi, 
 M. Cossi, N. Rega, J. M. Millam, M. Klene, J. E. Knox, J. B. Cross, 
 V. Bakken, C. Adamo, J. Jaramillo, R. Gomperts, R. E. Stratmann, 
 O. Yazyev, A. J. Austin, R. Cammi, C. Pomelli, J. W. Ochterski, 
 R. L. Martin, K. Morokuma, V. G. Zakrzewski, G. A. Voth, 
 P. Salvador, J. J. Dannenberg, S. Dapprich, A. D. Daniels, 
 O. Farkas, J. B. Foresman, J. V. Ortiz, J. Cioslowski, 
 and D. J. Fox, Gaussian, Inc., Wallingford CT, 2013.
 
 ******************************************
 Gaussian 09:  ES64L-G09RevE.01 30-Nov-2015
                27-Mar-2021 
 ******************************************
 %chk=cp.chk
 Default route:  MaxDisk=500GB
 ----------------------------------------------------------------------
 #p PBEPBE/def2TZVP opt freq=noraman nosymm int=ultrafine scrf=(SMD,sol
 vent=Dichloromethane) EmpiricalDispersion=GD3BJ
 ----------------------------------------------------------------------
 1/14=-1,18=20,19=15,26=4,38=1/1,3;
 2/9=110,12=2,15=1,17=6,18=5,40=1/2;
 3/5=44,7=101,11=2,16=1,25=1,30=1,70=32201,71=1,72=9,74=1009,75=-5,124=41/1,2,3;
 4//1;
 5/5=2,38=5,53=9/2;
 6/7=2,8=2,9=2,10=2,28=1/1;
 7/30=1/1,2,3,16;
 1/14=-1,18=20,19=15,26=4/3(2);
 2/9=110,15=1/2;
 99//99;
 2/9=110,15=1/2;
 3/5=44,7=101,11=2,16=1,25=1,30=1,70=32205,71=1,72=9,74=1009,75=-5,124=41/1,2,3;
 4/5=5,16=3,69=1/1;
 5/5=2,38=5,53=9/2;
 7/30=1/1,2,3,16;
 1/14=-1,18=20,19=15,26=4/3(-5);
 2/9=110,15=1/2;
 6/7=2,8=2,9=2,10=2,19=2,28=1/1;
 99/9=1/99;
 Leave Link    1 at Sat Mar 27 12:35:20 2021, MaxMem=           0 cpu:         1.3
 (Enter /opt/nce/packages/global/g09/l101.exe)
 -----
 Title
 -----
 Symbolic Z-matrix:
 Charge =  0 Multiplicity = 1
 C                    -2.31367   1.44465   0.70181 
 C                    -1.23241   0.71401   0.17648 
 C                     0.0032    1.42134  -0.00073 
 C                     0.00634   2.84276  -0.00082 
 C                    -1.15794   3.54791   0.38299 
 C                    -2.27981   2.84997   0.7892 
 C                     1.23546   0.7084   -0.17758 
 C                     1.17342   3.54399  -0.38411 
 H                    -3.14405   3.39784   1.16502 
 C                     2.29192   2.84     -0.79019 
 C                     2.31963   1.43462  -0.70302 
 H                     3.15884   3.38361  -1.16583 
 C                    -1.23546  -0.7084   -0.17758 
 C                    -0.0032   -1.42134  -0.00073 
 C                    -2.31963  -1.43462  -0.70302 
 C                     1.23241  -0.71401   0.17648 
 C                    -0.00634  -2.84276  -0.00082 
 C                    -2.29192  -2.84     -0.79019 
 C                     2.31367  -1.44465   0.70181 
 C                     1.15794  -3.54791   0.38299 
 C                    -1.17342  -3.54399  -0.38411 
 H                    -3.15884  -3.38361  -1.16583 
 C                     2.27981  -2.84997   0.7892 
 H                     3.14405  -3.39784   1.16502 
 C                    -1.16296   5.03327   0.40626 
 O                    -2.13019   5.6814    0.757 
 C                     1.1926    5.03106  -0.40886 
 O                     2.17213   5.65865  -0.76213 
 N                     0.01404   5.67436  -0.00053 
 C                     1.16296  -5.03327   0.40626 
 O                     2.13019  -5.6814    0.757 
 C                    -1.1926   -5.03106  -0.40886 
 O                    -2.17213  -5.65865  -0.76213 
 N                    -0.01404  -5.67436  -0.00053 
 C                    -0.01404   7.13693   0.01219 
 H                    -0.81554   7.50133  -0.64542 
 H                     0.95967   7.49584  -0.33318 
 H                    -0.22104   7.49844   1.02917 
 C                     0.01404  -7.13693   0.01219 
 H                     0.81554  -7.50133  -0.64542 
 H                    -0.95967  -7.49584  -0.33318 
 H                     0.22104  -7.49844   1.02917 
 Cl                   -3.70579  -0.65068  -1.40011 
 Cl                    3.70322  -0.66649   1.39854 
 Cl                    3.70579   0.65068  -1.40011 
 Cl                   -3.70322   0.66649   1.39854 
 
 NAtoms=     46 NQM=       46 NQMF=       0 NMMI=      0 NMMIF=      0
                NMic=       0 NMicF=      0.
                    Isotopes and Nuclear Properties:
 (Nuclear quadrupole moments (NQMom) in fm**2, nuclear magnetic moments (NMagM)
  in nuclear magnetons)

  Atom         1           2           3           4           5           6           7           8           9          10
 IAtWgt=          12          12          12          12          12          12          12          12           1          12
 AtmWgt=  12.0000000  12.0000000  12.0000000  12.0000000  12.0000000  12.0000000  12.0000000  12.0000000   1.0078250  12.0000000
 NucSpn=           0           0           0           0           0           0           0           0           1           0
 AtZEff=   0.0000000   0.0000000   0.0000000   0.0000000   0.0000000   0.0000000   0.0000000   0.0000000   0.0000000   0.0000000
 NQMom=    0.0000000   0.0000000   0.0000000   0.0000000   0.0000000   0.0000000   0.0000000   0.0000000   0.0000000   0.0000000
 NMagM=    0.0000000   0.0000000   0.0000000   0.0000000   0.0000000   0.0000000   0.0000000   0.0000000   2.7928460   0.0000000
 AtZNuc=   6.0000000   6.0000000   6.0000000   6.0000000   6.0000000   6.0000000   6.0000000   6.0000000   1.0000000   6.0000000

  Atom        11          12          13          14          15          16          17          18          19          20
 IAtWgt=          12           1          12          12          12          12          12          12          12          12
 AtmWgt=  12.0000000   1.0078250  12.0000000  12.0000000  12.0000000  12.0000000  12.0000000  12.0000000  12.0000000  12.0000000
 NucSpn=           0           1           0           0           0           0           0           0           0           0
 AtZEff=   0.0000000   0.0000000   0.0000000   0.0000000   0.0000000   0.0000000   0.0000000   0.0000000   0.0000000   0.0000000
 NQMom=    0.0000000   0.0000000   0.0000000   0.0000000   0.0000000   0.0000000   0.0000000   0.0000000   0.0000000   0.0000000
 NMagM=    0.0000000   2.7928460   0.0000000   0.0000000   0.0000000   0.0000000   0.0000000   0.0000000   0.0000000   0.0000000
 AtZNuc=   6.0000000   1.0000000   6.0000000   6.0000000   6.0000000   6.0000000   6.0000000   6.0000000   6.0000000   6.0000000

  Atom        21          22          23          24          25          26          27          28          29          30
 IAtWgt=          12           1          12           1          12          16          12          16          14          12
 AtmWgt=  12.0000000   1.0078250  12.0000000   1.0078250  12.0000000  15.9949146  12.0000000  15.9949146  14.0030740  12.0000000
 NucSpn=           0           1           0           1           0           0           0           0           2           0
 AtZEff=   0.0000000   0.0000000   0.0000000   0.0000000   0.0000000   0.0000000   0.0000000   0.0000000   0.0000000   0.0000000
 NQMom=    0.0000000   0.0000000   0.0000000   0.0000000   0.0000000   0.0000000   0.0000000   0.0000000   2.0440000   0.0000000
 NMagM=    0.0000000   2.7928460   0.0000000   2.7928460   0.0000000   0.0000000   0.0000000   0.0000000   0.4037610   0.0000000
 AtZNuc=   6.0000000   1.0000000   6.0000000   1.0000000   6.0000000   8.0000000   6.0000000   8.0000000   7.0000000   6.0000000

  Atom        31          32          33          34          35          36          37          38          39          40
 IAtWgt=          16          12          16          14          12           1           1           1          12           1
 AtmWgt=  15.9949146  12.0000000  15.9949146  14.0030740  12.0000000   1.0078250   1.0078250   1.0078250  12.0000000   1.0078250
 NucSpn=           0           0           0           2           0           1           1           1           0           1
 AtZEff=   0.0000000   0.0000000   0.0000000   0.0000000   0.0000000   0.0000000   0.0000000   0.0000000   0.0000000   0.0000000
 NQMom=    0.0000000   0.0000000   0.0000000   2.0440000   0.0000000   0.0000000   0.0000000   0.0000000   0.0000000   0.0000000
 NMagM=    0.0000000   0.0000000   0.0000000   0.4037610   0.0000000   2.7928460   2.7928460   2.7928460   0.0000000   2.7928460
 AtZNuc=   8.0000000   6.0000000   8.0000000   7.0000000   6.0000000   1.0000000   1.0000000   1.0000000   6.0000000   1.0000000

  Atom        41          42          43          44          45          46
 IAtWgt=           1           1          35          35          35          35
 AtmWgt=   1.0078250   1.0078250  34.9688527  34.9688527  34.9688527  34.9688527
 NucSpn=           1           1           3           3           3           3
 AtZEff=   0.0000000   0.0000000   0.0000000   0.0000000   0.0000000   0.0000000
 NQMom=    0.0000000   0.0000000  -8.1650000  -8.1650000  -8.1650000  -8.1650000
 NMagM=    2.7928460   2.7928460   0.8218740   0.8218740   0.8218740   0.8218740
 AtZNuc=   1.0000000   1.0000000  17.0000000  17.0000000  17.0000000  17.0000000
 Leave Link  101 at Sat Mar 27 12:35:20 2021, MaxMem=  5242880000 cpu:         4.5
 (Enter /opt/nce/packages/global/g09/l103.exe)

 GradGradGradGradGradGradGradGradGradGradGradGradGradGradGradGradGradGrad
 Berny optimization.
 Initialization pass.
                           ----------------------------
                           !    Initial Parameters    !
                           ! (Angstroms and Degrees)  !
 --------------------------                            --------------------------
 ! Name  Definition              Value          Derivative Info.                !
 --------------------------------------------------------------------------------
 ! R1    R(1,2)                  1.4068         estimate D2E/DX2                !
 ! R2    R(1,6)                  1.4084         estimate D2E/DX2                !
 ! R3    R(1,46)                 1.7383         estimate D2E/DX2                !
 ! R4    R(2,3)                  1.4347         estimate D2E/DX2                !
 ! R5    R(2,13)                 1.4658         estimate D2E/DX2                !
 ! R6    R(3,4)                  1.4214         estimate D2E/DX2                !
 ! R7    R(3,7)                  1.4346         estimate D2E/DX2                !
 ! R8    R(4,5)                  1.4142         estimate D2E/DX2                !
 ! R9    R(4,8)                  1.4145         estimate D2E/DX2                !
 ! R10   R(5,6)                  1.3823         estimate D2E/DX2                !
 ! R11   R(5,25)                 1.4856         estimate D2E/DX2                !
 ! R12   R(6,9)                  1.0901         estimate D2E/DX2                !
 ! R13   R(7,11)                 1.4067         estimate D2E/DX2                !
 ! R14   R(7,16)                 1.4658         estimate D2E/DX2                !
 ! R15   R(8,10)                 1.3826         estimate D2E/DX2                !
 ! R16   R(8,27)                 1.4874         estimate D2E/DX2                !
 ! R17   R(10,11)                1.4084         estimate D2E/DX2                !
 ! R18   R(10,12)                1.09           estimate D2E/DX2                !
 ! R19   R(11,45)                1.7384         estimate D2E/DX2                !
 ! R20   R(13,14)                1.4346         estimate D2E/DX2                !
 ! R21   R(13,15)                1.4067         estimate D2E/DX2                !
 ! R22   R(14,16)                1.4347         estimate D2E/DX2                !
 ! R23   R(14,17)                1.4214         estimate D2E/DX2                !
 ! R24   R(15,18)                1.4084         estimate D2E/DX2                !
 ! R25   R(15,43)                1.7384         estimate D2E/DX2                !
 ! R26   R(16,19)                1.4068         estimate D2E/DX2                !
 ! R27   R(17,20)                1.4142         estimate D2E/DX2                !
 ! R28   R(17,21)                1.4145         estimate D2E/DX2                !
 ! R29   R(18,21)                1.3826         estimate D2E/DX2                !
 ! R30   R(18,22)                1.09           estimate D2E/DX2                !
 ! R31   R(19,23)                1.4084         estimate D2E/DX2                !
 ! R32   R(19,44)                1.7383         estimate D2E/DX2                !
 ! R33   R(20,23)                1.3823         estimate D2E/DX2                !
 ! R34   R(20,30)                1.4856         estimate D2E/DX2                !
 ! R35   R(21,32)                1.4874         estimate D2E/DX2                !
 ! R36   R(23,24)                1.0901         estimate D2E/DX2                !
 ! R37   R(25,26)                1.216          estimate D2E/DX2                !
 ! R38   R(25,29)                1.4006         estimate D2E/DX2                !
 ! R39   R(27,28)                1.2158         estimate D2E/DX2                !
 ! R40   R(27,29)                1.4034         estimate D2E/DX2                !
 ! R41   R(29,35)                1.4629         estimate D2E/DX2                !
 ! R42   R(30,31)                1.216          estimate D2E/DX2                !
 ! R43   R(30,34)                1.4006         estimate D2E/DX2                !
 ! R44   R(32,33)                1.2158         estimate D2E/DX2                !
 ! R45   R(32,34)                1.4034         estimate D2E/DX2                !
 ! R46   R(34,39)                1.4629         estimate D2E/DX2                !
 ! R47   R(35,36)                1.0989         estimate D2E/DX2                !
 ! R48   R(35,37)                1.0937         estimate D2E/DX2                !
 ! R49   R(35,38)                1.099          estimate D2E/DX2                !
 ! R50   R(39,40)                1.0989         estimate D2E/DX2                !
 ! R51   R(39,41)                1.0937         estimate D2E/DX2                !
 ! R52   R(39,42)                1.099          estimate D2E/DX2                !
 ! A1    A(2,1,6)              121.5286         estimate D2E/DX2                !
 ! A2    A(2,1,46)             122.1118         estimate D2E/DX2                !
 ! A3    A(6,1,46)             116.1684         estimate D2E/DX2                !
 ! A4    A(1,2,3)              116.8731         estimate D2E/DX2                !
 ! A5    A(1,2,13)             126.3423         estimate D2E/DX2                !
 ! A6    A(3,2,13)             116.767          estimate D2E/DX2                !
 ! A7    A(2,3,4)              119.6641         estimate D2E/DX2                !
 ! A8    A(2,3,7)              120.6624         estimate D2E/DX2                !
 ! A9    A(4,3,7)              119.6736         estimate D2E/DX2                !
 ! A10   A(3,4,5)              119.7866         estimate D2E/DX2                !
 ! A11   A(3,4,8)              119.8412         estimate D2E/DX2                !
 ! A12   A(5,4,8)              120.3722         estimate D2E/DX2                !
 ! A13   A(4,5,6)              119.7457         estimate D2E/DX2                !
 ! A14   A(4,5,25)             120.3696         estimate D2E/DX2                !
 ! A15   A(6,5,25)             119.835          estimate D2E/DX2                !
 ! A16   A(1,6,5)              120.3364         estimate D2E/DX2                !
 ! A17   A(1,6,9)              120.252          estimate D2E/DX2                !
 ! A18   A(5,6,9)              119.4062         estimate D2E/DX2                !
 ! A19   A(3,7,11)             116.84           estimate D2E/DX2                !
 ! A20   A(3,7,16)             116.7876         estimate D2E/DX2                !
 ! A21   A(11,7,16)            126.3544         estimate D2E/DX2                !
 ! A22   A(4,8,10)             119.6471         estimate D2E/DX2                !
 ! A23   A(4,8,27)             120.7171         estimate D2E/DX2                !
 ! A24   A(10,8,27)            119.5874         estimate D2E/DX2                !
 ! A25   A(8,10,11)            120.3873         estimate D2E/DX2                !
 ! A26   A(8,10,12)            119.3856         estimate D2E/DX2                !
 ! A27   A(11,10,12)           120.2215         estimate D2E/DX2                !
 ! A28   A(7,11,10)            121.5411         estimate D2E/DX2                !
 ! A29   A(7,11,45)            122.1087         estimate D2E/DX2                !
 ! A30   A(10,11,45)           116.1596         estimate D2E/DX2                !
 ! A31   A(2,13,14)            116.7876         estimate D2E/DX2                !
 ! A32   A(2,13,15)            126.3544         estimate D2E/DX2                !
 ! A33   A(14,13,15)           116.84           estimate D2E/DX2                !
 ! A34   A(13,14,16)           120.6624         estimate D2E/DX2                !
 ! A35   A(13,14,17)           119.6736         estimate D2E/DX2                !
 ! A36   A(16,14,17)           119.6641         estimate D2E/DX2                !
 ! A37   A(13,15,18)           121.5411         estimate D2E/DX2                !
 ! A38   A(13,15,43)           122.1087         estimate D2E/DX2                !
 ! A39   A(18,15,43)           116.1596         estimate D2E/DX2                !
 ! A40   A(7,16,14)            116.767          estimate D2E/DX2                !
 ! A41   A(7,16,19)            126.3423         estimate D2E/DX2                !
 ! A42   A(14,16,19)           116.8731         estimate D2E/DX2                !
 ! A43   A(14,17,20)           119.7866         estimate D2E/DX2                !
 ! A44   A(14,17,21)           119.8412         estimate D2E/DX2                !
 ! A45   A(20,17,21)           120.3722         estimate D2E/DX2                !
 ! A46   A(15,18,21)           120.3873         estimate D2E/DX2                !
 ! A47   A(15,18,22)           120.2215         estimate D2E/DX2                !
 ! A48   A(21,18,22)           119.3856         estimate D2E/DX2                !
 ! A49   A(16,19,23)           121.5286         estimate D2E/DX2                !
 ! A50   A(16,19,44)           122.1118         estimate D2E/DX2                !
 ! A51   A(23,19,44)           116.1684         estimate D2E/DX2                !
 ! A52   A(17,20,23)           119.7457         estimate D2E/DX2                !
 ! A53   A(17,20,30)           120.3696         estimate D2E/DX2                !
 ! A54   A(23,20,30)           119.835          estimate D2E/DX2                !
 ! A55   A(17,21,18)           119.6471         estimate D2E/DX2                !
 ! A56   A(17,21,32)           120.7171         estimate D2E/DX2                !
 ! A57   A(18,21,32)           119.5874         estimate D2E/DX2                !
 ! A58   A(19,23,20)           120.3364         estimate D2E/DX2                !
 ! A59   A(19,23,24)           120.252          estimate D2E/DX2                !
 ! A60   A(20,23,24)           119.4062         estimate D2E/DX2                !
 ! A61   A(5,25,26)            122.6931         estimate D2E/DX2                !
 ! A62   A(5,25,29)            116.7607         estimate D2E/DX2                !
 ! A63   A(26,25,29)           120.5463         estimate D2E/DX2                !
 ! A64   A(8,27,28)            122.0941         estimate D2E/DX2                !
 ! A65   A(8,27,29)            116.2707         estimate D2E/DX2                !
 ! A66   A(28,27,29)           121.6352         estimate D2E/DX2                !
 ! A67   A(25,29,27)           125.4774         estimate D2E/DX2                !
 ! A68   A(25,29,35)           116.0378         estimate D2E/DX2                !
 ! A69   A(27,29,35)           118.4847         estimate D2E/DX2                !
 ! A70   A(20,30,31)           122.6931         estimate D2E/DX2                !
 ! A71   A(20,30,34)           116.7607         estimate D2E/DX2                !
 ! A72   A(31,30,34)           120.5463         estimate D2E/DX2                !
 ! A73   A(21,32,33)           122.0941         estimate D2E/DX2                !
 ! A74   A(21,32,34)           116.2707         estimate D2E/DX2                !
 ! A75   A(33,32,34)           121.6352         estimate D2E/DX2                !
 ! A76   A(30,34,32)           125.4774         estimate D2E/DX2                !
 ! A77   A(30,34,39)           116.0378         estimate D2E/DX2                !
 ! A78   A(32,34,39)           118.4847         estimate D2E/DX2                !
 ! A79   A(29,35,36)           109.8958         estimate D2E/DX2                !
 ! A80   A(29,35,37)           107.9542         estimate D2E/DX2                !
 ! A81   A(29,35,38)           109.9088         estimate D2E/DX2                !
 ! A82   A(36,35,37)           110.5822         estimate D2E/DX2                !
 ! A83   A(36,35,38)           107.8964         estimate D2E/DX2                !
 ! A84   A(37,35,38)           110.6073         estimate D2E/DX2                !
 ! A85   A(34,39,40)           109.8958         estimate D2E/DX2                !
 ! A86   A(34,39,41)           107.9542         estimate D2E/DX2                !
 ! A87   A(34,39,42)           109.9088         estimate D2E/DX2                !
 ! A88   A(40,39,41)           110.5822         estimate D2E/DX2                !
 ! A89   A(40,39,42)           107.8964         estimate D2E/DX2                !
 ! A90   A(41,39,42)           110.6073         estimate D2E/DX2                !
 ! D1    D(6,1,2,3)             12.8378         estimate D2E/DX2                !
 ! D2    D(6,1,2,13)          -168.7469         estimate D2E/DX2                !
 ! D3    D(46,1,2,3)          -161.9439         estimate D2E/DX2                !
 ! D4    D(46,1,2,13)           16.4715         estimate D2E/DX2                !
 ! D5    D(2,1,6,5)             -1.4493         estimate D2E/DX2                !
 ! D6    D(2,1,6,9)            177.6935         estimate D2E/DX2                !
 ! D7    D(46,1,6,5)           173.6266         estimate D2E/DX2                !
 ! D8    D(46,1,6,9)            -7.2306         estimate D2E/DX2                !
 ! D9    D(1,2,3,4)            -16.9653         estimate D2E/DX2                !
 ! D10   D(1,2,3,7)            163.0229         estimate D2E/DX2                !
 ! D11   D(13,2,3,4)           164.4643         estimate D2E/DX2                !
 ! D12   D(13,2,3,7)           -15.5475         estimate D2E/DX2                !
 ! D13   D(1,2,13,14)         -147.3207         estimate D2E/DX2                !
 ! D14   D(1,2,13,15)           34.2768         estimate D2E/DX2                !
 ! D15   D(3,2,13,14)           31.0961         estimate D2E/DX2                !
 ! D16   D(3,2,13,15)         -147.3064         estimate D2E/DX2                !
 ! D17   D(2,3,4,5)             10.0537         estimate D2E/DX2                !
 ! D18   D(2,3,4,8)           -169.9678         estimate D2E/DX2                !
 ! D19   D(7,3,4,5)           -169.9347         estimate D2E/DX2                !
 ! D20   D(7,3,4,8)             10.0438         estimate D2E/DX2                !
 ! D21   D(2,3,7,11)           163.037          estimate D2E/DX2                !
 ! D22   D(2,3,7,16)           -15.5211         estimate D2E/DX2                !
 ! D23   D(4,3,7,11)           -16.9748         estimate D2E/DX2                !
 ! D24   D(4,3,7,16)           164.4671         estimate D2E/DX2                !
 ! D25   D(3,4,5,6)              1.6918         estimate D2E/DX2                !
 ! D26   D(3,4,5,25)           179.1246         estimate D2E/DX2                !
 ! D27   D(8,4,5,6)           -178.2865         estimate D2E/DX2                !
 ! D28   D(8,4,5,25)            -0.8537         estimate D2E/DX2                !
 ! D29   D(3,4,8,10)             1.713          estimate D2E/DX2                !
 ! D30   D(3,4,8,27)           179.1726         estimate D2E/DX2                !
 ! D31   D(5,4,8,10)          -178.3086         estimate D2E/DX2                !
 ! D32   D(5,4,8,27)            -0.849          estimate D2E/DX2                !
 ! D33   D(4,5,6,1)             -6.0772         estimate D2E/DX2                !
 ! D34   D(4,5,6,9)            174.7727         estimate D2E/DX2                !
 ! D35   D(25,5,6,1)           176.4762         estimate D2E/DX2                !
 ! D36   D(25,5,6,9)            -2.6739         estimate D2E/DX2                !
 ! D37   D(4,5,25,26)         -178.3477         estimate D2E/DX2                !
 ! D38   D(4,5,25,29)            1.6806         estimate D2E/DX2                !
 ! D39   D(6,5,25,26)           -0.9172         estimate D2E/DX2                !
 ! D40   D(6,5,25,29)          179.1111         estimate D2E/DX2                !
 ! D41   D(3,7,11,10)           12.8636         estimate D2E/DX2                !
 ! D42   D(3,7,11,45)         -161.9253         estimate D2E/DX2                !
 ! D43   D(16,7,11,10)        -168.7346         estimate D2E/DX2                !
 ! D44   D(16,7,11,45)          16.4765         estimate D2E/DX2                !
 ! D45   D(3,7,16,14)           31.0961         estimate D2E/DX2                !
 ! D46   D(3,7,16,19)         -147.3207         estimate D2E/DX2                !
 ! D47   D(11,7,16,14)        -147.3064         estimate D2E/DX2                !
 ! D48   D(11,7,16,19)          34.2768         estimate D2E/DX2                !
 ! D49   D(4,8,10,11)           -6.0852         estimate D2E/DX2                !
 ! D50   D(4,8,10,12)          174.774          estimate D2E/DX2                !
 ! D51   D(27,8,10,11)         176.4263         estimate D2E/DX2                !
 ! D52   D(27,8,10,12)          -2.7146         estimate D2E/DX2                !
 ! D53   D(4,8,27,28)         -178.3541         estimate D2E/DX2                !
 ! D54   D(4,8,27,29)            1.6544         estimate D2E/DX2                !
 ! D55   D(10,8,27,28)          -0.893          estimate D2E/DX2                !
 ! D56   D(10,8,27,29)         179.1155         estimate D2E/DX2                !
 ! D57   D(8,10,11,7)           -1.4644         estimate D2E/DX2                !
 ! D58   D(8,10,11,45)         173.6186         estimate D2E/DX2                !
 ! D59   D(12,10,11,7)         177.6692         estimate D2E/DX2                !
 ! D60   D(12,10,11,45)         -7.2478         estimate D2E/DX2                !
 ! D61   D(2,13,14,16)         -15.5211         estimate D2E/DX2                !
 ! D62   D(2,13,14,17)         164.4671         estimate D2E/DX2                !
 ! D63   D(15,13,14,16)        163.037          estimate D2E/DX2                !
 ! D64   D(15,13,14,17)        -16.9748         estimate D2E/DX2                !
 ! D65   D(2,13,15,18)        -168.7346         estimate D2E/DX2                !
 ! D66   D(2,13,15,43)          16.4765         estimate D2E/DX2                !
 ! D67   D(14,13,15,18)         12.8636         estimate D2E/DX2                !
 ! D68   D(14,13,15,43)       -161.9253         estimate D2E/DX2                !
 ! D69   D(13,14,16,7)         -15.5475         estimate D2E/DX2                !
 ! D70   D(13,14,16,19)        163.0229         estimate D2E/DX2                !
 ! D71   D(17,14,16,7)         164.4643         estimate D2E/DX2                !
 ! D72   D(17,14,16,19)        -16.9653         estimate D2E/DX2                !
 ! D73   D(13,14,17,20)       -169.9347         estimate D2E/DX2                !
 ! D74   D(13,14,17,21)         10.0438         estimate D2E/DX2                !
 ! D75   D(16,14,17,20)         10.0537         estimate D2E/DX2                !
 ! D76   D(16,14,17,21)       -169.9678         estimate D2E/DX2                !
 ! D77   D(13,15,18,21)         -1.4644         estimate D2E/DX2                !
 ! D78   D(13,15,18,22)        177.6692         estimate D2E/DX2                !
 ! D79   D(43,15,18,21)        173.6186         estimate D2E/DX2                !
 ! D80   D(43,15,18,22)         -7.2478         estimate D2E/DX2                !
 ! D81   D(7,16,19,23)        -168.7469         estimate D2E/DX2                !
 ! D82   D(7,16,19,44)          16.4715         estimate D2E/DX2                !
 ! D83   D(14,16,19,23)         12.8378         estimate D2E/DX2                !
 ! D84   D(14,16,19,44)       -161.9439         estimate D2E/DX2                !
 ! D85   D(14,17,20,23)          1.6918         estimate D2E/DX2                !
 ! D86   D(14,17,20,30)        179.1246         estimate D2E/DX2                !
 ! D87   D(21,17,20,23)       -178.2865         estimate D2E/DX2                !
 ! D88   D(21,17,20,30)         -0.8537         estimate D2E/DX2                !
 ! D89   D(14,17,21,18)          1.713          estimate D2E/DX2                !
 ! D90   D(14,17,21,32)        179.1726         estimate D2E/DX2                !
 ! D91   D(20,17,21,18)       -178.3086         estimate D2E/DX2                !
 ! D92   D(20,17,21,32)         -0.849          estimate D2E/DX2                !
 ! D93   D(15,18,21,17)         -6.0852         estimate D2E/DX2                !
 ! D94   D(15,18,21,32)        176.4263         estimate D2E/DX2                !
 ! D95   D(22,18,21,17)        174.774          estimate D2E/DX2                !
 ! D96   D(22,18,21,32)         -2.7146         estimate D2E/DX2                !
 ! D97   D(16,19,23,20)         -1.4493         estimate D2E/DX2                !
 ! D98   D(16,19,23,24)        177.6935         estimate D2E/DX2                !
 ! D99   D(44,19,23,20)        173.6266         estimate D2E/DX2                !
 ! D100  D(44,19,23,24)         -7.2306         estimate D2E/DX2                !
 ! D101  D(17,20,23,19)         -6.0772         estimate D2E/DX2                !
 ! D102  D(17,20,23,24)        174.7727         estimate D2E/DX2                !
 ! D103  D(30,20,23,19)        176.4762         estimate D2E/DX2                !
 ! D104  D(30,20,23,24)         -2.6739         estimate D2E/DX2                !
 ! D105  D(17,20,30,31)       -178.3477         estimate D2E/DX2                !
 ! D106  D(17,20,30,34)          1.6806         estimate D2E/DX2                !
 ! D107  D(23,20,30,31)         -0.9172         estimate D2E/DX2                !
 ! D108  D(23,20,30,34)        179.1111         estimate D2E/DX2                !
 ! D109  D(17,21,32,33)       -178.3541         estimate D2E/DX2                !
 ! D110  D(17,21,32,34)          1.6544         estimate D2E/DX2                !
 ! D111  D(18,21,32,33)         -0.893          estimate D2E/DX2                !
 ! D112  D(18,21,32,34)        179.1155         estimate D2E/DX2                !
 ! D113  D(5,25,29,27)          -0.8311         estimate D2E/DX2                !
 ! D114  D(5,25,29,35)         179.2451         estimate D2E/DX2                !
 ! D115  D(26,25,29,27)        179.1966         estimate D2E/DX2                !
 ! D116  D(26,25,29,35)         -0.7272         estimate D2E/DX2                !
 ! D117  D(8,27,29,25)          -0.7827         estimate D2E/DX2                !
 ! D118  D(8,27,29,35)         179.1394         estimate D2E/DX2                !
 ! D119  D(28,27,29,25)        179.2258         estimate D2E/DX2                !
 ! D120  D(28,27,29,35)         -0.8521         estimate D2E/DX2                !
 ! D121  D(25,29,35,36)        -58.8757         estimate D2E/DX2                !
 ! D122  D(25,29,35,37)       -179.558          estimate D2E/DX2                !
 ! D123  D(25,29,35,38)         59.7215         estimate D2E/DX2                !
 ! D124  D(27,29,35,36)        121.1949         estimate D2E/DX2                !
 ! D125  D(27,29,35,37)          0.5126         estimate D2E/DX2                !
 ! D126  D(27,29,35,38)       -120.2079         estimate D2E/DX2                !
 ! D127  D(20,30,34,32)         -0.8311         estimate D2E/DX2                !
 ! D128  D(20,30,34,39)        179.2451         estimate D2E/DX2                !
 ! D129  D(31,30,34,32)        179.1966         estimate D2E/DX2                !
 ! D130  D(31,30,34,39)         -0.7272         estimate D2E/DX2                !
 ! D131  D(21,32,34,30)         -0.7827         estimate D2E/DX2                !
 ! D132  D(21,32,34,39)        179.1394         estimate D2E/DX2                !
 ! D133  D(33,32,34,30)        179.2258         estimate D2E/DX2                !
 ! D134  D(33,32,34,39)         -0.8521         estimate D2E/DX2                !
 ! D135  D(30,34,39,40)        -58.8757         estimate D2E/DX2                !
 ! D136  D(30,34,39,41)       -179.558          estimate D2E/DX2                !
 ! D137  D(30,34,39,42)         59.7215         estimate D2E/DX2                !
 ! D138  D(32,34,39,40)        121.1949         estimate D2E/DX2                !
 ! D139  D(32,34,39,41)          0.5126         estimate D2E/DX2                !
 ! D140  D(32,34,39,42)       -120.2079         estimate D2E/DX2                !
 --------------------------------------------------------------------------------
 Trust Radius=3.00D-01 FncErr=1.00D-07 GrdErr=1.00D-06
 Number of steps in this run=    276 maximum allowed number of steps=    276.
 GradGradGradGradGradGradGradGradGradGradGradGradGradGradGradGradGradGrad

 Leave Link  103 at Sat Mar 27 12:35:20 2021, MaxMem=  5242880000 cpu:         0.3
 (Enter /opt/nce/packages/global/g09/l202.exe)
                          Input orientation:                          
 ---------------------------------------------------------------------
 Center     Atomic      Atomic             Coordinates (Angstroms)
 Number     Number       Type             X           Y           Z
 ---------------------------------------------------------------------
      1          6           0       -2.313671    1.444653    0.701814
      2          6           0       -1.232407    0.714006    0.176480
      3          6           0        0.003203    1.421335   -0.000734
      4          6           0        0.006344    2.842758   -0.000815
      5          6           0       -1.157935    3.547910    0.382990
      6          6           0       -2.279810    2.849971    0.789197
      7          6           0        1.235457    0.708404   -0.177579
      8          6           0        1.173420    3.543994   -0.384113
      9          1           0       -3.144048    3.397840    1.165018
     10          6           0        2.291922    2.840004   -0.790191
     11          6           0        2.319626    1.434616   -0.703019
     12          1           0        3.158838    3.383613   -1.165825
     13          6           0       -1.235457   -0.708404   -0.177579
     14          6           0       -0.003203   -1.421335   -0.000734
     15          6           0       -2.319626   -1.434616   -0.703019
     16          6           0        1.232407   -0.714006    0.176480
     17          6           0       -0.006344   -2.842758   -0.000815
     18          6           0       -2.291922   -2.840004   -0.790191
     19          6           0        2.313671   -1.444653    0.701814
     20          6           0        1.157935   -3.547910    0.382990
     21          6           0       -1.173420   -3.543994   -0.384113
     22          1           0       -3.158838   -3.383613   -1.165825
     23          6           0        2.279810   -2.849971    0.789197
     24          1           0        3.144048   -3.397840    1.165018
     25          6           0       -1.162958    5.033274    0.406255
     26          8           0       -2.130193    5.681397    0.757004
     27          6           0        1.192601    5.031055   -0.408862
     28          8           0        2.172135    5.658651   -0.762127
     29          7           0        0.014035    5.674363   -0.000527
     30          6           0        1.162958   -5.033274    0.406255
     31          8           0        2.130193   -5.681397    0.757004
     32          6           0       -1.192601   -5.031055   -0.408862
     33          8           0       -2.172135   -5.658651   -0.762127
     34          7           0       -0.014035   -5.674363   -0.000527
     35          6           0       -0.014035    7.136934    0.012185
     36          1           0       -0.815538    7.501325   -0.645419
     37          1           0        0.959669    7.495841   -0.333183
     38          1           0       -0.221042    7.498440    1.029170
     39          6           0        0.014035   -7.136934    0.012185
     40          1           0        0.815538   -7.501325   -0.645419
     41          1           0       -0.959669   -7.495841   -0.333183
     42          1           0        0.221042   -7.498440    1.029170
     43         17           0       -3.705792   -0.650677   -1.400114
     44         17           0        3.703215   -0.666485    1.398541
     45         17           0        3.705792    0.650677   -1.400114
     46         17           0       -3.703215    0.666485    1.398541
 ---------------------------------------------------------------------
                    Distance matrix (angstroms):
                    1          2          3          4          5
     1  C    0.000000
     2  C    1.406753   0.000000
     3  C    2.421161   1.434730   0.000000
     4  C    2.798366   2.469316   1.421426   0.000000
     5  C    2.420964   2.842394   2.453122   1.414246   0.000000
     6  C    1.408439   2.456587   2.806624   2.418816   1.382290
     7  C    3.729840   2.493139   1.434571   2.469298   3.755710
     8  C    4.212633   3.756474   2.453990   1.414467   2.454318
     9  H    2.172331   3.440137   3.894963   3.404740   2.139798
    10  C    5.038310   4.227909   2.806082   2.418055   3.712007
    11  C    4.841601   3.729576   2.420578   2.797718   4.211752
    12  H    6.098852   5.311461   3.894355   3.404114   4.589156
    13  C    2.563500   1.465816   2.470089   3.766174   4.293769
    14  C    3.747762   2.470228   2.842677   4.264104   5.116058
    15  C    3.203714   2.563619   3.747692   4.919264   5.230154
    16  C    4.184549   2.848601   2.470228   3.766329   4.890839
    17  C    4.919282   3.766329   4.264104   5.685530   6.504929
    18  C    4.537052   3.832494   4.904065   6.180528   6.593006
    19  C    5.455308   4.184549   3.747762   4.919282   6.089284
    20  C    6.089284   4.890839   5.116058   6.504929   7.464175
    21  C    5.231253   4.295149   5.117217   6.506102   7.133287
    22  H    5.245430   4.722648   5.868856   7.081195   7.378919
    23  C    6.288998   5.041133   4.904180   6.180609   7.274337
    24  H    7.311019   6.085872   5.869270   7.081625   8.207440
    25  C    3.780171   4.325933   3.817286   2.516214   1.485555
    26  O    4.241074   5.081142   4.824280   3.632761   2.374224
    27  C    5.137103   4.986001   3.822475   2.522370   2.889943
    28  O    6.326402   6.076299   4.820667   3.633112   4.105592
    29  N    4.878724   5.117625   4.253042   2.831615   2.458130
    30  C    7.357842   6.230714   6.570590   7.970906   8.889533
    31  O    8.398307   7.248811   7.452990   8.817383   9.804682
    32  C    6.665223   5.774940   6.574941   7.975017   8.615502
    33  O    7.253970   6.509595   7.445671   8.809048   9.332773
    34  N    7.514120   6.505922   7.095719   8.517145   9.300855
    35  C    6.177862   6.539528   5.715640   4.294244   3.785115
    36  H    6.383002   6.849598   6.168649   4.774228   4.099311
    37  H    6.957216   7.145505   6.158325   4.761353   4.536883
    38  H    6.413626   6.912198   6.167835   4.773672   4.111205
    39  C    8.918376   7.950967   8.558286   9.979703  10.755320
    40  H    9.572748   8.506542   8.982726  10.395690  11.271105
    41  H    9.101482   8.230172   8.975170  10.388950  11.068724
    42  H    9.301121   8.383547   8.981678  10.394582  11.150828
    43  Cl   3.278187   3.235064   4.473046   5.286027   5.224861
    44  Cl   6.414456   5.268734   4.472924   5.285815   6.513313
    45  Cl   6.425141   5.184156   4.032536   4.522076   5.935424
    46  Cl   1.738334   2.756916   4.033027   4.522741   3.976481
                    6          7          8          9         10
     6  C    0.000000
     7  C    4.228246   0.000000
     8  C    3.712563   2.843778   0.000000
     9  H    1.090096   5.311845   4.589303   0.000000
    10  C    4.836869   2.456650   1.382587   5.803774   0.000000
    11  C    5.038328   1.406731   2.421769   6.098815   1.408361
    12  H    5.803945   3.439879   2.139785   6.720075   1.090025
    13  C    3.832409   2.848291   4.891649   4.722979   5.040724
    14  C    4.904180   2.470089   5.117217   5.869270   4.904065
    15  C    4.537177   4.184165   6.090126   5.246129   6.288589
    16  C    5.041133   1.465816   4.295149   6.085872   3.832494
    17  C    6.180609   3.766174   6.506102   7.081625   6.180528
    18  C    5.905119   5.040724   7.275227   6.592394   7.298912
    19  C    6.288998   2.563500   5.231253   7.311019   4.537052
    20  C    7.274337   4.293769   7.133287   8.207440   6.593006
    21  C    6.594205   4.891649   7.466407   7.380531   7.275227
    22  H    6.591841   6.085315   8.208000   7.170854   8.281624
    23  C    7.299279   3.832409   6.594205   8.282187   5.905119
    24  H    8.282187   4.722979   7.380531   9.258586   6.592394
    25  C    2.482099   4.979735   2.881197   2.678635   4.263580
    26  O    2.835559   6.077146   4.096889   2.531602   5.479273
    27  C    4.272015   4.329046   1.487391   4.893977   2.480851
    28  O    5.487723   5.071884   2.368987   6.089906   2.821331
    29  N    3.723248   5.117027   2.455562   4.063809   3.721012
    30  C    8.610740   5.771740   8.613612   9.497879   8.043292
    31  O    9.603822   6.519475   9.344806  10.507932   8.662231
    32  C    8.045368   6.236213   8.895512   8.793834   8.616315
    33  O    8.649558   7.245189   9.799199   9.310131   9.599778
    34  N    8.855601   6.506327   9.302435   9.667489   8.856379
    35  C    4.910757   6.551583   3.804776   5.010672   4.942151
    36  H    5.083041   7.111205   4.436745   5.053536   5.604032
    37  H    5.773913   6.794820   3.957951   5.989884   4.864213
    38  H    5.089634   7.048562   4.424877   5.037593   5.596971
    39  C   10.276368   7.942116  10.750974  11.058209  10.265080
    40  H   10.899020   8.233763  11.054204  11.736601  10.447189
    41  H   10.489916   8.494258  11.244137  11.211084  10.844879
    42  H   10.649012   8.356888  11.173171  11.404876  10.699628
    43  Cl   4.368185   5.268551   6.514156   4.825552   6.966307
    44  Cl   6.966588   3.234858   5.225500   7.966071   4.367810
    45  Cl   6.742211   2.756897   3.976990   7.813265   2.676600
    46  Cl   2.676750   5.184245   5.936285   2.797767   6.742136
                   11         12         13         14         15
    11  C    0.000000
    12  H    2.171878   0.000000
    13  C    4.184165   6.085315   0.000000
    14  C    3.747692   5.868856   1.434571   0.000000
    15  C    5.454828   7.310478   1.406731   2.420578   0.000000
    16  C    2.563619   4.722648   2.493139   1.434730   3.729576
    17  C    4.919264   7.081195   2.469298   1.421426   2.797718
    18  C    6.288589   8.281624   2.456650   2.806082   1.408361
    19  C    3.203714   5.245430   3.729840   2.421161   4.841601
    20  C    5.230154   7.378919   3.755710   2.453122   4.211752
    21  C    6.090126   8.208000   2.843778   2.453990   2.421769
    22  H    7.310478   9.257882   3.439879   3.894355   2.171878
    23  C    4.537177   6.591841   4.228246   2.806624   5.038328
    24  H    5.246129   7.170854   5.311845   3.894963   6.098815
    25  C    5.129251   4.885769   5.771740   6.570590   6.663480
    26  O    6.322002   6.078728   6.519475   7.452990   7.266718
    27  C    3.780355   2.674537   6.236213   6.574941   7.363910
    28  O    4.227022   2.512440   7.245189   7.445671   8.396061
    29  N    4.876956   4.061433   6.506327   7.095719   7.515121
    30  C    6.663480   8.791983   4.979735   3.817286   5.129251
    31  O    7.266718   9.323615   6.077146   4.824280   6.322002
    32  C    7.363910   9.503402   4.329046   3.822475   3.780355
    33  O    8.396061  10.504513   5.071884   4.820667   4.227022
    34  N    7.515121   9.668090   5.117027   4.253042   4.876956
    35  C    6.202735   5.053934   7.942116   8.558286   8.904984
    36  H    6.829168   5.746481   8.233763   8.982726   9.061823
    37  H    6.222918   4.737094   8.494258   8.975170   9.520694
    38  H    6.798929   5.759635   8.356888   8.981678   9.338309
    39  C    8.904984  11.043523   6.551583   5.715640   6.202735
    40  H    9.061823  11.146468   7.111205   6.168649   6.829168
    41  H    9.520694  11.662672   6.794820   6.158325   6.222918
    42  H    9.338309  11.483367   7.048562   6.167835   6.798929
    43  Cl   6.414051   7.965773   2.756897   4.032536   1.738378
    44  Cl   3.278033   4.824481   5.184245   4.033027   6.425044
    45  Cl   1.738378   2.796961   5.268551   4.473046   6.414051
    46  Cl   6.425044   7.813228   3.234858   4.472924   3.278033
                   16         17         18         19         20
    16  C    0.000000
    17  C    2.469316   0.000000
    18  C    4.227909   2.418055   0.000000
    19  C    1.406753   2.798366   5.038310   0.000000
    20  C    2.842394   1.414246   3.712007   2.420964   0.000000
    21  C    3.756474   1.414467   1.382587   4.212633   2.454318
    22  H    5.311461   3.404114   1.090025   6.098852   4.589156
    23  C    2.456587   2.418816   4.836869   1.408439   1.382290
    24  H    3.440137   3.404740   5.803774   2.172331   2.139798
    25  C    6.230714   7.970906   8.043292   7.357842   8.889533
    26  O    7.248811   8.817383   8.662231   8.398307   9.804682
    27  C    5.774940   7.975017   8.616315   6.665223   8.615502
    28  O    6.509595   8.809048   9.599778   7.253970   9.332773
    29  N    6.505922   8.517145   8.856379   7.514120   9.300855
    30  C    4.325933   2.516214   4.263580   3.780171   1.485555
    31  O    5.081142   3.632761   5.479273   4.241074   2.374224
    32  C    4.986001   2.522370   2.480851   5.137103   2.889943
    33  O    6.076299   3.633112   2.821331   6.326402   4.105592
    34  N    5.117625   2.831615   3.721012   4.878724   2.458130
    35  C    7.950967   9.979703  10.265080   8.918376  10.755320
    36  H    8.506542  10.395690  10.447189   9.572748  11.271105
    37  H    8.230172  10.388950  10.844879   9.101482  11.068724
    38  H    8.383547  10.394582  10.699628   9.301121  11.150828
    39  C    6.539528   4.294244   4.942151   6.177862   3.785115
    40  H    6.849598   4.774228   5.604032   6.383002   4.099311
    41  H    7.145505   4.761353   4.864213   6.957216   4.536883
    42  H    6.912198   4.773672   5.596971   6.413626   4.111205
    43  Cl   5.184156   4.522076   2.676600   6.425141   5.935424
    44  Cl   2.756916   4.522741   6.742136   1.738334   3.976481
    45  Cl   3.235064   5.286027   6.966307   3.278187   5.224861
    46  Cl   5.268734   5.285815   4.367810   6.414456   6.513313
                   21         22         23         24         25
    21  C    0.000000
    22  H    2.139785   0.000000
    23  C    3.712563   5.803945   0.000000
    24  H    4.589303   6.720075   1.090096   0.000000
    25  C    8.613612   8.791983   8.610740   9.497879   0.000000
    26  O    9.344806   9.323615   9.603822  10.507932   1.215990
    27  C    8.895512   9.503402   8.045368   8.793834   2.492605
    28  O    9.799199  10.504513   8.649558   9.310131   3.588740
    29  N    9.302435   9.668090   8.855601   9.667489   1.400635
    30  C    2.881197   4.885769   2.482099   2.678635  10.331760
    31  O    4.096889   6.078728   2.835559   2.531602  11.214814
    32  C    1.487391   2.674537   4.272015   4.893977  10.097327
    33  O    2.368987   2.512440   5.487723   6.089906  10.802815
    34  N    2.455562   4.061433   3.723248   4.063809  10.776780
    35  C   10.750974  11.043523  10.276368  11.058209   2.429136
    36  H   11.054204  11.146468  10.899020  11.736601   2.705179
    37  H   11.244137  11.662672  10.489916  11.211084   3.334149
    38  H   11.173171  11.483367  10.649012  11.404876   2.711507
    39  C    3.804776   5.053934   4.910757   5.010672  12.233338
    40  H    4.436745   5.746481   5.083041   5.053536  12.733289
    41  H    3.957951   4.737094   5.773913   5.989884  12.552562
    42  H    4.424877   5.759635   5.089634   5.037593  12.623285
    43  Cl   3.976990   2.796961   6.742211   7.813265   6.483539
    44  Cl   5.936285   7.813228   2.676750   2.797767   7.559863
    45  Cl   6.514156   7.965773   4.368185   4.825552   6.795208
    46  Cl   5.225500   4.824481   6.966588   7.966071   5.148435
                   26         27         28         29         30
    26  O    0.000000
    27  C    3.580942   0.000000
    28  O    4.562708   1.215796   0.000000
    29  N    2.274119   1.403425   2.288597   0.000000
    30  C   11.214814  10.097327  10.802815  10.776780   0.000000
    31  O   12.135237  10.816420  11.441425  11.576064   1.215990
    32  C   10.816420  10.340950  11.212317  10.780941   2.492605
    33  O   11.441425  11.212317  12.122459  11.567047   3.588740
    34  N   11.576064  10.780941  11.567047  11.348761   1.400635
    35  C    2.674223   2.463326   2.750313   1.462896  12.233338
    36  H    2.647120   3.192306   3.512159   2.107574  12.733289
    37  H    3.745392   2.476924   2.242618   2.079102  12.552562
    38  H    2.649637   3.186583   3.510109   2.107794  12.623285
    39  C   13.017760  12.232181  12.999383  12.811303   2.429136
    40  H   13.580437  12.540282  13.230228  13.215788   2.705179
    41  H   13.273968  12.710669  13.528963  13.210338   3.334149
    42  H   13.390686  12.649115  13.421049  13.214608   2.711507
    43  Cl   6.872469   7.566962   8.646657   7.470079   6.795208
    44  Cl   8.644988   6.483198   6.857116   7.468185   5.148435
    45  Cl   8.001251   5.146496   5.276261   6.389471   6.483539
    46  Cl   5.294838   6.803322   8.006869   6.391728   7.559863
                   31         32         33         34         35
    31  O    0.000000
    32  C    3.580942   0.000000
    33  O    4.562708   1.215796   0.000000
    34  N    2.274119   1.403425   2.288597   0.000000
    35  C   13.017760  12.232181  12.999383  12.811303   0.000000
    36  H   13.580437  12.540282  13.230228  13.215788   1.098923
    37  H   13.273968  12.710669  13.528963  13.210338   1.093706
    38  H   13.390686  12.649115  13.421049  13.214608   1.098998
    39  C    2.674223   2.463326   2.750313   1.462896  14.273896
    40  H    2.647120   3.192306   3.512159   2.107574  14.676487
    41  H    3.745392   2.476924   2.242618   2.079102  14.667365
    42  H    2.649637   3.186583   3.510109   2.107794  14.672549
    43  Cl   8.001251   5.146496   5.276261   6.389471   8.733301
    44  Cl   5.294838   6.803322   8.006869   6.391728   8.754044
    45  Cl   6.872469   7.566962   8.646657   7.470079   7.609417
    46  Cl   8.644988   6.483198   6.857116   7.468185   7.576196
                   36         37         38         39         40
    36  H    0.000000
    37  H    1.802465   0.000000
    38  H    1.776987   1.802801   0.000000
    39  C   14.676487  14.667365  14.672549   0.000000
    40  H   15.091054  15.001108  15.128506   1.098923   0.000000
    41  H   15.001108  15.114046  15.074151   1.093706   1.802465
    42  H   15.128506  15.074151  15.003395   1.098998   1.776987
    43  Cl   8.682066   9.448313   9.189832   7.609417   8.242777
    44  Cl   9.555628   8.783478   9.066544   7.576196   7.696200
    45  Cl   8.242777   7.452235   8.259135   8.733301   8.682066
    46  Cl   7.696200   8.448755   7.677081   8.754044   9.555628
                   41         42         43         44         45
    41  H    0.000000
    42  H    1.802801   0.000000
    43  Cl   7.452235   8.259135   0.000000
    44  Cl   8.448755   7.677081   7.919981   0.000000
    45  Cl   9.448313   9.189832   7.524965   3.093120   0.000000
    46  Cl   8.783478   9.066544   3.093120   7.525425   7.919981
                   46
    46  Cl   0.000000
 Symmetry turned off by external request.
 Stoichiometry    C26H10Cl4N2O4
 Framework group  C2[X(C26H10Cl4N2O4)]
 Deg. of freedom    67
 Full point group                 C2      NOp   2
 Rotational constants (GHZ):      0.1503231      0.0665714      0.0496726
 Leave Link  202 at Sat Mar 27 12:35:21 2021, MaxMem=  5242880000 cpu:         0.7
 (Enter /opt/nce/packages/global/g09/l301.exe)
 Standard basis: def2TZVP (5D, 7F)
 Ernie: Thresh=  0.10000D-02 Tol=  0.10000D-05 Strict=F.
  1200 basis functions,  1988 primitive gaussians,  1380 cartesian basis functions
   140 alpha electrons      140 beta electrons
       nuclear repulsion energy      4524.0269155377 Hartrees.
 IExCor= 1009 DFT=T Ex=PBE Corr=PBE ExCW=0 ScaHFX=  0.000000
 ScaDFX=  1.000000  1.000000  1.000000  1.000000 ScalE2=  1.000000  1.000000
 IRadAn=      5 IRanWt=     -1 IRanGd=            0 ICorTp=0 IEmpDi=141
 NAtoms=   46 NActive=   46 NUniq=   46 SFac= 1.00D+00 NAtFMM=   60 NAOKFM=F Big=F
 Integral buffers will be    131072 words long.
 Raffenetti 2 integral format.
 Two-electron integral symmetry is turned off.
 R6Disp:  Grimme-D3(BJ) Dispersion energy=       -0.0884592007 Hartrees.
 Nuclear repulsion after empirical dispersion term =     4523.9384563370 Hartrees.
 ------------------------------------------------------------------------------
 Polarizable Continuum Model (PCM)
 =================================
 Model                : PCM (using non-symmetric T matrix).
 Atomic radii         : SMD-Coulomb.
 Polarization charges : Total charges.
 Charge compensation  : None.
 Solution method      : On-the-fly selection.
 Cavity type          : VdW (van der Waals Surface) (Alpha=1.000).
 Cavity algorithm     : GePol (No added spheres)
                        Default sphere list used, NSphG=   46.
                        Lebedev-Laikov grids with approx.  5.0 points / Ang**2.
                        Smoothing algorithm: York/Karplus (Gamma=1.0000).
                        Polarization charges: spherical gaussians, with
                                              point-specific exponents (IZeta= 3).
                        Self-potential: point-specific (ISelfS= 7).
                        Self-field    : sphere-specific E.n sum rule (ISelfD= 2).
 1st derivatives      : Analytical E(r).r(x)/FMM algorithm (CHGder, D1EAlg=3).
                        Cavity 1st derivative terms included.
 Solvent              : Dichloromethane, Eps=   8.930000 Eps(inf)=   2.028346
 ------------------------------------------------------------------------------
 GePol: Number of generator spheres                  =      46
 GePol: Total number of spheres                      =      46
 GePol: Number of exposed spheres                    =      46 (100.00%)
 GePol: Number of points                             =    3924
 GePol: Average weight of points                     =       0.13
 GePol: Minimum weight of points                     =   0.99D-09
 GePol: Maximum weight of points                     =    0.20498
 GePol: Number of points with low weight             =     162
 GePol: Fraction of low-weight points (<1% of avg)   =       4.13%
 GePol: Cavity surface area                          =    500.332 Ang**2
 GePol: Cavity volume                                =    565.764 Ang**3
 ------------------------------------------------------------------------------
 Atomic radii for non-electrostatic terms: SMD-CDS.
 ------------------------------------------------------------------------------
 PCM non-electrostatic energy =        -0.0174758624 Hartrees.
 Nuclear repulsion after PCM non-electrostatic terms =     4523.9209804747 Hartrees.
 Leave Link  301 at Sat Mar 27 12:35:21 2021, MaxMem=  5242880000 cpu:         2.6
 (Enter /opt/nce/packages/global/g09/l302.exe)
 NPDir=0 NMtPBC=     1 NCelOv=     1 NCel=       1 NClECP=     1 NCelD=      1
         NCelK=      1 NCelE2=     1 NClLst=     1 CellRange=     0.0.
 One-electron integrals computed using PRISM.
   1 Symmetry operations used in ECPInt.
 ECPInt:  NShTT=   98790 NPrTT=  327714 LenC2=   74876 LenP2D=  163880.
 LDataN:  DoStor=T MaxTD1= 6 Len=  172
 NBasis=  1200 RedAO= T EigKep=  3.46D-06  NBF=  1200
 NBsUse=  1200 1.00D-06 EigRej= -1.00D+00 NBFU=  1200
 Precomputing XC quadrature grid using
 IXCGrd= 4 IRadAn=           5 IRanWt=          -1 IRanGd=           0 AccXCQ= 0.00D+00.
 Generated NRdTot=       0 NPtTot=           0 NUsed=           0 NTot=          32
 NSgBfM=  1294  1294  1294  1294  1294 MxSgAt=    46 MxSgA2=    46.
 Leave Link  302 at Sat Mar 27 12:35:25 2021, MaxMem=  5242880000 cpu:        42.9
 (Enter /opt/nce/packages/global/g09/l303.exe)
 DipDrv:  MaxL=1.
 Leave Link  303 at Sat Mar 27 12:35:25 2021, MaxMem=  5242880000 cpu:         3.5
 (Enter /opt/nce/packages/global/g09/l401.exe)
 ExpMin= 9.52D-02 ExpMax= 6.95D+04 ExpMxC= 2.37D+03 IAcc=3 IRadAn=         5 AccDes= 0.00D+00
 Harris functional with IExCor= 1009 and IRadAn=       5 diagonalized for initial guess.
 HarFok:  IExCor= 1009 AccDes= 0.00D+00 IRadAn=         5 IDoV= 1 UseB2=F ITyADJ=14
 ICtDFT=  3500011 ScaDFX=  1.000000  1.000000  1.000000  1.000000
 FoFCou: FMM=F IPFlag=           0 FMFlag=      100000 FMFlg1=           0
         NFxFlg=           0 DoJE=T BraDBF=F KetDBF=T FulRan=T
         wScrn=  0.000000 ICntrl=     500 IOpCl=  0 I1Cent=   200000004 NGrid=           0
         NMat0=    1 NMatS0=      1 NMatT0=    0 NMatD0=    1 NMtDS0=    0 NMtDT0=    0
 Symmetry not used in FoFCou.
 Harris En= -3246.44175323916    
 JPrj=0 DoOrth=F DoCkMO=F.
 Leave Link  401 at Sat Mar 27 12:35:36 2021, MaxMem=  5242880000 cpu:       133.3
 (Enter /opt/nce/packages/global/g09/l502.exe)
 Closed shell SCF:
 Using DIIS extrapolation, IDIIS=  1040.
 Two-electron integral symmetry not used.
 IVT=     5756682 IEndB=     5756682 NGot=  5242880000 MDV=  5239045739
 LenX=  5239045739 LenY=  5237139959
 Requested convergence on RMS density matrix=1.00D-08 within 128 cycles.
 Requested convergence on MAX density matrix=1.00D-06.
 Requested convergence on             energy=1.00D-06.
 No special actions if energy rises.
 Fock matrices will be formed incrementally for  20 cycles.

 Cycle   1  Pass 1  IDiag  1:
 FoFJK:  IHMeth= 1 ICntrl=     500 DoSepK=F KAlg= 0 I1Cent=   0 FoldK=F
 IRaf= 640000000 NMat=   1 IRICut=       1 DoRegI=T DoRafI=F ISym2E= 0.
 FoFCou: FMM=F IPFlag=           0 FMFlag=      100000 FMFlg1=           0
         NFxFlg=           0 DoJE=T BraDBF=F KetDBF=F FulRan=T
         wScrn=  0.000000 ICntrl=     500 IOpCl=  0 I1Cent=           0 NGrid=           0
         NMat0=    1 NMatS0=      1 NMatT0=    0 NMatD0=    1 NMtDS0=    0 NMtDT0=    0
 Symmetry not used in FoFCou.
 Inv3:  Mode=1 IEnd=    46193328.
 Iteration    1 A*A^-1 deviation from unit magnitude is 6.66D-15 for   3918.
 Iteration    1 A*A^-1 deviation from orthogonality  is 3.20D-15 for    888    363.
 Iteration    1 A^-1*A deviation from unit magnitude is 6.44D-15 for   3918.
 Iteration    1 A^-1*A deviation from orthogonality  is 3.86D-13 for   2291   2287.
 E= -3245.66998796295    
 DIIS: error= 1.53D-02 at cycle   1 NSaved=   1.
 NSaved= 1 IEnMin= 1 EnMin= -3245.66998796295     IErMin= 1 ErrMin= 1.53D-02
 ErrMax= 1.53D-02  0.00D+00 EMaxC= 1.00D-01 BMatC= 9.11D-01 BMatP= 9.11D-01
 IDIUse=3 WtCom= 8.47D-01 WtEn= 1.53D-01
 Coeff-Com:  0.100D+01
 Coeff-En:   0.100D+01
 Coeff:      0.100D+01
 Gap=     0.201 Goal=   None    Shift=    0.000
 GapD=    0.201 DampG=1.000 DampE=0.500 DampFc=0.5000 IDamp=-1.
 Damping current iteration by 5.00D-01
 RMSDP=1.01D-02 MaxDP=9.12D-01              OVMax= 8.76D-01

 Cycle   2  Pass 1  IDiag  1:
 RMSU=  5.03D-03    CP:  1.08D+00
 E= -3245.33811735787     Delta-E=        0.331870605078 Rises=F Damp=T
 DIIS: error= 1.70D-02 at cycle   2 NSaved=   2.
 NSaved= 2 IEnMin= 1 EnMin= -3245.66998796295     IErMin= 1 ErrMin= 1.53D-02
 ErrMax= 1.70D-02  0.00D+00 EMaxC= 1.00D-01 BMatC= 4.94D-01 BMatP= 9.11D-01
 IDIUse=3 WtCom= 8.30D-01 WtEn= 1.70D-01
 Coeff-Com:  0.404D+00 0.596D+00
 Coeff-En:   0.618D+00 0.382D+00
 Coeff:      0.441D+00 0.559D+00
 Gap=    -0.001 Goal=   None    Shift=    0.000
 RMSDP=4.66D-03 MaxDP=4.65D-01 DE= 3.32D-01 OVMax= 7.34D-01

 Cycle   3  Pass 1  IDiag  1:
 RMSU=  1.46D-03    CP:  9.86D-01  1.30D-01
 E= -3246.03537236087     Delta-E=       -0.697255003001 Rises=F Damp=F
 DIIS: error= 1.33D-02 at cycle   3 NSaved=   3.
 NSaved= 3 IEnMin= 3 EnMin= -3246.03537236087     IErMin= 3 ErrMin= 1.33D-02
 ErrMax= 1.33D-02  0.00D+00 EMaxC= 1.00D-01 BMatC= 3.91D-01 BMatP= 4.94D-01
 IDIUse=3 WtCom= 8.67D-01 WtEn= 1.33D-01
 EnCoef did     1 forward-backward iterations
 Coeff-Com:  0.205D+00 0.431D+00 0.364D+00
 Coeff-En:   0.219D+00 0.126D+00 0.655D+00
 Coeff:      0.207D+00 0.390D+00 0.403D+00
 Gap=     0.056 Goal=   None    Shift=    0.000
 RMSDP=1.41D-03 MaxDP=9.40D-02 DE=-6.97D-01 OVMax= 2.64D-01

 Cycle   4  Pass 1  IDiag  1:
 RMSU=  1.09D-03    CP:  1.04D+00  2.31D-01  5.48D-01
 E= -3246.36896179544     Delta-E=       -0.333589434568 Rises=F Damp=F
 DIIS: error= 4.35D-03 at cycle   4 NSaved=   4.
 NSaved= 4 IEnMin= 4 EnMin= -3246.36896179544     IErMin= 4 ErrMin= 4.35D-03
 ErrMax= 4.35D-03  0.00D+00 EMaxC= 1.00D-01 BMatC= 4.51D-02 BMatP= 3.91D-01
 IDIUse=3 WtCom= 9.56D-01 WtEn= 4.35D-02
 Coeff-Com:  0.342D-01 0.128D+00 0.257D+00 0.581D+00
 Coeff-En:   0.000D+00 0.000D+00 0.135D+00 0.865D+00
 Coeff:      0.328D-01 0.122D+00 0.251D+00 0.594D+00
 Gap=     0.054 Goal=   None    Shift=    0.000
 RMSDP=7.25D-04 MaxDP=8.51D-02 DE=-3.34D-01 OVMax= 1.21D-01

 Cycle   5  Pass 1  IDiag  1:
 RMSU=  4.41D-04    CP:  9.98D-01  1.95D-01  6.93D-01  6.05D-01
 E= -3246.39886093961     Delta-E=       -0.029899144165 Rises=F Damp=F
 DIIS: error= 3.50D-03 at cycle   5 NSaved=   5.
 NSaved= 5 IEnMin= 5 EnMin= -3246.39886093961     IErMin= 5 ErrMin= 3.50D-03
 ErrMax= 3.50D-03  0.00D+00 EMaxC= 1.00D-01 BMatC= 1.44D-02 BMatP= 4.51D-02
 IDIUse=3 WtCom= 9.65D-01 WtEn= 3.50D-02
 Coeff-Com:  0.378D-02 0.495D-01 0.140D+00 0.435D+00 0.372D+00
 Coeff-En:   0.000D+00 0.000D+00 0.000D+00 0.288D+00 0.712D+00
 Coeff:      0.365D-02 0.478D-01 0.135D+00 0.430D+00 0.384D+00
 Gap=     0.056 Goal=   None    Shift=    0.000
 RMSDP=1.83D-04 MaxDP=1.48D-02 DE=-2.99D-02 OVMax= 6.76D-02

 Cycle   6  Pass 1  IDiag  1:
 RMSU=  1.30D-04    CP:  1.00D+00  2.09D-01  6.81D-01  6.96D-01  9.33D-01
 E= -3246.41302123599     Delta-E=       -0.014160296384 Rises=F Damp=F
 DIIS: error= 1.21D-03 at cycle   6 NSaved=   6.
 NSaved= 6 IEnMin= 6 EnMin= -3246.41302123599     IErMin= 6 ErrMin= 1.21D-03
 ErrMax= 1.21D-03  0.00D+00 EMaxC= 1.00D-01 BMatC= 1.76D-03 BMatP= 1.44D-02
 IDIUse=3 WtCom= 9.88D-01 WtEn= 1.21D-02
 Coeff-Com: -0.204D-02 0.138D-01 0.442D-01 0.190D+00 0.279D+00 0.476D+00
 Coeff-En:   0.000D+00 0.000D+00 0.000D+00 0.000D+00 0.147D+00 0.853D+00
 Coeff:     -0.201D-02 0.136D-01 0.437D-01 0.187D+00 0.277D+00 0.480D+00
 Gap=     0.056 Goal=   None    Shift=    0.000
 RMSDP=1.26D-04 MaxDP=6.78D-03 DE=-1.42D-02 OVMax= 1.86D-02

 Cycle   7  Pass 1  IDiag  1:
 RMSU=  4.92D-05    CP:  1.01D+00  2.11D-01  6.91D-01  7.26D-01  7.53D-01
                    CP:  4.91D-01
 E= -3246.41487577565     Delta-E=       -0.001854539655 Rises=F Damp=F
 DIIS: error= 3.17D-04 at cycle   7 NSaved=   7.
 NSaved= 7 IEnMin= 7 EnMin= -3246.41487577565     IErMin= 7 ErrMin= 3.17D-04
 ErrMax= 3.17D-04  0.00D+00 EMaxC= 1.00D-01 BMatC= 1.72D-04 BMatP= 1.76D-03
 IDIUse=3 WtCom= 9.97D-01 WtEn= 3.17D-03
 Coeff-Com: -0.157D-02 0.223D-02 0.116D-01 0.721D-01 0.134D+00 0.308D+00
 Coeff-Com:  0.473D+00
 Coeff-En:   0.000D+00 0.000D+00 0.000D+00 0.000D+00 0.000D+00 0.601D-01
 Coeff-En:   0.940D+00
 Coeff:     -0.157D-02 0.222D-02 0.116D-01 0.719D-01 0.134D+00 0.307D+00
 Coeff:      0.475D+00
 Gap=     0.056 Goal=   None    Shift=    0.000
 RMSDP=2.93D-05 MaxDP=1.70D-03 DE=-1.85D-03 OVMax= 4.25D-03

 Cycle   8  Pass 1  IDiag  1:
 RMSU=  1.40D-05    CP:  1.01D+00  2.12D-01  6.83D-01  7.29D-01  7.79D-01
                    CP:  5.68D-01  6.75D-01
 E= -3246.41502553811     Delta-E=       -0.000149762467 Rises=F Damp=F
 DIIS: error= 1.22D-04 at cycle   8 NSaved=   8.
 NSaved= 8 IEnMin= 8 EnMin= -3246.41502553811     IErMin= 8 ErrMin= 1.22D-04
 ErrMax= 1.22D-04  0.00D+00 EMaxC= 1.00D-01 BMatC= 2.83D-05 BMatP= 1.72D-04
 IDIUse=3 WtCom= 9.99D-01 WtEn= 1.22D-03
 Coeff-Com: -0.571D-03-0.500D-04 0.185D-02 0.209D-01 0.478D-01 0.132D+00
 Coeff-Com:  0.317D+00 0.481D+00
 Coeff-En:   0.000D+00 0.000D+00 0.000D+00 0.000D+00 0.000D+00 0.000D+00
 Coeff-En:   0.149D+00 0.851D+00
 Coeff:     -0.570D-03-0.499D-04 0.185D-02 0.209D-01 0.477D-01 0.132D+00
 Coeff:      0.317D+00 0.481D+00
 Gap=     0.056 Goal=   None    Shift=    0.000
 RMSDP=1.07D-05 MaxDP=7.51D-04 DE=-1.50D-04 OVMax= 1.18D-03

 Cycle   9  Pass 1  IDiag  1:
 RMSU=  5.23D-06    CP:  1.01D+00  2.11D-01  6.85D-01  7.25D-01  7.79D-01
                    CP:  5.54D-01  7.14D-01  5.57D-01
 E= -3246.41504914799     Delta-E=       -0.000023609877 Rises=F Damp=F
 DIIS: error= 6.19D-05 at cycle   9 NSaved=   9.
 NSaved= 9 IEnMin= 9 EnMin= -3246.41504914799     IErMin= 9 ErrMin= 6.19D-05
 ErrMax= 6.19D-05  0.00D+00 EMaxC= 1.00D-01 BMatC= 3.16D-06 BMatP= 2.83D-05
 IDIUse=1 WtCom= 1.00D+00 WtEn= 0.00D+00
 Coeff-Com: -0.191D-03-0.238D-03 0.419D-03 0.742D-02 0.197D-01 0.595D-01
 Coeff-Com:  0.165D+00 0.315D+00 0.434D+00
 Coeff:     -0.191D-03-0.238D-03 0.419D-03 0.742D-02 0.197D-01 0.595D-01
 Coeff:      0.165D+00 0.315D+00 0.434D+00
 Gap=     0.056 Goal=   None    Shift=    0.000
 RMSDP=3.32D-06 MaxDP=1.81D-04 DE=-2.36D-05 OVMax= 4.88D-04

 Cycle  10  Pass 1  IDiag  1:
 RMSU=  1.48D-06    CP:  1.01D+00  2.11D-01  6.85D-01  7.25D-01  7.83D-01
                    CP:  5.59D-01  7.04D-01  6.11D-01  7.49D-01
 E= -3246.41505204353     Delta-E=       -0.000002895545 Rises=F Damp=F
 DIIS: error= 2.37D-05 at cycle  10 NSaved=  10.
 NSaved=10 IEnMin=10 EnMin= -3246.41505204353     IErMin=10 ErrMin= 2.37D-05
 ErrMax= 2.37D-05  0.00D+00 EMaxC= 1.00D-01 BMatC= 3.32D-07 BMatP= 3.16D-06
 IDIUse=1 WtCom= 1.00D+00 WtEn= 0.00D+00
 Coeff-Com: -0.106D-04-0.125D-03 0.392D-04 0.126D-02 0.540D-02 0.186D-01
 Coeff-Com:  0.584D-01 0.127D+00 0.271D+00 0.518D+00
 Coeff:     -0.106D-04-0.125D-03 0.392D-04 0.126D-02 0.540D-02 0.186D-01
 Coeff:      0.584D-01 0.127D+00 0.271D+00 0.518D+00
 Gap=     0.056 Goal=   None    Shift=    0.000
 RMSDP=1.26D-06 MaxDP=7.69D-05 DE=-2.90D-06 OVMax= 1.70D-04

 Cycle  11  Pass 1  IDiag  1:
 RMSU=  6.04D-07    CP:  1.01D+00  2.11D-01  6.85D-01  7.25D-01  7.81D-01
                    CP:  5.57D-01  7.09D-01  5.96D-01  7.73D-01  7.75D-01
 E= -3246.41505233222     Delta-E=       -0.000000288681 Rises=F Damp=F
 DIIS: error= 6.20D-06 at cycle  11 NSaved=  11.
 NSaved=11 IEnMin=11 EnMin= -3246.41505233222     IErMin=11 ErrMin= 6.20D-06
 ErrMax= 6.20D-06  0.00D+00 EMaxC= 1.00D-01 BMatC= 4.23D-08 BMatP= 3.32D-07
 IDIUse=1 WtCom= 1.00D+00 WtEn= 0.00D+00
 Coeff-Com:  0.611D-05-0.374D-04 0.492D-04 0.267D-03 0.190D-02 0.687D-02
 Coeff-Com:  0.225D-01 0.518D-01 0.134D+00 0.344D+00 0.439D+00
 Coeff:      0.611D-05-0.374D-04 0.492D-04 0.267D-03 0.190D-02 0.687D-02
 Coeff:      0.225D-01 0.518D-01 0.134D+00 0.344D+00 0.439D+00
 Gap=     0.056 Goal=   None    Shift=    0.000
 RMSDP=3.93D-07 MaxDP=3.10D-05 DE=-2.89D-07 OVMax= 4.69D-05

 Cycle  12  Pass 1  IDiag  1:
 RMSU=  1.90D-07    CP:  1.01D+00  2.11D-01  6.85D-01  7.24D-01  7.82D-01
                    CP:  5.58D-01  7.09D-01  5.99D-01  7.62D-01  8.26D-01
                    CP:  6.77D-01
 E= -3246.41505237552     Delta-E=       -0.000000043303 Rises=F Damp=F
 DIIS: error= 9.82D-07 at cycle  12 NSaved=  12.
 NSaved=12 IEnMin=12 EnMin= -3246.41505237552     IErMin=12 ErrMin= 9.82D-07
 ErrMax= 9.82D-07  0.00D+00 EMaxC= 1.00D-01 BMatC= 2.51D-09 BMatP= 4.23D-08
 IDIUse=1 WtCom= 1.00D+00 WtEn= 0.00D+00
 Coeff-Com:  0.239D-05-0.123D-04 0.276D-04 0.673D-04 0.704D-03 0.260D-02
 Coeff-Com:  0.867D-02 0.204D-01 0.578D-01 0.165D+00 0.263D+00 0.482D+00
 Coeff:      0.239D-05-0.123D-04 0.276D-04 0.673D-04 0.704D-03 0.260D-02
 Coeff:      0.867D-02 0.204D-01 0.578D-01 0.165D+00 0.263D+00 0.482D+00
 Gap=     0.056 Goal=   None    Shift=    0.000
 RMSDP=1.62D-07 MaxDP=1.26D-05 DE=-4.33D-08 OVMax= 1.61D-05

 Cycle  13  Pass 1  IDiag  1:
 RMSU=  9.66D-08    CP:  1.01D+00  2.11D-01  6.85D-01  7.24D-01  7.82D-01
                    CP:  5.58D-01  7.08D-01  5.99D-01  7.68D-01  8.01D-01
                    CP:  6.97D-01  5.47D-01
 E= -3246.41505237702     Delta-E=       -0.000000001502 Rises=F Damp=F
 DIIS: error= 7.17D-07 at cycle  13 NSaved=  13.
 NSaved=13 IEnMin=13 EnMin= -3246.41505237702     IErMin=13 ErrMin= 7.17D-07
 ErrMax= 7.17D-07  0.00D+00 EMaxC= 1.00D-01 BMatC= 8.54D-10 BMatP= 2.51D-09
 IDIUse=1 WtCom= 1.00D+00 WtEn= 0.00D+00
 Coeff-Com:  0.926D-06-0.185D-05 0.106D-04 0.639D-05 0.219D-03 0.854D-03
 Coeff-Com:  0.296D-02 0.712D-02 0.217D-01 0.667D-01 0.124D+00 0.365D+00
 Coeff-Com:  0.412D+00
 Coeff:      0.926D-06-0.185D-05 0.106D-04 0.639D-05 0.219D-03 0.854D-03
 Coeff:      0.296D-02 0.712D-02 0.217D-01 0.667D-01 0.124D+00 0.365D+00
 Coeff:      0.412D+00
 Gap=     0.056 Goal=   None    Shift=    0.000
 RMSDP=7.29D-08 MaxDP=6.12D-06 DE=-1.50D-09 OVMax= 8.37D-06

 Cycle  14  Pass 1  IDiag  1:
 RMSU=  2.43D-08    CP:  1.01D+00  2.11D-01  6.85D-01  7.24D-01  7.82D-01
                    CP:  5.58D-01  7.08D-01  6.00D-01  7.67D-01  8.17D-01
                    CP:  6.69D-01  7.38D-01  5.18D-01
 E= -3246.41505237758     Delta-E=       -0.000000000564 Rises=F Damp=F
 DIIS: error= 1.92D-07 at cycle  14 NSaved=  14.
 NSaved=14 IEnMin=14 EnMin= -3246.41505237758     IErMin=14 ErrMin= 1.92D-07
 ErrMax= 1.92D-07  0.00D+00 EMaxC= 1.00D-01 BMatC= 8.13D-11 BMatP= 8.54D-10
 IDIUse=1 WtCom= 1.00D+00 WtEn= 0.00D+00
 Coeff-Com:  0.140D-06 0.293D-06 0.250D-05-0.257D-05 0.592D-04 0.247D-03
 Coeff-Com:  0.918D-03 0.225D-02 0.710D-02 0.230D-01 0.488D-01 0.180D+00
 Coeff-Com:  0.278D+00 0.459D+00
 Coeff:      0.140D-06 0.293D-06 0.250D-05-0.257D-05 0.592D-04 0.247D-03
 Coeff:      0.918D-03 0.225D-02 0.710D-02 0.230D-01 0.488D-01 0.180D+00
 Coeff:      0.278D+00 0.459D+00
 Gap=     0.056 Goal=   None    Shift=    0.000
 RMSDP=2.16D-08 MaxDP=1.73D-06 DE=-5.64D-10 OVMax= 2.21D-06

 Cycle  15  Pass 1  IDiag  1:
 RMSU=  7.02D-09    CP:  1.01D+00  2.11D-01  6.85D-01  7.24D-01  7.82D-01
                    CP:  5.58D-01  7.08D-01  6.00D-01  7.67D-01  8.14D-01
                    CP:  6.82D-01  6.91D-01  5.97D-01  6.05D-01
 E= -3246.41505237772     Delta-E=       -0.000000000139 Rises=F Damp=F
 DIIS: error= 7.18D-08 at cycle  15 NSaved=  15.
 NSaved=15 IEnMin=15 EnMin= -3246.41505237772     IErMin=15 ErrMin= 7.18D-08
 ErrMax= 7.18D-08  0.00D+00 EMaxC= 1.00D-01 BMatC= 8.92D-12 BMatP= 8.13D-11
 IDIUse=1 WtCom= 1.00D+00 WtEn= 0.00D+00
 Coeff-Com: -0.183D-06 0.105D-07-0.300D-06-0.186D-05 0.731D-05 0.385D-04
 Coeff-Com:  0.180D-03 0.471D-03 0.149D-02 0.521D-02 0.137D-01 0.635D-01
 Coeff-Com:  0.121D+00 0.298D+00 0.496D+00
 Coeff:     -0.183D-06 0.105D-07-0.300D-06-0.186D-05 0.731D-05 0.385D-04
 Coeff:      0.180D-03 0.471D-03 0.149D-02 0.521D-02 0.137D-01 0.635D-01
 Coeff:      0.121D+00 0.298D+00 0.496D+00
 Gap=     0.056 Goal=   None    Shift=    0.000
 RMSDP=8.87D-09 MaxDP=9.10D-07 DE=-1.39D-10 OVMax= 6.49D-07

 Error on total polarization charges =  0.02585
 SCF Done:  E(RPBE-PBE) =  -3246.41505238     A.U. after   15 cycles
            NFock= 15  Conv=0.89D-08     -V/T= 2.0027
 KE= 3.237739361058D+03 PE=-1.670082336886D+04 EE= 5.692747974954D+03
 SMD-CDS (non-electrostatic) energy       (kcal/mol) =     -10.97
 (included in total energy above)
 Leave Link  502 at Sat Mar 27 12:53:40 2021, MaxMem=  5242880000 cpu:     12949.5
 (Enter /opt/nce/packages/global/g09/l601.exe)
 Copying SCF densities to generalized density rwf, IOpCl= 0 IROHF=0.

 **********************************************************************

            Population analysis using the SCF density.

 **********************************************************************

 Alpha  occ. eigenvalues -- -100.68053-100.68053-100.68052-100.68052 -18.74336
 Alpha  occ. eigenvalues --  -18.74336 -18.74268 -18.74268 -14.04997 -14.04997
 Alpha  occ. eigenvalues --  -10.00365 -10.00365 -10.00158 -10.00158  -9.97578
 Alpha  occ. eigenvalues --   -9.97577  -9.97574  -9.97573  -9.94423  -9.94422
 Alpha  occ. eigenvalues --   -9.94403  -9.94401  -9.93858  -9.93857  -9.92971
 Alpha  occ. eigenvalues --   -9.92971  -9.92640  -9.92640  -9.92601  -9.92601
 Alpha  occ. eigenvalues --   -9.92030  -9.92029  -9.92028  -9.92027  -9.91016
 Alpha  occ. eigenvalues --   -9.91016  -9.19428  -9.19428  -9.19426  -9.19426
 Alpha  occ. eigenvalues --   -7.01794  -7.01794  -7.01792  -7.01792  -7.00770
 Alpha  occ. eigenvalues --   -7.00770  -7.00768  -7.00768  -7.00669  -7.00669
 Alpha  occ. eigenvalues --   -7.00668  -7.00668  -0.98765  -0.98764  -0.97031
 Alpha  occ. eigenvalues --   -0.97031  -0.87222  -0.87118  -0.86384  -0.84071
 Alpha  occ. eigenvalues --   -0.83926  -0.82226  -0.80727  -0.79725  -0.77852
 Alpha  occ. eigenvalues --   -0.75935  -0.75311  -0.72586  -0.71976  -0.68901
 Alpha  occ. eigenvalues --   -0.68463  -0.66931  -0.66685  -0.64922  -0.63500
 Alpha  occ. eigenvalues --   -0.61420  -0.60284  -0.59540  -0.58507  -0.57357
 Alpha  occ. eigenvalues --   -0.56425  -0.55516  -0.52330  -0.50663  -0.50258
 Alpha  occ. eigenvalues --   -0.49605  -0.48866  -0.48123  -0.46474  -0.44857
 Alpha  occ. eigenvalues --   -0.44328  -0.44156  -0.43993  -0.43656  -0.42946
 Alpha  occ. eigenvalues --   -0.42855  -0.42643  -0.42413  -0.41463  -0.40534
 Alpha  occ. eigenvalues --   -0.40077  -0.39734  -0.39498  -0.39109  -0.39027
 Alpha  occ. eigenvalues --   -0.38544  -0.38385  -0.37924  -0.37805  -0.37529
 Alpha  occ. eigenvalues --   -0.36587  -0.36271  -0.35916  -0.35881  -0.35629
 Alpha  occ. eigenvalues --   -0.35233  -0.35021  -0.33960  -0.33673  -0.33168
 Alpha  occ. eigenvalues --   -0.33061  -0.31989  -0.30230  -0.29395  -0.29171
 Alpha  occ. eigenvalues --   -0.28974  -0.28714  -0.27843  -0.27093  -0.25830
 Alpha  occ. eigenvalues --   -0.25418  -0.25152  -0.25151  -0.25077  -0.24996
 Alpha  occ. eigenvalues --   -0.23838  -0.23275  -0.23239  -0.23231  -0.20674
 Alpha virt. eigenvalues --   -0.15044  -0.11170  -0.09745  -0.07761  -0.07661
 Alpha virt. eigenvalues --   -0.06139  -0.05396  -0.04447  -0.02487  -0.01958
 Alpha virt. eigenvalues --   -0.01284  -0.01061   0.00776   0.02432   0.03161
 Alpha virt. eigenvalues --    0.03266   0.03618   0.04866   0.05243   0.06077
 Alpha virt. eigenvalues --    0.06524   0.07045   0.07206   0.07520   0.07777
 Alpha virt. eigenvalues --    0.08866   0.09392   0.09889   0.10137   0.10180
 Alpha virt. eigenvalues --    0.10747   0.10833   0.11265   0.12024   0.12105
 Alpha virt. eigenvalues --    0.12780   0.13080   0.13243   0.13845   0.14054
 Alpha virt. eigenvalues --    0.14196   0.14304   0.14586   0.15209   0.15702
 Alpha virt. eigenvalues --    0.15921   0.16034   0.16561   0.16566   0.17152
 Alpha virt. eigenvalues --    0.17587   0.17709   0.17940   0.17951   0.18347
 Alpha virt. eigenvalues --    0.18772   0.18795   0.19217   0.19756   0.19890
 Alpha virt. eigenvalues --    0.19917   0.20090   0.20133   0.20618   0.20681
 Alpha virt. eigenvalues --    0.21037   0.21203   0.22063   0.22540   0.22596
 Alpha virt. eigenvalues --    0.22884   0.23243   0.24168   0.24292   0.24461
 Alpha virt. eigenvalues --    0.24535   0.24915   0.25227   0.25353   0.25859
 Alpha virt. eigenvalues --    0.26165   0.26446   0.26740   0.26916   0.27100
 Alpha virt. eigenvalues --    0.27739   0.27776   0.28475   0.28598   0.28633
 Alpha virt. eigenvalues --    0.28853   0.28946   0.29126   0.29402   0.29954
 Alpha virt. eigenvalues --    0.30641   0.30996   0.31136   0.31454   0.32062
 Alpha virt. eigenvalues --    0.32175   0.32411   0.32708   0.32868   0.32935
 Alpha virt. eigenvalues --    0.33364   0.33422   0.33660   0.33870   0.34276
 Alpha virt. eigenvalues --    0.34877   0.35008   0.35291   0.35504   0.35903
 Alpha virt. eigenvalues --    0.36503   0.36750   0.36787   0.37670   0.37963
 Alpha virt. eigenvalues --    0.37989   0.38550   0.38879   0.39250   0.39542
 Alpha virt. eigenvalues --    0.40202   0.40421   0.40907   0.41134   0.41638
 Alpha virt. eigenvalues --    0.41869   0.41882   0.42384   0.42424   0.42820
 Alpha virt. eigenvalues --    0.44394   0.44447   0.44683   0.44810   0.45178
[...]
    45  Cl   0.013549  -0.002853   0.000037  -0.000000   0.013229   0.000234
    46  Cl   0.000066   0.000034  -0.002834   0.000238  -0.000028  -0.000000
              25         26         27         28         29         30
     1  C    0.045694   0.007826  -0.002564  -0.000021   0.000063   0.000007
     2  C   -0.021089  -0.000388   0.003396   0.000077   0.000108   0.000064
     3  C    0.042020   0.001062   0.013180   0.000372  -0.008042  -0.000086
     4  C   -0.121372  -0.010598  -0.094549  -0.017858  -0.098744   0.000003
     5  C    0.105956  -0.223535  -0.062643  -0.000497  -0.085389   0.000000
     6  C   -0.086442   0.066154   0.014361   0.000337   0.040686  -0.000000
     7  C    0.007213   0.000070  -0.010903  -0.000254  -0.000283  -0.001202
     8  C   -0.074085  -0.001367   0.127774  -0.219354  -0.090757  -0.000001
     9  H   -0.008501   0.024388   0.000597   0.000003   0.002196  -0.000000
    10  C    0.006505   0.000301  -0.062261   0.068200   0.039051   0.000004
    11  C   -0.003362  -0.000020   0.036266   0.006964   0.000251   0.000059
    12  H    0.000274   0.000003  -0.009159   0.023185   0.002087   0.000000
    13  C   -0.001201  -0.000039   0.000060  -0.000000   0.000003   0.007214
    14  C   -0.000086  -0.000000  -0.000093  -0.000000  -0.000000   0.042021
    15  C    0.000059   0.000001   0.000006   0.000000  -0.000000  -0.003362
    16  C    0.000064  -0.000001  -0.000939  -0.000033  -0.000002  -0.021093
    17  C    0.000003   0.000000   0.000002   0.000000   0.000000  -0.121373
    18  C    0.000004   0.000000  -0.000000  -0.000000  -0.000000   0.006506
    19  C    0.000007   0.000000   0.000048   0.000001  -0.000000   0.045699
    20  C    0.000000  -0.000000  -0.000001  -0.000000   0.000000   0.105956
    21  C   -0.000001  -0.000000   0.000000  -0.000000   0.000000  -0.074086
    22  H    0.000000  -0.000000  -0.000000   0.000000   0.000000   0.000274
    23  C   -0.000000  -0.000000   0.000004   0.000000  -0.000000  -0.086441
    24  H   -0.000000   0.000000   0.000000  -0.000000   0.000000  -0.008501
    25  C    4.959466   0.768512  -0.077254  -0.007039   0.407378  -0.000000
    26  O    0.768512   7.805682  -0.004743  -0.000250  -0.120564  -0.000000
    27  C   -0.077254  -0.004743   4.880341   0.765317   0.427623  -0.000000
    28  O   -0.007039  -0.000250   0.765317   7.822276  -0.113373  -0.000000
    29  N    0.407378  -0.120564   0.427623  -0.113373   6.375715   0.000000
    30  C   -0.000000  -0.000000  -0.000000  -0.000000   0.000000   4.959467
    31  O   -0.000000   0.000000  -0.000000   0.000000   0.000000   0.768513
    32  C   -0.000000  -0.000000  -0.000000  -0.000000   0.000000  -0.077254
    33  O   -0.000000   0.000000  -0.000000  -0.000000  -0.000000  -0.007038
    34  N    0.000000   0.000000   0.000000  -0.000000   0.000000   0.407377
    35  C   -0.049715   0.004798  -0.047753  -0.022044   0.270922   0.000000
    36  H   -0.009224   0.004577   0.006790   0.001059  -0.033704   0.000000
    37  H    0.008383   0.001863  -0.019438   0.025264  -0.037470   0.000000
    38  H   -0.006518   0.003396   0.005123   0.000904  -0.035017  -0.000000
    39  C    0.000000  -0.000000   0.000000  -0.000000   0.000000  -0.049715
    40  H    0.000000   0.000000   0.000000   0.000000   0.000000  -0.009224
    41  H    0.000000  -0.000000   0.000000  -0.000000  -0.000000   0.008383
    42  H   -0.000000   0.000000   0.000000  -0.000000  -0.000000  -0.006518
    43  Cl  -0.000023  -0.000000   0.000001  -0.000000  -0.000000  -0.000001
    44  Cl   0.000000  -0.000000  -0.000023  -0.000000  -0.000000  -0.001238
    45  Cl  -0.000001   0.000000  -0.001106   0.000027   0.000004  -0.000023
    46  Cl  -0.001238   0.000026   0.000003   0.000000   0.000004   0.000000
              31         32         33         34         35         36
     1  C    0.000000   0.000048   0.000001  -0.000000   0.000024   0.000006
     2  C   -0.000001  -0.000939  -0.000033  -0.000002  -0.000019  -0.000010
     3  C   -0.000000  -0.000093  -0.000000  -0.000000   0.000697   0.000024
     4  C    0.000000   0.000002   0.000000   0.000000   0.001667   0.000155
     5  C   -0.000000  -0.000001  -0.000000   0.000000   0.010153  -0.001043
     6  C   -0.000000   0.000004   0.000000  -0.000000  -0.003315  -0.000078
     7  C   -0.000039   0.000060  -0.000000   0.000003  -0.000010   0.000006
     8  C   -0.000000   0.000000  -0.000000   0.000000   0.003715   0.000044
     9  H    0.000000   0.000000  -0.000000   0.000000  -0.000257  -0.000014
    10  C    0.000000  -0.000000  -0.000000  -0.000000  -0.001387  -0.000038
    11  C    0.000001   0.000006   0.000000  -0.000000   0.000077  -0.000004
    12  H   -0.000000  -0.000000   0.000000   0.000000  -0.000052  -0.000002
    13  C    0.000070  -0.010898  -0.000254  -0.000283   0.000002  -0.000000
    14  C    0.001062   0.013178   0.000372  -0.008042  -0.000000  -0.000000
    15  C   -0.000020   0.036261   0.006963   0.000251   0.000000   0.000000
    16  C   -0.000388   0.003395   0.000077   0.000108   0.000001   0.000000
    17  C   -0.010599  -0.094547  -0.017858  -0.098744  -0.000000  -0.000000
    18  C    0.000301  -0.062261   0.068203   0.039052   0.000000   0.000000
    19  C    0.007826  -0.002564  -0.000021   0.000063   0.000000  -0.000000
    20  C   -0.223532  -0.062643  -0.000497  -0.085387   0.000000   0.000000
    21  C   -0.001367   0.127771  -0.219358  -0.090760   0.000000  -0.000000
    22  H    0.000003  -0.009159   0.023185   0.002087   0.000000  -0.000000
    23  C    0.066152   0.014360   0.000337   0.040685   0.000000   0.000000
    24  H    0.024387   0.000597   0.000003   0.002196   0.000000   0.000000
    25  C   -0.000000  -0.000000  -0.000000   0.000000  -0.049715  -0.009224
    26  O    0.000000  -0.000000   0.000000   0.000000   0.004798   0.004577
    27  C   -0.000000  -0.000000  -0.000000   0.000000  -0.047753   0.006790
    28  O    0.000000  -0.000000  -0.000000  -0.000000  -0.022044   0.001059
    29  N    0.000000   0.000000  -0.000000   0.000000   0.270922  -0.033704
    30  C    0.768513  -0.077254  -0.007038   0.407377   0.000000   0.000000
    31  O    7.805681  -0.004743  -0.000250  -0.120564  -0.000000   0.000000
    32  C   -0.004743   4.880341   0.765316   0.427625   0.000000   0.000000
    33  O   -0.000250   0.765316   7.822277  -0.113373  -0.000000   0.000000
    34  N   -0.120564   0.427625  -0.113373   6.375714   0.000000   0.000000
    35  C   -0.000000   0.000000  -0.000000   0.000000   4.963659   0.398970
    36  H    0.000000   0.000000   0.000000   0.000000   0.398970   0.522464
    37  H   -0.000000   0.000000  -0.000000  -0.000000   0.394139  -0.018335
    38  H    0.000000   0.000000  -0.000000  -0.000000   0.403165  -0.029203
    39  C    0.004798  -0.047752  -0.022044   0.270922   0.000000   0.000000
    40  H    0.004576   0.006789   0.001059  -0.033704   0.000000   0.000000
    41  H    0.001863  -0.019438   0.025263  -0.037470   0.000000  -0.000000
    42  H    0.003396   0.005123   0.000904  -0.035017  -0.000000  -0.000000
    43  Cl   0.000000  -0.001106   0.000027   0.000004  -0.000000   0.000000
    44  Cl   0.000026   0.000003   0.000000   0.000004  -0.000000  -0.000000
    45  Cl  -0.000000   0.000001  -0.000000  -0.000000  -0.000001   0.000000
    46  Cl  -0.000000  -0.000023  -0.000000  -0.000000  -0.000001  -0.000000
              37         38         39         40         41         42
     1  C   -0.000002   0.000005   0.000000  -0.000000  -0.000000   0.000000
     2  C   -0.000000   0.000002   0.000001   0.000000   0.000000  -0.000000
     3  C    0.000048   0.000034  -0.000000  -0.000000  -0.000000   0.000000
     4  C    0.000016   0.000468  -0.000000  -0.000000  -0.000000   0.000000
     5  C    0.000773  -0.001625   0.000000   0.000000   0.000000   0.000000
     6  C   -0.000101  -0.000079   0.000000   0.000000  -0.000000  -0.000000
     7  C    0.000003  -0.000004   0.000002  -0.000000   0.000000   0.000000
     8  C    0.008068  -0.000029   0.000000  -0.000000   0.000000  -0.000000
     9  H   -0.000005  -0.000007   0.000000   0.000000  -0.000000  -0.000000
    10  C   -0.000957  -0.000032   0.000000   0.000000  -0.000000  -0.000000
    11  C   -0.000011  -0.000002   0.000000   0.000000  -0.000000  -0.000000
    12  H   -0.000095   0.000000   0.000000  -0.000000  -0.000000   0.000000
    13  C    0.000000   0.000000  -0.000010   0.000006   0.000003  -0.000004
    14  C   -0.000000   0.000000   0.000697   0.000024   0.000048   0.000034
    15  C   -0.000000  -0.000000   0.000077  -0.000004  -0.000011  -0.000002
    16  C    0.000000  -0.000000  -0.000019  -0.000010  -0.000000   0.000002
    17  C   -0.000000   0.000000   0.001667   0.000155   0.000016   0.000468
    18  C   -0.000000  -0.000000  -0.001387  -0.000038  -0.000957  -0.000032
    19  C   -0.000000   0.000000   0.000024   0.000006  -0.000002   0.000005
    20  C    0.000000   0.000000   0.010153  -0.001042   0.000773  -0.001626
    21  C    0.000000  -0.000000   0.003715   0.000045   0.008069  -0.000030
    22  H   -0.000000   0.000000  -0.000052  -0.000002  -0.000095   0.000000
    23  C   -0.000000  -0.000000  -0.003314  -0.000078  -0.000101  -0.000079
    24  H   -0.000000  -0.000000  -0.000257  -0.000014  -0.000005  -0.000007
    25  C    0.008383  -0.006518   0.000000   0.000000   0.000000  -0.000000
    26  O    0.001863   0.003396  -0.000000   0.000000  -0.000000   0.000000
    27  C   -0.019438   0.005123   0.000000   0.000000   0.000000   0.000000
    28  O    0.025264   0.000904  -0.000000   0.000000  -0.000000  -0.000000
    29  N   -0.037470  -0.035017   0.000000   0.000000  -0.000000  -0.000000
    30  C    0.000000  -0.000000  -0.049715  -0.009224   0.008383  -0.006518
    31  O   -0.000000   0.000000   0.004798   0.004576   0.001863   0.003396
    32  C    0.000000   0.000000  -0.047752   0.006789  -0.019438   0.005123
    33  O   -0.000000  -0.000000  -0.022044   0.001059   0.025263   0.000904
    34  N   -0.000000  -0.000000   0.270922  -0.033704  -0.037470  -0.035017
    35  C    0.394139   0.403165   0.000000   0.000000   0.000000  -0.000000
    36  H   -0.018335  -0.029203   0.000000   0.000000  -0.000000  -0.000000
    37  H    0.495446  -0.020120   0.000000  -0.000000   0.000000   0.000000
    38  H   -0.020120   0.521702  -0.000000  -0.000000   0.000000   0.000000
    39  C    0.000000  -0.000000   4.963659   0.398971   0.394139   0.403164
    40  H   -0.000000  -0.000000   0.398971   0.522463  -0.018335  -0.029203
    41  H    0.000000   0.000000   0.394139  -0.018335   0.495446  -0.020120
    42  H    0.000000   0.000000   0.403164  -0.029203  -0.020120   0.521703
    43  Cl   0.000000   0.000000  -0.000001   0.000000  -0.000000   0.000000
    44  Cl  -0.000000   0.000000  -0.000001  -0.000000   0.000000   0.000000
    45  Cl  -0.000000   0.000000  -0.000000   0.000000   0.000000   0.000000
    46  Cl   0.000000   0.000000  -0.000000  -0.000000  -0.000000   0.000000
              43         44         45         46
     1  C    0.013582   0.000066  -0.000009   0.315048
     2  C    0.007725  -0.000544   0.000423  -0.126293
     3  C   -0.006774  -0.006818   0.011715   0.011853
     4  C    0.000463   0.000461  -0.000895  -0.000651
     5  C   -0.002854   0.000034  -0.000081   0.010013
     6  C    0.013243  -0.000028   0.000007  -0.021152
     7  C   -0.000531   0.007451  -0.127224   0.000441
     8  C    0.000037  -0.002833   0.010627  -0.000061
     9  H    0.000235  -0.000000   0.000000   0.006550
    10  C   -0.000028   0.013200  -0.021147   0.000007
    11  C    0.000067   0.013574   0.315449  -0.000009
    12  H   -0.000000   0.000238   0.006378   0.000000
    13  C   -0.127250   0.000442  -0.000532   0.007426
    14  C    0.011714   0.011854  -0.006765  -0.006827
    15  C    0.315458  -0.000009   0.000067   0.013608
    16  C    0.000422  -0.126267   0.007749  -0.000544
    17  C   -0.000893  -0.000653   0.000462   0.000461
    18  C   -0.021131   0.000007  -0.000028   0.013215
    19  C   -0.000009   0.315040   0.013549   0.000066
    20  C   -0.000081   0.010018  -0.002853   0.000034
    21  C    0.010620  -0.000061   0.000037  -0.002834
    22  H    0.006379   0.000000  -0.000000   0.000238
    23  C    0.000007  -0.021168   0.013229  -0.000028
    24  H    0.000000   0.006548   0.000234  -0.000000
    25  C   -0.000023   0.000000  -0.000001  -0.001238
    26  O   -0.000000  -0.000000   0.000000   0.000026
    27  C    0.000001  -0.000023  -0.001106   0.000003
    28  O   -0.000000  -0.000000   0.000027   0.000000
    29  N   -0.000000  -0.000000   0.000004   0.000004
    30  C   -0.000001  -0.001238  -0.000023   0.000000
    31  O    0.000000   0.000026  -0.000000  -0.000000
    32  C   -0.001106   0.000003   0.000001  -0.000023
    33  O    0.000027   0.000000  -0.000000  -0.000000
    34  N    0.000004   0.000004  -0.000000  -0.000000
    35  C   -0.000000  -0.000000  -0.000001  -0.000001
    36  H    0.000000  -0.000000   0.000000  -0.000000
    37  H    0.000000  -0.000000  -0.000000   0.000000
    38  H    0.000000   0.000000   0.000000   0.000000
    39  C   -0.000001  -0.000001  -0.000000  -0.000000
    40  H    0.000000  -0.000000   0.000000  -0.000000
    41  H   -0.000000   0.000000   0.000000  -0.000000
    42  H    0.000000   0.000000   0.000000   0.000000
    43  Cl  16.877074  -0.000000   0.000000  -0.027771
    44  Cl  -0.000000  16.876924  -0.027693   0.000000
    45  Cl   0.000000  -0.027693  16.877017  -0.000000
    46  Cl  -0.027771   0.000000  -0.000000  16.876982
 Mulliken charges:
               1
     1  C    0.070902
     2  C    0.109499
     3  C    0.002311
     4  C    0.057217
     5  C    0.115114
     6  C   -0.293827
     7  C    0.108765
     8  C    0.110927
     9  H    0.150976
    10  C   -0.290769
    11  C    0.068441
    12  H    0.152121
    13  C    0.108821
    14  C    0.002311
    15  C    0.068436
    16  C    0.109444
    17  C    0.057216
    18  C   -0.290809
    19  C    0.070907
    20  C    0.115113
    21  C    0.110928
    22  H    0.152118
    23  C   -0.293787
    24  H    0.150979
    25  C    0.115611
    26  O   -0.327154
    27  C    0.112539
    28  O   -0.333261
    29  N    0.057256
    30  C    0.115608
    31  O   -0.327154
    32  C    0.112541
    33  O   -0.333262
    34  N    0.057256
    35  C   -0.327437
    36  H    0.157559
    37  H    0.162532
    38  H    0.157837
    39  C   -0.327438
    40  H    0.157559
    41  H    0.162532
    42  H    0.157837
    43  Cl  -0.068605
    44  Cl  -0.068554
    45  Cl  -0.068616
    46  Cl  -0.068542
 Sum of Mulliken charges =  -0.00000
 Mulliken charges with hydrogens summed into heavy atoms:
               1
     1  C    0.070902
     2  C    0.109499
     3  C    0.002311
     4  C    0.057217
     5  C    0.115114
     6  C   -0.142852
     7  C    0.108765
     8  C    0.110927
    10  C   -0.138647
    11  C    0.068441
    13  C    0.108821
    14  C    0.002311
    15  C    0.068436
    16  C    0.109444
    17  C    0.057216
    18  C   -0.138691
    19  C    0.070907
    20  C    0.115113
    21  C    0.110928
    23  C   -0.142808
    25  C    0.115611
    26  O   -0.327154
    27  C    0.112539
    28  O   -0.333261
    29  N    0.057256
    30  C    0.115608
    31  O   -0.327154
    32  C    0.112541
    33  O   -0.333262
    34  N    0.057256
    35  C    0.150491
    39  C    0.150491
    43  Cl  -0.068605
    44  Cl  -0.068554
    45  Cl  -0.068616
    46  Cl  -0.068542
 Electronic spatial extent (au):  <R**2>=          20009.2718
 Charge=             -0.0000 electrons
 Dipole moment (field-independent basis, Debye):
    X=             -0.0000    Y=              0.0004    Z=             -0.0462  Tot=              0.0462
 Quadrupole moment (field-independent basis, Debye-Ang):
   XX=           -247.5585   YY=           -247.9244   ZZ=           -229.3229
   XY=              0.1857   XZ=             -0.0002   YZ=              0.0000
 Traceless Quadrupole moment (field-independent basis, Debye-Ang):
   XX=             -5.9565   YY=             -6.3225   ZZ=             12.2790
   XY=              0.1857   XZ=             -0.0002   YZ=              0.0000
 Octapole moment (field-independent basis, Debye-Ang**2):
  XXX=             -0.0001  YYY=              0.0161  ZZZ=              1.3626  XYY=             -0.0000
  XXY=              0.0019  XXZ=             -2.6955  XZZ=              0.0000  YZZ=             -0.0036
  YYZ=             -1.2686  XYZ=            -48.0100
 Hexadecapole moment (field-independent basis, Debye-Ang**3):
 XXXX=         -18033.6810 YYYY=          -6991.7418 ZZZZ=          -1145.4534 XXXY=             -2.7544
 XXXZ=              0.0339 YYYX=              2.7934 YYYZ=             -0.0000 ZZZX=              0.0184
 ZZZY=             -0.0001 XXYY=          -5028.5015 XXZZ=          -3244.3320 YYZZ=          -1345.8298
 XXYZ=              0.0003 YYXZ=              0.0005 ZZXY=              4.1589
 N-N= 4.527551495299D+03 E-N=-1.670785396502D+04  KE= 3.237696103707D+03
 Leave Link  601 at Sun Mar 28 03:52:41 2021, MaxMem=  5242880000 cpu:         6.7
 (Enter /opt/nce/packages/global/g09/l9999.exe)
 1\1\GINC-CN018\SP\RPBEPBE TD-FC\Gen\C26H10Cl4N2O4\PNG4RJV\28-Mar-2021\
 0\\#p PBEPBE chkbasis geom=allcheck Guess=Read int=ultrafine scrf=(SMD
 ,solvent=Dichloromethane) td=(NStates=30) EmpiricalDispersion=GD3BJ\\T
 itle\\0,1\C,0,-2.3063847204,1.4440798626,0.7126583832\C,0,-1.228852072
 9,0.7098547763,0.1792187493\C,0,0.003266769,1.418219327,0.0027450107\C
 ,0,0.0062192844,2.8400929782,0.001764174\C,0,-1.156865936,3.5442016259
 ,0.3845706897\C,0,-2.2768415491,2.8436376436,0.7997829877\C,0,1.232075
 275,0.7041366259,-0.1725579718\C,0,1.1721482097,3.5401797882,-0.380555
 8807\H,0,-3.1404957592,3.3846701132,1.18582756\C,0,2.2892778661,2.8332
 999717,-0.7935219974\C,0,2.3127787754,1.4337222499,-0.7059008301\H,0,3
 .1558883673,3.3699752626,-1.1788111212\C,0,-1.2320058638,-0.7041303716
 ,-0.1725659964\C,0,-0.0031983287,-1.4182193789,0.0026964062\C,0,-2.312
 764921,-1.433702987,-0.7058004817\C,0,1.2289214432,-0.7098611919,0.179
 2106371\C,0,-0.0061686898,-2.8400929813,0.001704763\C,0,-2.289273852,-
 2.8332775795,-0.7934636158\C,0,2.3063984509,-1.444099102,0.7127585594\
 C,0,1.1569006831,-3.5442138218,0.3845324554\C,0,-1.1721132221,-3.54016
 75393,-0.3805946707\H,0,-3.1559298294,-3.3699444013,-1.1786622911\C,0,
 2.2768452836,-2.8436599432,0.7998414882\H,0,3.1404537869,-3.3847007597
 ,1.1859765513\C,0,-1.1631340133,5.0226505194,0.4029626323\O,0,-2.13983
 8691,5.6820007257,0.7552454982\C,0,1.1923649456,5.0202549143,-0.402143
 6881\O,0,2.1846204187,5.6588837974,-0.7478873305\N,0,0.0113525184,5.66
 7272194,-0.0058172194\C,0,1.163154263,-5.0226627695,0.4029226523\O,0,2
 .1398399807,-5.6820228309,0.7552396514\C,0,-1.1923444512,-5.0202424671
 ,-0.4021842362\O,0,-2.1846180694,-5.6588612915,-0.747894366\N,0,-0.011
 338472,-5.6672721447,-0.0058586563\C,0,-0.0174483969,7.1300789475,-0.0
 00913147\H,0,-0.8467266782,7.4858833159,-0.6247195899\H,0,0.936099475,
 7.4885807521,-0.3963277084\H,0,-0.1635984365,7.4992757745,1.0226639188
 \C,0,0.0174415112,-7.1300792469,-0.0009379633\H,0,0.8467143858,-7.4859
 025668,-0.6247407738\H,0,-0.9361116812,-7.4885718897,-0.3963479954\H,0
 ,0.1635867936,-7.499266511,1.0226432339\Cl,0,-3.6876107829,-0.64488313
 23,-1.4107424871\Cl,0,3.6839241059,-0.6611999434,1.4189715248\Cl,0,3.6
 874635524,0.644947295,-1.4112050061\Cl,0,-3.6840717279,0.6611363902,1.
 4185094972\\Version=ES64L-G09RevE.01\State=1-A\HF=-3246.4164774\RMSD=6
 .165e-09\PG=C01 [X(C26H10Cl4N2O4)]\\@


 Standing in the middle of the road is very dangerous;
 you get knocked down by the traffic from both sides.
                                -- Margaret Thatcher
 Job cpu time:       1 days 16 hours 11 minutes 14.9 seconds.
 File lengths (MBytes):  RWF=   5620 Int=      0 D2E=      0 Chk=   1295 Scr=      1
 Normal termination of Gaussian 09 at Sun Mar 28 03:52:43 2021.
