 Entering Gaussian System, Link 0=g09
 Input=/home/png4rjv/fotokatalizis/benchmark/OPCs/PDI_2_CAM-B3LYP-D3_def2TZVP.gjf
 Output=/home/png4rjv/fotokatalizis/benchmark/OPCs/PDI_2_CAM-B3LYP-D3_def2TZVP.log
 Initial command:
 /opt/nce/packages/global/g09/l1.exe "/home/png4rjv/fotokatalizis/benchmark/OPCs/PDI_2_CAM-B3LYP-D3_def2TZVP/Gau-25031.inp" -scrdir="/home/png4rjv/fotokatalizis/benchmark/OPCs/PDI_2_CAM-B3LYP-D3_def2TZVP/"
 Default is to use a total of  12 processors:
                               12 via shared-memory
                                1 via Linda
 Entering Link 1 = /opt/nce/packages/global/g09/l1.exe PID=     25032.
  
 Copyright (c) 1988,1990,1992,1993,1995,1998,2003,2009,2015,
            Gaussian, Inc.  All Rights Reserved.
  
 This is part of the Gaussian(R) 09 program.  It is based on
 the Gaussian(R) 03 system (copyright 2003, Gaussian, Inc.),
 the Gaussian(R) 98 system (copyright 1998, Gaussian, Inc.),
 the Gaussian(R) 94 system (copyright 1995, Gaussian, Inc.),
 the Gaussian 92(TM) system (copyright 1992, Gaussian, Inc.),
 the Gaussian 90(TM) system (copyright 1990, Gaussian, Inc.),
 the Gaussian 88(TM) system (copyright 1988, Gaussian, Inc.),
 the Gaussian 86(TM) system (copyright 1986, Carnegie Mellon
 University), and the Gaussian 82(TM) system (copyright 1983,
 Carnegie Mellon University). Gaussian is a federally registered
 trademark of Gaussian, Inc.
  
 This software contains proprietary and confidential information,
 including trade secrets, belonging to Gaussian, Inc.
  
 This software is provided under written license and may be
 used, copied, transmitted, or stored only in accord with that
 written license.
  
 The following legend is applicable only to US Government
 contracts under FAR:
  
                    RESTRICTED RIGHTS LEGEND
  
 Use, reproduction and disclosure by the US Government is
 subject to restrictions as set forth in subparagraphs (a)
 and (c) of the Commercial Computer Software - Restricted
 Rights clause in FAR 52.227-19.
  
 Gaussian, Inc.
 340 Quinnipiac St., Bldg. 40, Wallingford CT 06492
  
  
 ---------------------------------------------------------------
 Warning -- This program may not be used in any manner that
 competes with the business of Gaussian, Inc. or will provide
 assistance to any competitor of Gaussian, Inc.  The licensee
 of this program is prohibited from giving any competitor of
 Gaussian, Inc. access to this program.  By using this program,
 the user acknowledges that Gaussian, Inc. is engaged in the
 business of creating and licensing software in the field of
 computational chemistry and represents and warrants to the
 licensee that it is not a competitor of Gaussian, Inc. and that
 it will not use this program in any manner prohibited above.
 ---------------------------------------------------------------
  

 Cite this work as:
 Gaussian 09, Revision E.01,
 M. J. Frisch, G. W. Trucks, H. B. Schlegel, G. E. Scuseria, 
 M. A. Robb, J. R. Cheeseman, G. Scalmani, V. Barone, B. Mennucci, 
 G. A. Petersson, H. Nakatsuji, M. Caricato, X. Li, H. P. Hratchian, 
 A. F. Izmaylov, J. Bloino, G. Zheng, J. L. Sonnenberg, M. Hada, 
 M. Ehara, K. Toyota, R. Fukuda, J. Hasegawa, M. Ishida, T. Nakajima, 
 Y. Honda, O. Kitao, H. Nakai, T. Vreven, J. A. Montgomery, Jr., 
 J. E. Peralta, F. Ogliaro, M. Bearpark, J. J. Heyd, E. Brothers, 
 K. N. Kudin, V. N. Staroverov, T. Keith, R. Kobayashi, J. Normand, 
 K. Raghavachari, A. Rendell, J. C. Burant, S. S. Iyengar, J. Tomasi, 
 M. Cossi, N. Rega, J. M. Millam, M. Klene, J. E. Knox, J. B. Cross, 
 V. Bakken, C. Adamo, J. Jaramillo, R. Gomperts, R. E. Stratmann, 
 O. Yazyev, A. J. Austin, R. Cammi, C. Pomelli, J. W. Ochterski, 
 R. L. Martin, K. Morokuma, V. G. Zakrzewski, G. A. Voth, 
 P. Salvador, J. J. Dannenberg, S. Dapprich, A. D. Daniels, 
 O. Farkas, J. B. Foresman, J. V. Ortiz, J. Cioslowski, 
 and D. J. Fox, Gaussian, Inc., Wallingford CT, 2013.
 
 ******************************************
 Gaussian 09:  ES64L-G09RevE.01 30-Nov-2015
                25-Feb-2021 
 ******************************************
 %chk=cp.chk
 Default route:  MaxDisk=500GB
 ----------------------------------------------------------------------
 #p cam-b3lyp/def2TZVP opt freq=noraman nosymm int=ultrafine scrf=(SMD,
 solvent=Dichloromethane) EmpiricalDispersion=GD3BJ
 ----------------------------------------------------------------------
 1/14=-1,18=20,19=15,26=4,38=1/1,3;
 2/9=110,12=2,15=1,17=6,18=5,40=1/2;
 3/5=44,7=101,11=2,16=1,25=1,30=1,70=32201,71=1,72=9,74=-40,75=-5,124=41/1,2,3;
 4//1;
 5/5=2,38=5,53=9/2;
 6/7=2,8=2,9=2,10=2,28=1/1;
 7/30=1/1,2,3,16;
 1/14=-1,18=20,19=15,26=4/3(2);
 2/9=110,15=1/2;
 99//99;
 2/9=110,15=1/2;
 3/5=44,7=101,11=2,16=1,25=1,30=1,70=32205,71=1,72=9,74=-40,75=-5,124=41/1,2,3;
 4/5=5,16=3,69=1/1;
 5/5=2,38=5,53=9/2;
 7/30=1/1,2,3,16;
 1/14=-1,18=20,19=15,26=4/3(-5);
 2/9=110,15=1/2;
 6/7=2,8=2,9=2,10=2,19=2,28=1/1;
 99/9=1/99;
 Leave Link    1 at Thu Feb 25 05:33:25 2021, MaxMem=           0 cpu:         9.5
 (Enter /opt/nce/packages/global/g09/l101.exe)
 -----
 Title
 -----
 Symbolic Z-matrix:
 Charge =  0 Multiplicity = 1
 C                    -2.31367   1.44465   0.70181 
 C                    -1.23241   0.71401   0.17648 
 C                     0.0032    1.42134  -0.00073 
 C                     0.00634   2.84276  -0.00082 
 C                    -1.15794   3.54791   0.38299 
 C                    -2.27981   2.84997   0.7892 
 C                     1.23546   0.7084   -0.17758 
 C                     1.17342   3.54399  -0.38411 
 H                    -3.14405   3.39784   1.16502 
 C                     2.29192   2.84     -0.79019 
 C                     2.31963   1.43462  -0.70302 
 H                     3.15884   3.38361  -1.16583 
 C                    -1.23546  -0.7084   -0.17758 
 C                    -0.0032   -1.42134  -0.00073 
 C                    -2.31963  -1.43462  -0.70302 
 C                     1.23241  -0.71401   0.17648 
 C                    -0.00634  -2.84276  -0.00082 
 C                    -2.29192  -2.84     -0.79019 
 C                     2.31367  -1.44465   0.70181 
 C                     1.15794  -3.54791   0.38299 
 C                    -1.17342  -3.54399  -0.38411 
 H                    -3.15884  -3.38361  -1.16583 
 C                     2.27981  -2.84997   0.7892 
 H                     3.14405  -3.39784   1.16502 
 C                    -1.16296   5.03327   0.40626 
 O                    -2.13019   5.6814    0.757 
 C                     1.1926    5.03106  -0.40886 
 O                     2.17213   5.65865  -0.76213 
 N                     0.01404   5.67436  -0.00053 
 C                     1.16296  -5.03327   0.40626 
 O                     2.13019  -5.6814    0.757 
 C                    -1.1926   -5.03106  -0.40886 
 O                    -2.17213  -5.65865  -0.76213 
 N                    -0.01404  -5.67436  -0.00053 
 C                    -0.01404   7.13693   0.01219 
 H                    -0.81554   7.50133  -0.64542 
 H                     0.95967   7.49584  -0.33318 
 H                    -0.22104   7.49844   1.02917 
 C                     0.01404  -7.13693   0.01219 
 H                     0.81554  -7.50133  -0.64542 
 H                    -0.95967  -7.49584  -0.33318 
 H                     0.22104  -7.49844   1.02917 
 Cl                   -3.70579  -0.65068  -1.40011 
 Cl                    3.70322  -0.66649   1.39854 
 Cl                    3.70579   0.65068  -1.40011 
 Cl                   -3.70322   0.66649   1.39854 
 
 NAtoms=     46 NQM=       46 NQMF=       0 NMMI=      0 NMMIF=      0
                NMic=       0 NMicF=      0.
                    Isotopes and Nuclear Properties:
 (Nuclear quadrupole moments (NQMom) in fm**2, nuclear magnetic moments (NMagM)
  in nuclear magnetons)

  Atom         1           2           3           4           5           6           7           8           9          10
 IAtWgt=          12          12          12          12          12          12          12          12           1          12
 AtmWgt=  12.0000000  12.0000000  12.0000000  12.0000000  12.0000000  12.0000000  12.0000000  12.0000000   1.0078250  12.0000000
 NucSpn=           0           0           0           0           0           0           0           0           1           0
 AtZEff=   0.0000000   0.0000000   0.0000000   0.0000000   0.0000000   0.0000000   0.0000000   0.0000000   0.0000000   0.0000000
 NQMom=    0.0000000   0.0000000   0.0000000   0.0000000   0.0000000   0.0000000   0.0000000   0.0000000   0.0000000   0.0000000
 NMagM=    0.0000000   0.0000000   0.0000000   0.0000000   0.0000000   0.0000000   0.0000000   0.0000000   2.7928460   0.0000000
 AtZNuc=   6.0000000   6.0000000   6.0000000   6.0000000   6.0000000   6.0000000   6.0000000   6.0000000   1.0000000   6.0000000

  Atom        11          12          13          14          15          16          17          18          19          20
 IAtWgt=          12           1          12          12          12          12          12          12          12          12
 AtmWgt=  12.0000000   1.0078250  12.0000000  12.0000000  12.0000000  12.0000000  12.0000000  12.0000000  12.0000000  12.0000000
 NucSpn=           0           1           0           0           0           0           0           0           0           0
 AtZEff=   0.0000000   0.0000000   0.0000000   0.0000000   0.0000000   0.0000000   0.0000000   0.0000000   0.0000000   0.0000000
 NQMom=    0.0000000   0.0000000   0.0000000   0.0000000   0.0000000   0.0000000   0.0000000   0.0000000   0.0000000   0.0000000
 NMagM=    0.0000000   2.7928460   0.0000000   0.0000000   0.0000000   0.0000000   0.0000000   0.0000000   0.0000000   0.0000000
 AtZNuc=   6.0000000   1.0000000   6.0000000   6.0000000   6.0000000   6.0000000   6.0000000   6.0000000   6.0000000   6.0000000

  Atom        21          22          23          24          25          26          27          28          29          30
 IAtWgt=          12           1          12           1          12          16          12          16          14          12
 AtmWgt=  12.0000000   1.0078250  12.0000000   1.0078250  12.0000000  15.9949146  12.0000000  15.9949146  14.0030740  12.0000000
 NucSpn=           0           1           0           1           0           0           0           0           2           0
 AtZEff=   0.0000000   0.0000000   0.0000000   0.0000000   0.0000000   0.0000000   0.0000000   0.0000000   0.0000000   0.0000000
 NQMom=    0.0000000   0.0000000   0.0000000   0.0000000   0.0000000   0.0000000   0.0000000   0.0000000   2.0440000   0.0000000
 NMagM=    0.0000000   2.7928460   0.0000000   2.7928460   0.0000000   0.0000000   0.0000000   0.0000000   0.4037610   0.0000000
 AtZNuc=   6.0000000   1.0000000   6.0000000   1.0000000   6.0000000   8.0000000   6.0000000   8.0000000   7.0000000   6.0000000

  Atom        31          32          33          34          35          36          37          38          39          40
 IAtWgt=          16          12          16          14          12           1           1           1          12           1
 AtmWgt=  15.9949146  12.0000000  15.9949146  14.0030740  12.0000000   1.0078250   1.0078250   1.0078250  12.0000000   1.0078250
 NucSpn=           0           0           0           2           0           1           1           1           0           1
 AtZEff=   0.0000000   0.0000000   0.0000000   0.0000000   0.0000000   0.0000000   0.0000000   0.0000000   0.0000000   0.0000000
 NQMom=    0.0000000   0.0000000   0.0000000   2.0440000   0.0000000   0.0000000   0.0000000   0.0000000   0.0000000   0.0000000
 NMagM=    0.0000000   0.0000000   0.0000000   0.4037610   0.0000000   2.7928460   2.7928460   2.7928460   0.0000000   2.7928460
 AtZNuc=   8.0000000   6.0000000   8.0000000   7.0000000   6.0000000   1.0000000   1.0000000   1.0000000   6.0000000   1.0000000

  Atom        41          42          43          44          45          46
 IAtWgt=           1           1          35          35          35          35
 AtmWgt=   1.0078250   1.0078250  34.9688527  34.9688527  34.9688527  34.9688527
 NucSpn=           1           1           3           3           3           3
 AtZEff=   0.0000000   0.0000000   0.0000000   0.0000000   0.0000000   0.0000000
 NQMom=    0.0000000   0.0000000  -8.1650000  -8.1650000  -8.1650000  -8.1650000
 NMagM=    2.7928460   2.7928460   0.8218740   0.8218740   0.8218740   0.8218740
 AtZNuc=   1.0000000   1.0000000  17.0000000  17.0000000  17.0000000  17.0000000
 Leave Link  101 at Thu Feb 25 05:33:27 2021, MaxMem=  5242880000 cpu:         7.7
 (Enter /opt/nce/packages/global/g09/l103.exe)

 GradGradGradGradGradGradGradGradGradGradGradGradGradGradGradGradGradGrad
 Berny optimization.
 Initialization pass.
                           ----------------------------
                           !    Initial Parameters    !
                           ! (Angstroms and Degrees)  !
 --------------------------                            --------------------------
 ! Name  Definition              Value          Derivative Info.                !
 --------------------------------------------------------------------------------
 ! R1    R(1,2)                  1.4068         estimate D2E/DX2                !
 ! R2    R(1,6)                  1.4084         estimate D2E/DX2                !
 ! R3    R(1,46)                 1.7383         estimate D2E/DX2                !
 ! R4    R(2,3)                  1.4347         estimate D2E/DX2                !
 ! R5    R(2,13)                 1.4658         estimate D2E/DX2                !
 ! R6    R(3,4)                  1.4214         estimate D2E/DX2                !
 ! R7    R(3,7)                  1.4346         estimate D2E/DX2                !
 ! R8    R(4,5)                  1.4142         estimate D2E/DX2                !
 ! R9    R(4,8)                  1.4145         estimate D2E/DX2                !
 ! R10   R(5,6)                  1.3823         estimate D2E/DX2                !
 ! R11   R(5,25)                 1.4856         estimate D2E/DX2                !
 ! R12   R(6,9)                  1.0901         estimate D2E/DX2                !
 ! R13   R(7,11)                 1.4067         estimate D2E/DX2                !
 ! R14   R(7,16)                 1.4658         estimate D2E/DX2                !
 ! R15   R(8,10)                 1.3826         estimate D2E/DX2                !
 ! R16   R(8,27)                 1.4874         estimate D2E/DX2                !
 ! R17   R(10,11)                1.4084         estimate D2E/DX2                !
 ! R18   R(10,12)                1.09           estimate D2E/DX2                !
 ! R19   R(11,45)                1.7384         estimate D2E/DX2                !
 ! R20   R(13,14)                1.4346         estimate D2E/DX2                !
 ! R21   R(13,15)                1.4067         estimate D2E/DX2                !
 ! R22   R(14,16)                1.4347         estimate D2E/DX2                !
 ! R23   R(14,17)                1.4214         estimate D2E/DX2                !
 ! R24   R(15,18)                1.4084         estimate D2E/DX2                !
 ! R25   R(15,43)                1.7384         estimate D2E/DX2                !
 ! R26   R(16,19)                1.4068         estimate D2E/DX2                !
 ! R27   R(17,20)                1.4142         estimate D2E/DX2                !
 ! R28   R(17,21)                1.4145         estimate D2E/DX2                !
 ! R29   R(18,21)                1.3826         estimate D2E/DX2                !
 ! R30   R(18,22)                1.09           estimate D2E/DX2                !
 ! R31   R(19,23)                1.4084         estimate D2E/DX2                !
 ! R32   R(19,44)                1.7383         estimate D2E/DX2                !
 ! R33   R(20,23)                1.3823         estimate D2E/DX2                !
 ! R34   R(20,30)                1.4856         estimate D2E/DX2                !
 ! R35   R(21,32)                1.4874         estimate D2E/DX2                !
 ! R36   R(23,24)                1.0901         estimate D2E/DX2                !
 ! R37   R(25,26)                1.216          estimate D2E/DX2                !
 ! R38   R(25,29)                1.4006         estimate D2E/DX2                !
 ! R39   R(27,28)                1.2158         estimate D2E/DX2                !
 ! R40   R(27,29)                1.4034         estimate D2E/DX2                !
 ! R41   R(29,35)                1.4629         estimate D2E/DX2                !
 ! R42   R(30,31)                1.216          estimate D2E/DX2                !
 ! R43   R(30,34)                1.4006         estimate D2E/DX2                !
 ! R44   R(32,33)                1.2158         estimate D2E/DX2                !
 ! R45   R(32,34)                1.4034         estimate D2E/DX2                !
 ! R46   R(34,39)                1.4629         estimate D2E/DX2                !
 ! R47   R(35,36)                1.0989         estimate D2E/DX2                !
 ! R48   R(35,37)                1.0937         estimate D2E/DX2                !
 ! R49   R(35,38)                1.099          estimate D2E/DX2                !
 ! R50   R(39,40)                1.0989         estimate D2E/DX2                !
 ! R51   R(39,41)                1.0937         estimate D2E/DX2                !
 ! R52   R(39,42)                1.099          estimate D2E/DX2                !
 ! A1    A(2,1,6)              121.5286         estimate D2E/DX2                !
 ! A2    A(2,1,46)             122.1118         estimate D2E/DX2                !
 ! A3    A(6,1,46)             116.1684         estimate D2E/DX2                !
 ! A4    A(1,2,3)              116.8731         estimate D2E/DX2                !
 ! A5    A(1,2,13)             126.3423         estimate D2E/DX2                !
 ! A6    A(3,2,13)             116.767          estimate D2E/DX2                !
 ! A7    A(2,3,4)              119.6641         estimate D2E/DX2                !
 ! A8    A(2,3,7)              120.6624         estimate D2E/DX2                !
 ! A9    A(4,3,7)              119.6736         estimate D2E/DX2                !
 ! A10   A(3,4,5)              119.7866         estimate D2E/DX2                !
 ! A11   A(3,4,8)              119.8412         estimate D2E/DX2                !
 ! A12   A(5,4,8)              120.3722         estimate D2E/DX2                !
 ! A13   A(4,5,6)              119.7457         estimate D2E/DX2                !
 ! A14   A(4,5,25)             120.3696         estimate D2E/DX2                !
 ! A15   A(6,5,25)             119.835          estimate D2E/DX2                !
 ! A16   A(1,6,5)              120.3364         estimate D2E/DX2                !
 ! A17   A(1,6,9)              120.252          estimate D2E/DX2                !
 ! A18   A(5,6,9)              119.4062         estimate D2E/DX2                !
 ! A19   A(3,7,11)             116.84           estimate D2E/DX2                !
 ! A20   A(3,7,16)             116.7876         estimate D2E/DX2                !
 ! A21   A(11,7,16)            126.3544         estimate D2E/DX2                !
 ! A22   A(4,8,10)             119.6471         estimate D2E/DX2                !
 ! A23   A(4,8,27)             120.7171         estimate D2E/DX2                !
 ! A24   A(10,8,27)            119.5874         estimate D2E/DX2                !
 ! A25   A(8,10,11)            120.3873         estimate D2E/DX2                !
 ! A26   A(8,10,12)            119.3856         estimate D2E/DX2                !
 ! A27   A(11,10,12)           120.2215         estimate D2E/DX2                !
 ! A28   A(7,11,10)            121.5411         estimate D2E/DX2                !
 ! A29   A(7,11,45)            122.1087         estimate D2E/DX2                !
 ! A30   A(10,11,45)           116.1596         estimate D2E/DX2                !
 ! A31   A(2,13,14)            116.7876         estimate D2E/DX2                !
 ! A32   A(2,13,15)            126.3544         estimate D2E/DX2                !
 ! A33   A(14,13,15)           116.84           estimate D2E/DX2                !
 ! A34   A(13,14,16)           120.6624         estimate D2E/DX2                !
 ! A35   A(13,14,17)           119.6736         estimate D2E/DX2                !
 ! A36   A(16,14,17)           119.6641         estimate D2E/DX2                !
 ! A37   A(13,15,18)           121.5411         estimate D2E/DX2                !
 ! A38   A(13,15,43)           122.1087         estimate D2E/DX2                !
 ! A39   A(18,15,43)           116.1596         estimate D2E/DX2                !
 ! A40   A(7,16,14)            116.767          estimate D2E/DX2                !
 ! A41   A(7,16,19)            126.3423         estimate D2E/DX2                !
 ! A42   A(14,16,19)           116.8731         estimate D2E/DX2                !
 ! A43   A(14,17,20)           119.7866         estimate D2E/DX2                !
 ! A44   A(14,17,21)           119.8412         estimate D2E/DX2                !
 ! A45   A(20,17,21)           120.3722         estimate D2E/DX2                !
 ! A46   A(15,18,21)           120.3873         estimate D2E/DX2                !
 ! A47   A(15,18,22)           120.2215         estimate D2E/DX2                !
 ! A48   A(21,18,22)           119.3856         estimate D2E/DX2                !
 ! A49   A(16,19,23)           121.5286         estimate D2E/DX2                !
 ! A50   A(16,19,44)           122.1118         estimate D2E/DX2                !
 ! A51   A(23,19,44)           116.1684         estimate D2E/DX2                !
 ! A52   A(17,20,23)           119.7457         estimate D2E/DX2                !
 ! A53   A(17,20,30)           120.3696         estimate D2E/DX2                !
 ! A54   A(23,20,30)           119.835          estimate D2E/DX2                !
 ! A55   A(17,21,18)           119.6471         estimate D2E/DX2                !
 ! A56   A(17,21,32)           120.7171         estimate D2E/DX2                !
 ! A57   A(18,21,32)           119.5874         estimate D2E/DX2                !
 ! A58   A(19,23,20)           120.3364         estimate D2E/DX2                !
 ! A59   A(19,23,24)           120.252          estimate D2E/DX2                !
 ! A60   A(20,23,24)           119.4062         estimate D2E/DX2                !
 ! A61   A(5,25,26)            122.6931         estimate D2E/DX2                !
 ! A62   A(5,25,29)            116.7607         estimate D2E/DX2                !
 ! A63   A(26,25,29)           120.5463         estimate D2E/DX2                !
 ! A64   A(8,27,28)            122.0941         estimate D2E/DX2                !
 ! A65   A(8,27,29)            116.2707         estimate D2E/DX2                !
 ! A66   A(28,27,29)           121.6352         estimate D2E/DX2                !
 ! A67   A(25,29,27)           125.4774         estimate D2E/DX2                !
 ! A68   A(25,29,35)           116.0378         estimate D2E/DX2                !
 ! A69   A(27,29,35)           118.4847         estimate D2E/DX2                !
 ! A70   A(20,30,31)           122.6931         estimate D2E/DX2                !
 ! A71   A(20,30,34)           116.7607         estimate D2E/DX2                !
 ! A72   A(31,30,34)           120.5463         estimate D2E/DX2                !
 ! A73   A(21,32,33)           122.0941         estimate D2E/DX2                !
 ! A74   A(21,32,34)           116.2707         estimate D2E/DX2                !
 ! A75   A(33,32,34)           121.6352         estimate D2E/DX2                !
 ! A76   A(30,34,32)           125.4774         estimate D2E/DX2                !
 ! A77   A(30,34,39)           116.0378         estimate D2E/DX2                !
 ! A78   A(32,34,39)           118.4847         estimate D2E/DX2                !
 ! A79   A(29,35,36)           109.8958         estimate D2E/DX2                !
 ! A80   A(29,35,37)           107.9542         estimate D2E/DX2                !
 ! A81   A(29,35,38)           109.9088         estimate D2E/DX2                !
 ! A82   A(36,35,37)           110.5822         estimate D2E/DX2                !
 ! A83   A(36,35,38)           107.8964         estimate D2E/DX2                !
 ! A84   A(37,35,38)           110.6073         estimate D2E/DX2                !
 ! A85   A(34,39,40)           109.8958         estimate D2E/DX2                !
 ! A86   A(34,39,41)           107.9542         estimate D2E/DX2                !
 ! A87   A(34,39,42)           109.9088         estimate D2E/DX2                !
 ! A88   A(40,39,41)           110.5822         estimate D2E/DX2                !
 ! A89   A(40,39,42)           107.8964         estimate D2E/DX2                !
 ! A90   A(41,39,42)           110.6073         estimate D2E/DX2                !
 ! D1    D(6,1,2,3)             12.8378         estimate D2E/DX2                !
 ! D2    D(6,1,2,13)          -168.7469         estimate D2E/DX2                !
 ! D3    D(46,1,2,3)          -161.9439         estimate D2E/DX2                !
 ! D4    D(46,1,2,13)           16.4715         estimate D2E/DX2                !
 ! D5    D(2,1,6,5)             -1.4493         estimate D2E/DX2                !
 ! D6    D(2,1,6,9)            177.6935         estimate D2E/DX2                !
 ! D7    D(46,1,6,5)           173.6266         estimate D2E/DX2                !
 ! D8    D(46,1,6,9)            -7.2306         estimate D2E/DX2                !
 ! D9    D(1,2,3,4)            -16.9653         estimate D2E/DX2                !
 ! D10   D(1,2,3,7)            163.0229         estimate D2E/DX2                !
 ! D11   D(13,2,3,4)           164.4643         estimate D2E/DX2                !
 ! D12   D(13,2,3,7)           -15.5475         estimate D2E/DX2                !
 ! D13   D(1,2,13,14)         -147.3207         estimate D2E/DX2                !
 ! D14   D(1,2,13,15)           34.2768         estimate D2E/DX2                !
 ! D15   D(3,2,13,14)           31.0961         estimate D2E/DX2                !
 ! D16   D(3,2,13,15)         -147.3064         estimate D2E/DX2                !
 ! D17   D(2,3,4,5)             10.0537         estimate D2E/DX2                !
 ! D18   D(2,3,4,8)           -169.9678         estimate D2E/DX2                !
 ! D19   D(7,3,4,5)           -169.9347         estimate D2E/DX2                !
 ! D20   D(7,3,4,8)             10.0438         estimate D2E/DX2                !
 ! D21   D(2,3,7,11)           163.037          estimate D2E/DX2                !
 ! D22   D(2,3,7,16)           -15.5211         estimate D2E/DX2                !
 ! D23   D(4,3,7,11)           -16.9748         estimate D2E/DX2                !
 ! D24   D(4,3,7,16)           164.4671         estimate D2E/DX2                !
 ! D25   D(3,4,5,6)              1.6918         estimate D2E/DX2                !
 ! D26   D(3,4,5,25)           179.1246         estimate D2E/DX2                !
 ! D27   D(8,4,5,6)           -178.2865         estimate D2E/DX2                !
 ! D28   D(8,4,5,25)            -0.8537         estimate D2E/DX2                !
 ! D29   D(3,4,8,10)             1.713          estimate D2E/DX2                !
 ! D30   D(3,4,8,27)           179.1726         estimate D2E/DX2                !
 ! D31   D(5,4,8,10)          -178.3086         estimate D2E/DX2                !
 ! D32   D(5,4,8,27)            -0.849          estimate D2E/DX2                !
 ! D33   D(4,5,6,1)             -6.0772         estimate D2E/DX2                !
 ! D34   D(4,5,6,9)            174.7727         estimate D2E/DX2                !
 ! D35   D(25,5,6,1)           176.4762         estimate D2E/DX2                !
 ! D36   D(25,5,6,9)            -2.6739         estimate D2E/DX2                !
 ! D37   D(4,5,25,26)         -178.3477         estimate D2E/DX2                !
 ! D38   D(4,5,25,29)            1.6806         estimate D2E/DX2                !
 ! D39   D(6,5,25,26)           -0.9172         estimate D2E/DX2                !
 ! D40   D(6,5,25,29)          179.1111         estimate D2E/DX2                !
 ! D41   D(3,7,11,10)           12.8636         estimate D2E/DX2                !
 ! D42   D(3,7,11,45)         -161.9253         estimate D2E/DX2                !
 ! D43   D(16,7,11,10)        -168.7346         estimate D2E/DX2                !
 ! D44   D(16,7,11,45)          16.4765         estimate D2E/DX2                !
 ! D45   D(3,7,16,14)           31.0961         estimate D2E/DX2                !
 ! D46   D(3,7,16,19)         -147.3207         estimate D2E/DX2                !
 ! D47   D(11,7,16,14)        -147.3064         estimate D2E/DX2                !
 ! D48   D(11,7,16,19)          34.2768         estimate D2E/DX2                !
 ! D49   D(4,8,10,11)           -6.0852         estimate D2E/DX2                !
 ! D50   D(4,8,10,12)          174.774          estimate D2E/DX2                !
 ! D51   D(27,8,10,11)         176.4263         estimate D2E/DX2                !
 ! D52   D(27,8,10,12)          -2.7146         estimate D2E/DX2                !
 ! D53   D(4,8,27,28)         -178.3541         estimate D2E/DX2                !
 ! D54   D(4,8,27,29)            1.6544         estimate D2E/DX2                !
 ! D55   D(10,8,27,28)          -0.893          estimate D2E/DX2                !
 ! D56   D(10,8,27,29)         179.1155         estimate D2E/DX2                !
 ! D57   D(8,10,11,7)           -1.4644         estimate D2E/DX2                !
 ! D58   D(8,10,11,45)         173.6186         estimate D2E/DX2                !
 ! D59   D(12,10,11,7)         177.6692         estimate D2E/DX2                !
 ! D60   D(12,10,11,45)         -7.2478         estimate D2E/DX2                !
 ! D61   D(2,13,14,16)         -15.5211         estimate D2E/DX2                !
 ! D62   D(2,13,14,17)         164.4671         estimate D2E/DX2                !
 ! D63   D(15,13,14,16)        163.037          estimate D2E/DX2                !
 ! D64   D(15,13,14,17)        -16.9748         estimate D2E/DX2                !
 ! D65   D(2,13,15,18)        -168.7346         estimate D2E/DX2                !
 ! D66   D(2,13,15,43)          16.4765         estimate D2E/DX2                !
 ! D67   D(14,13,15,18)         12.8636         estimate D2E/DX2                !
 ! D68   D(14,13,15,43)       -161.9253         estimate D2E/DX2                !
 ! D69   D(13,14,16,7)         -15.5475         estimate D2E/DX2                !
 ! D70   D(13,14,16,19)        163.0229         estimate D2E/DX2                !
 ! D71   D(17,14,16,7)         164.4643         estimate D2E/DX2                !
 ! D72   D(17,14,16,19)        -16.9653         estimate D2E/DX2                !
 ! D73   D(13,14,17,20)       -169.9347         estimate D2E/DX2                !
 ! D74   D(13,14,17,21)         10.0438         estimate D2E/DX2                !
 ! D75   D(16,14,17,20)         10.0537         estimate D2E/DX2                !
 ! D76   D(16,14,17,21)       -169.9678         estimate D2E/DX2                !
 ! D77   D(13,15,18,21)         -1.4644         estimate D2E/DX2                !
 ! D78   D(13,15,18,22)        177.6692         estimate D2E/DX2                !
 ! D79   D(43,15,18,21)        173.6186         estimate D2E/DX2                !
 ! D80   D(43,15,18,22)         -7.2478         estimate D2E/DX2                !
 ! D81   D(7,16,19,23)        -168.7469         estimate D2E/DX2                !
 ! D82   D(7,16,19,44)          16.4715         estimate D2E/DX2                !
 ! D83   D(14,16,19,23)         12.8378         estimate D2E/DX2                !
 ! D84   D(14,16,19,44)       -161.9439         estimate D2E/DX2                !
 ! D85   D(14,17,20,23)          1.6918         estimate D2E/DX2                !
 ! D86   D(14,17,20,30)        179.1246         estimate D2E/DX2                !
 ! D87   D(21,17,20,23)       -178.2865         estimate D2E/DX2                !
 ! D88   D(21,17,20,30)         -0.8537         estimate D2E/DX2                !
 ! D89   D(14,17,21,18)          1.713          estimate D2E/DX2                !
 ! D90   D(14,17,21,32)        179.1726         estimate D2E/DX2                !
 ! D91   D(20,17,21,18)       -178.3086         estimate D2E/DX2                !
 ! D92   D(20,17,21,32)         -0.849          estimate D2E/DX2                !
 ! D93   D(15,18,21,17)         -6.0852         estimate D2E/DX2                !
 ! D94   D(15,18,21,32)        176.4263         estimate D2E/DX2                !
 ! D95   D(22,18,21,17)        174.774          estimate D2E/DX2                !
 ! D96   D(22,18,21,32)         -2.7146         estimate D2E/DX2                !
 ! D97   D(16,19,23,20)         -1.4493         estimate D2E/DX2                !
 ! D98   D(16,19,23,24)        177.6935         estimate D2E/DX2                !
 ! D99   D(44,19,23,20)        173.6266         estimate D2E/DX2                !
 ! D100  D(44,19,23,24)         -7.2306         estimate D2E/DX2                !
 ! D101  D(17,20,23,19)         -6.0772         estimate D2E/DX2                !
 ! D102  D(17,20,23,24)        174.7727         estimate D2E/DX2                !
 ! D103  D(30,20,23,19)        176.4762         estimate D2E/DX2                !
 ! D104  D(30,20,23,24)         -2.6739         estimate D2E/DX2                !
 ! D105  D(17,20,30,31)       -178.3477         estimate D2E/DX2                !
 ! D106  D(17,20,30,34)          1.6806         estimate D2E/DX2                !
 ! D107  D(23,20,30,31)         -0.9172         estimate D2E/DX2                !
 ! D108  D(23,20,30,34)        179.1111         estimate D2E/DX2                !
 ! D109  D(17,21,32,33)       -178.3541         estimate D2E/DX2                !
 ! D110  D(17,21,32,34)          1.6544         estimate D2E/DX2                !
 ! D111  D(18,21,32,33)         -0.893          estimate D2E/DX2                !
 ! D112  D(18,21,32,34)        179.1155         estimate D2E/DX2                !
 ! D113  D(5,25,29,27)          -0.8311         estimate D2E/DX2                !
 ! D114  D(5,25,29,35)         179.2451         estimate D2E/DX2                !
 ! D115  D(26,25,29,27)        179.1966         estimate D2E/DX2                !
 ! D116  D(26,25,29,35)         -0.7272         estimate D2E/DX2                !
 ! D117  D(8,27,29,25)          -0.7827         estimate D2E/DX2                !
 ! D118  D(8,27,29,35)         179.1394         estimate D2E/DX2                !
 ! D119  D(28,27,29,25)        179.2258         estimate D2E/DX2                !
 ! D120  D(28,27,29,35)         -0.8521         estimate D2E/DX2                !
 ! D121  D(25,29,35,36)        -58.8757         estimate D2E/DX2                !
 ! D122  D(25,29,35,37)       -179.558          estimate D2E/DX2                !
 ! D123  D(25,29,35,38)         59.7215         estimate D2E/DX2                !
 ! D124  D(27,29,35,36)        121.1949         estimate D2E/DX2                !
 ! D125  D(27,29,35,37)          0.5126         estimate D2E/DX2                !
 ! D126  D(27,29,35,38)       -120.2079         estimate D2E/DX2                !
 ! D127  D(20,30,34,32)         -0.8311         estimate D2E/DX2                !
 ! D128  D(20,30,34,39)        179.2451         estimate D2E/DX2                !
 ! D129  D(31,30,34,32)        179.1966         estimate D2E/DX2                !
 ! D130  D(31,30,34,39)         -0.7272         estimate D2E/DX2                !
 ! D131  D(21,32,34,30)         -0.7827         estimate D2E/DX2                !
 ! D132  D(21,32,34,39)        179.1394         estimate D2E/DX2                !
 ! D133  D(33,32,34,30)        179.2258         estimate D2E/DX2                !
 ! D134  D(33,32,34,39)         -0.8521         estimate D2E/DX2                !
 ! D135  D(30,34,39,40)        -58.8757         estimate D2E/DX2                !
 ! D136  D(30,34,39,41)       -179.558          estimate D2E/DX2                !
 ! D137  D(30,34,39,42)         59.7215         estimate D2E/DX2                !
 ! D138  D(32,34,39,40)        121.1949         estimate D2E/DX2                !
 ! D139  D(32,34,39,41)          0.5126         estimate D2E/DX2                !
 ! D140  D(32,34,39,42)       -120.2079         estimate D2E/DX2                !
 --------------------------------------------------------------------------------
 Trust Radius=3.00D-01 FncErr=1.00D-07 GrdErr=1.00D-06
 Number of steps in this run=    276 maximum allowed number of steps=    276.
 GradGradGradGradGradGradGradGradGradGradGradGradGradGradGradGradGradGrad

 Leave Link  103 at Thu Feb 25 05:33:27 2021, MaxMem=  5242880000 cpu:         0.2
 (Enter /opt/nce/packages/global/g09/l202.exe)
                          Input orientation:                          
 ---------------------------------------------------------------------
 Center     Atomic      Atomic             Coordinates (Angstroms)
 Number     Number       Type             X           Y           Z
 ---------------------------------------------------------------------
      1          6           0       -2.313671    1.444653    0.701814
      2          6           0       -1.232407    0.714006    0.176480
      3          6           0        0.003203    1.421335   -0.000734
      4          6           0        0.006344    2.842758   -0.000815
      5          6           0       -1.157935    3.547910    0.382990
      6          6           0       -2.279810    2.849971    0.789197
      7          6           0        1.235457    0.708404   -0.177579
      8          6           0        1.173420    3.543994   -0.384113
      9          1           0       -3.144048    3.397840    1.165018
     10          6           0        2.291922    2.840004   -0.790191
     11          6           0        2.319626    1.434616   -0.703019
     12          1           0        3.158838    3.383613   -1.165825
     13          6           0       -1.235457   -0.708404   -0.177579
     14          6           0       -0.003203   -1.421335   -0.000734
     15          6           0       -2.319626   -1.434616   -0.703019
     16          6           0        1.232407   -0.714006    0.176480
     17          6           0       -0.006344   -2.842758   -0.000815
     18          6           0       -2.291922   -2.840004   -0.790191
     19          6           0        2.313671   -1.444653    0.701814
     20          6           0        1.157935   -3.547910    0.382990
     21          6           0       -1.173420   -3.543994   -0.384113
     22          1           0       -3.158838   -3.383613   -1.165825
     23          6           0        2.279810   -2.849971    0.789197
     24          1           0        3.144048   -3.397840    1.165018
     25          6           0       -1.162958    5.033274    0.406255
     26          8           0       -2.130193    5.681397    0.757004
     27          6           0        1.192601    5.031055   -0.408862
     28          8           0        2.172135    5.658651   -0.762127
     29          7           0        0.014035    5.674363   -0.000527
     30          6           0        1.162958   -5.033274    0.406255
     31          8           0        2.130193   -5.681397    0.757004
     32          6           0       -1.192601   -5.031055   -0.408862
     33          8           0       -2.172135   -5.658651   -0.762127
     34          7           0       -0.014035   -5.674363   -0.000527
     35          6           0       -0.014035    7.136934    0.012185
     36          1           0       -0.815538    7.501325   -0.645419
     37          1           0        0.959669    7.495841   -0.333183
     38          1           0       -0.221042    7.498440    1.029170
     39          6           0        0.014035   -7.136934    0.012185
     40          1           0        0.815538   -7.501325   -0.645419
     41          1           0       -0.959669   -7.495841   -0.333183
     42          1           0        0.221042   -7.498440    1.029170
     43         17           0       -3.705792   -0.650677   -1.400114
     44         17           0        3.703215   -0.666485    1.398541
     45         17           0        3.705792    0.650677   -1.400114
     46         17           0       -3.703215    0.666485    1.398541
 ---------------------------------------------------------------------
                    Distance matrix (angstroms):
                    1          2          3          4          5
     1  C    0.000000
     2  C    1.406753   0.000000
     3  C    2.421161   1.434730   0.000000
     4  C    2.798366   2.469316   1.421426   0.000000
     5  C    2.420964   2.842394   2.453122   1.414246   0.000000
     6  C    1.408439   2.456587   2.806624   2.418816   1.382290
     7  C    3.729840   2.493139   1.434571   2.469298   3.755710
     8  C    4.212633   3.756474   2.453990   1.414467   2.454318
     9  H    2.172331   3.440137   3.894963   3.404740   2.139798
    10  C    5.038310   4.227909   2.806082   2.418055   3.712007
    11  C    4.841601   3.729576   2.420578   2.797718   4.211752
    12  H    6.098852   5.311461   3.894355   3.404114   4.589156
    13  C    2.563500   1.465816   2.470089   3.766174   4.293769
    14  C    3.747762   2.470228   2.842677   4.264104   5.116058
    15  C    3.203714   2.563619   3.747692   4.919264   5.230154
    16  C    4.184549   2.848601   2.470228   3.766329   4.890839
    17  C    4.919282   3.766329   4.264104   5.685530   6.504929
    18  C    4.537052   3.832494   4.904065   6.180528   6.593006
    19  C    5.455308   4.184549   3.747762   4.919282   6.089284
    20  C    6.089284   4.890839   5.116058   6.504929   7.464175
    21  C    5.231253   4.295149   5.117217   6.506102   7.133287
    22  H    5.245430   4.722648   5.868856   7.081195   7.378919
    23  C    6.288998   5.041133   4.904180   6.180609   7.274337
    24  H    7.311019   6.085872   5.869270   7.081625   8.207440
    25  C    3.780171   4.325933   3.817286   2.516214   1.485555
    26  O    4.241074   5.081142   4.824280   3.632761   2.374224
    27  C    5.137103   4.986001   3.822475   2.522370   2.889943
    28  O    6.326402   6.076299   4.820667   3.633112   4.105592
    29  N    4.878724   5.117625   4.253042   2.831615   2.458130
    30  C    7.357842   6.230714   6.570590   7.970906   8.889533
    31  O    8.398307   7.248811   7.452990   8.817383   9.804682
    32  C    6.665223   5.774940   6.574941   7.975017   8.615502
    33  O    7.253970   6.509595   7.445671   8.809048   9.332773
    34  N    7.514120   6.505922   7.095719   8.517145   9.300855
    35  C    6.177862   6.539528   5.715640   4.294244   3.785115
    36  H    6.383002   6.849598   6.168649   4.774228   4.099311
    37  H    6.957216   7.145505   6.158325   4.761353   4.536883
    38  H    6.413626   6.912198   6.167835   4.773672   4.111205
    39  C    8.918376   7.950967   8.558286   9.979703  10.755320
    40  H    9.572748   8.506542   8.982726  10.395690  11.271105
    41  H    9.101482   8.230172   8.975170  10.388950  11.068724
    42  H    9.301121   8.383547   8.981678  10.394582  11.150828
    43  Cl   3.278187   3.235064   4.473046   5.286027   5.224861
    44  Cl   6.414456   5.268734   4.472924   5.285815   6.513313
    45  Cl   6.425141   5.184156   4.032536   4.522076   5.935424
    46  Cl   1.738334   2.756916   4.033027   4.522741   3.976481
                    6          7          8          9         10
     6  C    0.000000
     7  C    4.228246   0.000000
     8  C    3.712563   2.843778   0.000000
     9  H    1.090096   5.311845   4.589303   0.000000
    10  C    4.836869   2.456650   1.382587   5.803774   0.000000
    11  C    5.038328   1.406731   2.421769   6.098815   1.408361
    12  H    5.803945   3.439879   2.139785   6.720075   1.090025
    13  C    3.832409   2.848291   4.891649   4.722979   5.040724
    14  C    4.904180   2.470089   5.117217   5.869270   4.904065
    15  C    4.537177   4.184165   6.090126   5.246129   6.288589
    16  C    5.041133   1.465816   4.295149   6.085872   3.832494
    17  C    6.180609   3.766174   6.506102   7.081625   6.180528
    18  C    5.905119   5.040724   7.275227   6.592394   7.298912
    19  C    6.288998   2.563500   5.231253   7.311019   4.537052
    20  C    7.274337   4.293769   7.133287   8.207440   6.593006
    21  C    6.594205   4.891649   7.466407   7.380531   7.275227
    22  H    6.591841   6.085315   8.208000   7.170854   8.281624
    23  C    7.299279   3.832409   6.594205   8.282187   5.905119
    24  H    8.282187   4.722979   7.380531   9.258586   6.592394
    25  C    2.482099   4.979735   2.881197   2.678635   4.263580
    26  O    2.835559   6.077146   4.096889   2.531602   5.479273
    27  C    4.272015   4.329046   1.487391   4.893977   2.480851
    28  O    5.487723   5.071884   2.368987   6.089906   2.821331
    29  N    3.723248   5.117027   2.455562   4.063809   3.721012
    30  C    8.610740   5.771740   8.613612   9.497879   8.043292
    31  O    9.603822   6.519475   9.344806  10.507932   8.662231
    32  C    8.045368   6.236213   8.895512   8.793834   8.616315
    33  O    8.649558   7.245189   9.799199   9.310131   9.599778
    34  N    8.855601   6.506327   9.302435   9.667489   8.856379
    35  C    4.910757   6.551583   3.804776   5.010672   4.942151
    36  H    5.083041   7.111205   4.436745   5.053536   5.604032
    37  H    5.773913   6.794820   3.957951   5.989884   4.864213
    38  H    5.089634   7.048562   4.424877   5.037593   5.596971
    39  C   10.276368   7.942116  10.750974  11.058209  10.265080
    40  H   10.899020   8.233763  11.054204  11.736601  10.447189
    41  H   10.489916   8.494258  11.244137  11.211084  10.844879
    42  H   10.649012   8.356888  11.173171  11.404876  10.699628
    43  Cl   4.368185   5.268551   6.514156   4.825552   6.966307
    44  Cl   6.966588   3.234858   5.225500   7.966071   4.367810
    45  Cl   6.742211   2.756897   3.976990   7.813265   2.676600
    46  Cl   2.676750   5.184245   5.936285   2.797767   6.742136
                   11         12         13         14         15
    11  C    0.000000
    12  H    2.171878   0.000000
    13  C    4.184165   6.085315   0.000000
    14  C    3.747692   5.868856   1.434571   0.000000
    15  C    5.454828   7.310478   1.406731   2.420578   0.000000
    16  C    2.563619   4.722648   2.493139   1.434730   3.729576
    17  C    4.919264   7.081195   2.469298   1.421426   2.797718
    18  C    6.288589   8.281624   2.456650   2.806082   1.408361
    19  C    3.203714   5.245430   3.729840   2.421161   4.841601
    20  C    5.230154   7.378919   3.755710   2.453122   4.211752
    21  C    6.090126   8.208000   2.843778   2.453990   2.421769
    22  H    7.310478   9.257882   3.439879   3.894355   2.171878
    23  C    4.537177   6.591841   4.228246   2.806624   5.038328
    24  H    5.246129   7.170854   5.311845   3.894963   6.098815
    25  C    5.129251   4.885769   5.771740   6.570590   6.663480
    26  O    6.322002   6.078728   6.519475   7.452990   7.266718
    27  C    3.780355   2.674537   6.236213   6.574941   7.363910
    28  O    4.227022   2.512440   7.245189   7.445671   8.396061
    29  N    4.876956   4.061433   6.506327   7.095719   7.515121
    30  C    6.663480   8.791983   4.979735   3.817286   5.129251
    31  O    7.266718   9.323615   6.077146   4.824280   6.322002
    32  C    7.363910   9.503402   4.329046   3.822475   3.780355
    33  O    8.396061  10.504513   5.071884   4.820667   4.227022
    34  N    7.515121   9.668090   5.117027   4.253042   4.876956
    35  C    6.202735   5.053934   7.942116   8.558286   8.904984
    36  H    6.829168   5.746481   8.233763   8.982726   9.061823
    37  H    6.222918   4.737094   8.494258   8.975170   9.520694
    38  H    6.798929   5.759635   8.356888   8.981678   9.338309
    39  C    8.904984  11.043523   6.551583   5.715640   6.202735
    40  H    9.061823  11.146468   7.111205   6.168649   6.829168
    41  H    9.520694  11.662672   6.794820   6.158325   6.222918
    42  H    9.338309  11.483367   7.048562   6.167835   6.798929
    43  Cl   6.414051   7.965773   2.756897   4.032536   1.738378
    44  Cl   3.278033   4.824481   5.184245   4.033027   6.425044
    45  Cl   1.738378   2.796961   5.268551   4.473046   6.414051
    46  Cl   6.425044   7.813228   3.234858   4.472924   3.278033
                   16         17         18         19         20
    16  C    0.000000
    17  C    2.469316   0.000000
    18  C    4.227909   2.418055   0.000000
    19  C    1.406753   2.798366   5.038310   0.000000
    20  C    2.842394   1.414246   3.712007   2.420964   0.000000
    21  C    3.756474   1.414467   1.382587   4.212633   2.454318
    22  H    5.311461   3.404114   1.090025   6.098852   4.589156
    23  C    2.456587   2.418816   4.836869   1.408439   1.382290
    24  H    3.440137   3.404740   5.803774   2.172331   2.139798
    25  C    6.230714   7.970906   8.043292   7.357842   8.889533
    26  O    7.248811   8.817383   8.662231   8.398307   9.804682
    27  C    5.774940   7.975017   8.616315   6.665223   8.615502
    28  O    6.509595   8.809048   9.599778   7.253970   9.332773
    29  N    6.505922   8.517145   8.856379   7.514120   9.300855
    30  C    4.325933   2.516214   4.263580   3.780171   1.485555
    31  O    5.081142   3.632761   5.479273   4.241074   2.374224
    32  C    4.986001   2.522370   2.480851   5.137103   2.889943
    33  O    6.076299   3.633112   2.821331   6.326402   4.105592
    34  N    5.117625   2.831615   3.721012   4.878724   2.458130
    35  C    7.950967   9.979703  10.265080   8.918376  10.755320
    36  H    8.506542  10.395690  10.447189   9.572748  11.271105
    37  H    8.230172  10.388950  10.844879   9.101482  11.068724
    38  H    8.383547  10.394582  10.699628   9.301121  11.150828
    39  C    6.539528   4.294244   4.942151   6.177862   3.785115
    40  H    6.849598   4.774228   5.604032   6.383002   4.099311
    41  H    7.145505   4.761353   4.864213   6.957216   4.536883
    42  H    6.912198   4.773672   5.596971   6.413626   4.111205
    43  Cl   5.184156   4.522076   2.676600   6.425141   5.935424
    44  Cl   2.756916   4.522741   6.742136   1.738334   3.976481
    45  Cl   3.235064   5.286027   6.966307   3.278187   5.224861
    46  Cl   5.268734   5.285815   4.367810   6.414456   6.513313
                   21         22         23         24         25
    21  C    0.000000
    22  H    2.139785   0.000000
    23  C    3.712563   5.803945   0.000000
    24  H    4.589303   6.720075   1.090096   0.000000
    25  C    8.613612   8.791983   8.610740   9.497879   0.000000
    26  O    9.344806   9.323615   9.603822  10.507932   1.215990
    27  C    8.895512   9.503402   8.045368   8.793834   2.492605
    28  O    9.799199  10.504513   8.649558   9.310131   3.588740
    29  N    9.302435   9.668090   8.855601   9.667489   1.400635
    30  C    2.881197   4.885769   2.482099   2.678635  10.331760
    31  O    4.096889   6.078728   2.835559   2.531602  11.214814
    32  C    1.487391   2.674537   4.272015   4.893977  10.097327
    33  O    2.368987   2.512440   5.487723   6.089906  10.802815
    34  N    2.455562   4.061433   3.723248   4.063809  10.776780
    35  C   10.750974  11.043523  10.276368  11.058209   2.429136
    36  H   11.054204  11.146468  10.899020  11.736601   2.705179
    37  H   11.244137  11.662672  10.489916  11.211084   3.334149
    38  H   11.173171  11.483367  10.649012  11.404876   2.711507
    39  C    3.804776   5.053934   4.910757   5.010672  12.233338
    40  H    4.436745   5.746481   5.083041   5.053536  12.733289
    41  H    3.957951   4.737094   5.773913   5.989884  12.552562
    42  H    4.424877   5.759635   5.089634   5.037593  12.623285
    43  Cl   3.976990   2.796961   6.742211   7.813265   6.483539
    44  Cl   5.936285   7.813228   2.676750   2.797767   7.559863
    45  Cl   6.514156   7.965773   4.368185   4.825552   6.795208
    46  Cl   5.225500   4.824481   6.966588   7.966071   5.148435
                   26         27         28         29         30
    26  O    0.000000
    27  C    3.580942   0.000000
    28  O    4.562708   1.215796   0.000000
    29  N    2.274119   1.403425   2.288597   0.000000
    30  C   11.214814  10.097327  10.802815  10.776780   0.000000
    31  O   12.135237  10.816420  11.441425  11.576064   1.215990
    32  C   10.816420  10.340950  11.212317  10.780941   2.492605
    33  O   11.441425  11.212317  12.122459  11.567047   3.588740
    34  N   11.576064  10.780941  11.567047  11.348761   1.400635
    35  C    2.674223   2.463326   2.750313   1.462896  12.233338
    36  H    2.647120   3.192306   3.512159   2.107574  12.733289
    37  H    3.745392   2.476924   2.242618   2.079102  12.552562
    38  H    2.649637   3.186583   3.510109   2.107794  12.623285
    39  C   13.017760  12.232181  12.999383  12.811303   2.429136
    40  H   13.580437  12.540282  13.230228  13.215788   2.705179
    41  H   13.273968  12.710669  13.528963  13.210338   3.334149
    42  H   13.390686  12.649115  13.421049  13.214608   2.711507
    43  Cl   6.872469   7.566962   8.646657   7.470079   6.795208
    44  Cl   8.644988   6.483198   6.857116   7.468185   5.148435
    45  Cl   8.001251   5.146496   5.276261   6.389471   6.483539
    46  Cl   5.294838   6.803322   8.006869   6.391728   7.559863
                   31         32         33         34         35
    31  O    0.000000
    32  C    3.580942   0.000000
    33  O    4.562708   1.215796   0.000000
    34  N    2.274119   1.403425   2.288597   0.000000
    35  C   13.017760  12.232181  12.999383  12.811303   0.000000
    36  H   13.580437  12.540282  13.230228  13.215788   1.098923
    37  H   13.273968  12.710669  13.528963  13.210338   1.093706
    38  H   13.390686  12.649115  13.421049  13.214608   1.098998
    39  C    2.674223   2.463326   2.750313   1.462896  14.273896
    40  H    2.647120   3.192306   3.512159   2.107574  14.676487
    41  H    3.745392   2.476924   2.242618   2.079102  14.667365
    42  H    2.649637   3.186583   3.510109   2.107794  14.672549
    43  Cl   8.001251   5.146496   5.276261   6.389471   8.733301
    44  Cl   5.294838   6.803322   8.006869   6.391728   8.754044
    45  Cl   6.872469   7.566962   8.646657   7.470079   7.609417
    46  Cl   8.644988   6.483198   6.857116   7.468185   7.576196
                   36         37         38         39         40
    36  H    0.000000
    37  H    1.802465   0.000000
    38  H    1.776987   1.802801   0.000000
    39  C   14.676487  14.667365  14.672549   0.000000
    40  H   15.091054  15.001108  15.128506   1.098923   0.000000
    41  H   15.001108  15.114046  15.074151   1.093706   1.802465
    42  H   15.128506  15.074151  15.003395   1.098998   1.776987
    43  Cl   8.682066   9.448313   9.189832   7.609417   8.242777
    44  Cl   9.555628   8.783478   9.066544   7.576196   7.696200
    45  Cl   8.242777   7.452235   8.259135   8.733301   8.682066
    46  Cl   7.696200   8.448755   7.677081   8.754044   9.555628
                   41         42         43         44         45
    41  H    0.000000
    42  H    1.802801   0.000000
    43  Cl   7.452235   8.259135   0.000000
    44  Cl   8.448755   7.677081   7.919981   0.000000
    45  Cl   9.448313   9.189832   7.524965   3.093120   0.000000
    46  Cl   8.783478   9.066544   3.093120   7.525425   7.919981
                   46
    46  Cl   0.000000
 Symmetry turned off by external request.
 Stoichiometry    C26H10Cl4N2O4
 Framework group  C2[X(C26H10Cl4N2O4)]
 Deg. of freedom    67
 Full point group                 C2      NOp   2
 Rotational constants (GHZ):      0.1503231      0.0665714      0.0496726
 Leave Link  202 at Thu Feb 25 05:33:28 2021, MaxMem=  5242880000 cpu:         1.0
 (Enter /opt/nce/packages/global/g09/l301.exe)
 Standard basis: def2TZVP (5D, 7F)
 Ernie: Thresh=  0.10000D-02 Tol=  0.10000D-05 Strict=F.
  1200 basis functions,  1988 primitive gaussians,  1380 cartesian basis functions
   140 alpha electrons      140 beta electrons
       nuclear repulsion energy      4524.0269155377 Hartrees.
 IExCor=20419 DFT=T Ex+Corr=CAM-B3LYP ExCW=0 ScaHFX=  1.000000
 ScaDFX=  1.000000  1.000000  1.000000  0.810000 ScalE2=  1.000000  1.000000
 IRadAn=      5 IRanWt=     -1 IRanGd=            0 ICorTp=0 IEmpDi=141
  HFx wShort=  0.000000 wLong=  0.330000 cFull=  0.190000 cShort=  0.000000 cLong=  0.460000
  DFx wShort=  0.000000 wLong=  0.330000 cFull=  0.190000 cShort=  0.000000 cLong=  0.460000
 NAtoms=   46 NActive=   46 NUniq=   46 SFac= 1.00D+00 NAtFMM=   60 NAOKFM=F Big=F
 Integral buffers will be    131072 words long.
 Raffenetti 2 integral format.
 Two-electron integral symmetry is turned off.
 R6Disp:  Grimme-D3(BJ) Dispersion energy=       -0.0772190911 Hartrees.
 Nuclear repulsion after empirical dispersion term =     4523.9496964466 Hartrees.
 ------------------------------------------------------------------------------
 Polarizable Continuum Model (PCM)
 =================================
 Model                : PCM (using non-symmetric T matrix).
 Atomic radii         : SMD-Coulomb.
 Polarization charges : Total charges.
 Charge compensation  : None.
 Solution method      : On-the-fly selection.
 Cavity type          : VdW (van der Waals Surface) (Alpha=1.000).
 Cavity algorithm     : GePol (No added spheres)
                        Default sphere list used, NSphG=   46.
                        Lebedev-Laikov grids with approx.  5.0 points / Ang**2.
                        Smoothing algorithm: York/Karplus (Gamma=1.0000).
                        Polarization charges: spherical gaussians, with
                                              point-specific exponents (IZeta= 3).
                        Self-potential: point-specific (ISelfS= 7).
                        Self-field    : sphere-specific E.n sum rule (ISelfD= 2).
 1st derivatives      : Analytical E(r).r(x)/FMM algorithm (CHGder, D1EAlg=3).
                        Cavity 1st derivative terms included.
 Solvent              : Dichloromethane, Eps=   8.930000 Eps(inf)=   2.028346
 ------------------------------------------------------------------------------
 GePol: Number of generator spheres                  =      46
 GePol: Total number of spheres                      =      46
 GePol: Number of exposed spheres                    =      46 (100.00%)
 GePol: Number of points                             =    3924
 GePol: Average weight of points                     =       0.13
 GePol: Minimum weight of points                     =   0.99D-09
 GePol: Maximum weight of points                     =    0.20498
 GePol: Number of points with low weight             =     162
 GePol: Fraction of low-weight points (<1% of avg)   =       4.13%
 GePol: Cavity surface area                          =    500.332 Ang**2
 GePol: Cavity volume                                =    565.764 Ang**3
 ------------------------------------------------------------------------------
 Atomic radii for non-electrostatic terms: SMD-CDS.
 ------------------------------------------------------------------------------
 PCM non-electrostatic energy =        -0.0174758624 Hartrees.
 Nuclear repulsion after PCM non-electrostatic terms =     4523.9322205843 Hartrees.
 Leave Link  301 at Thu Feb 25 05:33:30 2021, MaxMem=  5242880000 cpu:        17.0
 (Enter /opt/nce/packages/global/g09/l302.exe)
 NPDir=0 NMtPBC=     1 NCelOv=     1 NCel=       1 NClECP=     1 NCelD=      1
         NCelK=      1 NCelE2=     1 NClLst=     1 CellRange=     0.0.
 One-electron integrals computed using PRISM.
   1 Symmetry operations used in ECPInt.
 ECPInt:  NShTT=   98790 NPrTT=  327714 LenC2=   74876 LenP2D=  163880.
 LDataN:  DoStor=T MaxTD1= 6 Len=  172
 NBasis=  1200 RedAO= T EigKep=  3.46D-06  NBF=  1200
 NBsUse=  1200 1.00D-06 EigRej= -1.00D+00 NBFU=  1200
 Precomputing XC quadrature grid using
 IXCGrd= 4 IRadAn=           5 IRanWt=          -1 IRanGd=           0 AccXCQ= 0.00D+00.
 Generated NRdTot=       0 NPtTot=           0 NUsed=           0 NTot=          32
 NSgBfM=  1294  1294  1294  1294  1294 MxSgAt=    46 MxSgA2=    46.
 Leave Link  302 at Thu Feb 25 05:33:33 2021, MaxMem=  5242880000 cpu:        34.8
 (Enter /opt/nce/packages/global/g09/l303.exe)
 DipDrv:  MaxL=1.
 Leave Link  303 at Thu Feb 25 05:33:35 2021, MaxMem=  5242880000 cpu:         6.7
 (Enter /opt/nce/packages/global/g09/l401.exe)
 ExpMin= 9.52D-02 ExpMax= 6.95D+04 ExpMxC= 2.37D+03 IAcc=3 IRadAn=         5 AccDes= 0.00D+00
 Harris functional with IExCor=20419 and IRadAn=       5 diagonalized for initial guess.
 HarFok:  IExCor=20419 AccDes= 0.00D+00 IRadAn=         5 IDoV= 1 UseB2=F ITyADJ=14
 ICtDFT=  3500011 ScaDFX=  1.000000  1.000000  1.000000  1.000000
 FoFCou: FMM=F IPFlag=           0 FMFlag=      100000 FMFlg1=           0
         NFxFlg=           0 DoJE=T BraDBF=F KetDBF=T FulRan=T
         wScrn=  0.000000 ICntrl=     500 IOpCl=  0 I1Cent=   200000004 NGrid=           0
         NMat0=    1 NMatS0=      1 NMatT0=    0 NMatD0=    1 NMtDS0=    0 NMtDT0=    0
 Symmetry not used in FoFCou.
 Harris En= -3168.97449933805    
 JPrj=0 DoOrth=F DoCkMO=F.
 Leave Link  401 at Thu Feb 25 05:33:46 2021, MaxMem=  5242880000 cpu:       135.7
 (Enter /opt/nce/packages/global/g09/l502.exe)
 Closed shell SCF:
 Using DIIS extrapolation, IDIIS=  1040.
 Two-electron integral symmetry not used.
 IVT=     5756682 IEndB=     5756682 NGot=  5242880000 MDV=  5239045739
 LenX=  5239045739 LenY=  5237139959
 Requested convergence on RMS density matrix=1.00D-08 within 128 cycles.
 Requested convergence on MAX density matrix=1.00D-06.
 Requested convergence on             energy=1.00D-06.
 No special actions if energy rises.
 Fock matrices will be formed incrementally for  20 cycles.

 Cycle   1  Pass 1  IDiag  1:
 FoFJK:  IHMeth= 1 ICntrl=       0 DoSepK=T KAlg= 0 I1Cent=   0 FoldK=F
 IRaf=         1 NMat=   1 IRICut=       1 DoRegI=T DoRafI=F ISym2E= 0.
 FoFCou: FMM=F IPFlag=           0 FMFlag=      100000 FMFlg1=           0
         NFxFlg=           0 DoJE=T BraDBF=F KetDBF=F FulRan=T
         wScrn=  0.000000 ICntrl=     500 IOpCl=  0 I1Cent=           0 NGrid=           0
         NMat0=    1 NMatS0=      1 NMatT0=    0 NMatD0=    1 NMtDS0=    0 NMtDT0=    0
 Symmetry not used in FoFCou.
 Inv3:  Mode=1 IEnd=    46193328.
 Iteration    1 A*A^-1 deviation from unit magnitude is 6.66D-15 for   3918.
 Iteration    1 A*A^-1 deviation from orthogonality  is 3.30D-15 for    888    363.
 Iteration    1 A^-1*A deviation from unit magnitude is 6.44D-15 for   3918.
 Iteration    1 A^-1*A deviation from orthogonality  is 1.43D-13 for   2291   2287.
 E= -3247.07509566880    
 DIIS: error= 4.77D-02 at cycle   1 NSaved=   1.
 NSaved= 1 IEnMin= 1 EnMin= -3247.07509566880     IErMin= 1 ErrMin= 4.77D-02
 ErrMax= 4.77D-02  0.00D+00 EMaxC= 1.00D-01 BMatC= 4.42D+00 BMatP= 4.42D+00
 IDIUse=3 WtCom= 5.23D-01 WtEn= 4.77D-01
 Coeff-Com:  0.100D+01
 Coeff-En:   0.100D+01
 Coeff:      0.100D+01
 Gap=     0.315 Goal=   None    Shift=    0.000
 GapD=    0.315 DampG=1.000 DampE=0.500 DampFc=0.5000 IDamp=-1.
 Damping current iteration by 5.00D-01
 RMSDP=1.74D-02 MaxDP=1.58D+00              OVMax= 2.55D-01

 Cycle   2  Pass 1  IDiag  1:
 RMSU=  2.90D-03    CP:  5.98D-01
 E= -3247.60540902663     Delta-E=       -0.530313357831 Rises=F Damp=T
 DIIS: error= 2.08D-02 at cycle   2 NSaved=   2.
 NSaved= 2 IEnMin= 2 EnMin= -3247.60540902663     IErMin= 2 ErrMin= 2.08D-02
 ErrMax= 2.08D-02  0.00D+00 EMaxC= 1.00D-01 BMatC= 6.37D-01 BMatP= 4.42D+00
 IDIUse=3 WtCom= 7.92D-01 WtEn= 2.08D-01
 Coeff-Com: -0.390D+00 0.139D+01
 Coeff-En:   0.000D+00 0.100D+01
 Coeff:     -0.308D+00 0.131D+01
 Gap=     0.178 Goal=   None    Shift=    0.000
 RMSDP=7.78D-03 MaxDP=6.94D-01 DE=-5.30D-01 OVMax= 1.72D-01

 Cycle   3  Pass 1  IDiag  1:
 RMSU=  1.58D-03    CP:  2.41D-01  1.73D+00
 E= -3248.02728323576     Delta-E=       -0.421874209131 Rises=F Damp=F
 DIIS: error= 6.74D-03 at cycle   3 NSaved=   3.
 NSaved= 3 IEnMin= 3 EnMin= -3248.02728323576     IErMin= 3 ErrMin= 6.74D-03
 ErrMax= 6.74D-03  0.00D+00 EMaxC= 1.00D-01 BMatC= 1.21D-01 BMatP= 6.37D-01
 IDIUse=3 WtCom= 9.33D-01 WtEn= 6.74D-02
 Coeff-Com: -0.211D+00 0.542D+00 0.669D+00
 Coeff-En:   0.000D+00 0.000D+00 0.100D+01
 Coeff:     -0.197D+00 0.505D+00 0.691D+00
 Gap=     0.164 Goal=   None    Shift=    0.000
 RMSDP=8.23D-04 MaxDP=7.96D-02 DE=-4.22D-01 OVMax= 7.61D-02

 Cycle   4  Pass 1  IDiag  1:
 RMSU=  3.32D-04    CP:  2.10D-01  1.82D+00  7.98D-01
 E= -3248.11841143945     Delta-E=       -0.091128203682 Rises=F Damp=F
 DIIS: error= 3.40D-03 at cycle   4 NSaved=   4.
 NSaved= 4 IEnMin= 4 EnMin= -3248.11841143945     IErMin= 4 ErrMin= 3.40D-03
 ErrMax= 3.40D-03  0.00D+00 EMaxC= 1.00D-01 BMatC= 2.41D-02 BMatP= 1.21D-01
 IDIUse=3 WtCom= 9.66D-01 WtEn= 3.40D-02
 Coeff-Com: -0.871D-01 0.205D+00 0.390D+00 0.492D+00
 Coeff-En:   0.000D+00 0.000D+00 0.931D-01 0.907D+00
 Coeff:     -0.841D-01 0.198D+00 0.380D+00 0.506D+00
 Gap=     0.166 Goal=   None    Shift=    0.000
 RMSDP=1.92D-04 MaxDP=1.34D-02 DE=-9.11D-02 OVMax= 2.70D-02

 Cycle   5  Pass 1  IDiag  1:
 RMSU=  1.55D-04    CP:  2.06D-01  1.81D+00  8.21D-01  7.99D-01
 E= -3248.13672182462     Delta-E=       -0.018310385176 Rises=F Damp=F
 DIIS: error= 7.18D-04 at cycle   5 NSaved=   5.
 NSaved= 5 IEnMin= 5 EnMin= -3248.13672182462     IErMin= 5 ErrMin= 7.18D-04
 ErrMax= 7.18D-04  0.00D+00 EMaxC= 1.00D-01 BMatC= 1.19D-03 BMatP= 2.41D-02
 IDIUse=3 WtCom= 9.93D-01 WtEn= 7.18D-03
 Coeff-Com: -0.240D-01 0.536D-01 0.142D+00 0.257D+00 0.571D+00
 Coeff-En:   0.000D+00 0.000D+00 0.000D+00 0.000D+00 0.100D+01
 Coeff:     -0.238D-01 0.532D-01 0.141D+00 0.256D+00 0.574D+00
 Gap=     0.167 Goal=   None    Shift=    0.000
 RMSDP=6.12D-05 MaxDP=3.18D-03 DE=-1.83D-02 OVMax= 6.13D-03

 Cycle   6  Pass 1  IDiag  1:
 RMSU=  5.51D-05    CP:  2.07D-01  1.81D+00  8.32D-01  8.22D-01  9.48D-01
 E= -3248.13774391409     Delta-E=       -0.001022089468 Rises=F Damp=F
 DIIS: error= 2.28D-04 at cycle   6 NSaved=   6.
 NSaved= 6 IEnMin= 6 EnMin= -3248.13774391409     IErMin= 6 ErrMin= 2.28D-04
 ErrMax= 2.28D-04  0.00D+00 EMaxC= 1.00D-01 BMatC= 1.01D-04 BMatP= 1.19D-03
 IDIUse=3 WtCom= 9.98D-01 WtEn= 2.28D-03
 Coeff-Com:  0.469D-02-0.121D-01-0.215D-02 0.241D-01 0.233D+00 0.753D+00
 Coeff-En:   0.000D+00 0.000D+00 0.000D+00 0.000D+00 0.000D+00 0.100D+01
 Coeff:      0.468D-02-0.121D-01-0.214D-02 0.241D-01 0.232D+00 0.753D+00
 Gap=     0.168 Goal=   None    Shift=    0.000
 RMSDP=4.01D-05 MaxDP=3.34D-03 DE=-1.02D-03 OVMax= 4.08D-03

 Cycle   7  Pass 1  IDiag  1:
 RMSU=  2.21D-05    CP:  2.06D-01  1.81D+00  8.36D-01  8.36D-01  1.14D+00
                    CP:  1.13D+00
 E= -3248.13786618452     Delta-E=       -0.000122270432 Rises=F Damp=F
 DIIS: error= 1.15D-04 at cycle   7 NSaved=   7.
 NSaved= 7 IEnMin= 7 EnMin= -3248.13786618452     IErMin= 7 ErrMin= 1.15D-04
 ErrMax= 1.15D-04  0.00D+00 EMaxC= 1.00D-01 BMatC= 1.76D-05 BMatP= 1.01D-04
 IDIUse=3 WtCom= 9.99D-01 WtEn= 1.15D-03
 Coeff-Com:  0.583D-02-0.134D-01-0.255D-01-0.397D-01-0.198D-02 0.328D+00
 Coeff-Com:  0.747D+00
 Coeff-En:   0.000D+00 0.000D+00 0.000D+00 0.000D+00 0.000D+00 0.000D+00
 Coeff-En:   0.100D+01
 Coeff:      0.582D-02-0.134D-01-0.255D-01-0.397D-01-0.197D-02 0.328D+00
 Coeff:      0.747D+00
 Gap=     0.169 Goal=   None    Shift=    0.000
 RMSDP=1.15D-05 MaxDP=5.49D-04 DE=-1.22D-04 OVMax= 2.06D-03

 Cycle   8  Pass 1  IDiag  1:
 RMSU=  6.03D-06    CP:  2.06D-01  1.81D+00  8.38D-01  8.39D-01  1.17D+00
                    CP:  1.23D+00  1.17D+00
 E= -3248.13789256813     Delta-E=       -0.000026383605 Rises=F Damp=F
 DIIS: error= 4.12D-05 at cycle   8 NSaved=   8.
 NSaved= 8 IEnMin= 8 EnMin= -3248.13789256813     IErMin= 8 ErrMin= 4.12D-05
 ErrMax= 4.12D-05  0.00D+00 EMaxC= 1.00D-01 BMatC= 1.51D-06 BMatP= 1.76D-05
 IDIUse=1 WtCom= 1.00D+00 WtEn= 0.00D+00
 Coeff-Com:  0.122D-02-0.267D-02-0.727D-02-0.157D-01-0.212D-01 0.388D-01
 Coeff-Com:  0.264D+00 0.743D+00
 Coeff:      0.122D-02-0.267D-02-0.727D-02-0.157D-01-0.212D-01 0.388D-01
 Coeff:      0.264D+00 0.743D+00
 Gap=     0.169 Goal=   None    Shift=    0.000
 RMSDP=3.70D-06 MaxDP=2.65D-04 DE=-2.64D-05 OVMax= 7.71D-04

 Cycle   9  Pass 1  IDiag  1:
 RMSU=  2.14D-06    CP:  2.06D-01  1.81D+00  8.37D-01  8.38D-01  1.18D+00
                    CP:  1.26D+00  1.24D+00  1.12D+00
 E= -3248.13789500185     Delta-E=       -0.000002433728 Rises=F Damp=F
 DIIS: error= 2.44D-05 at cycle   9 NSaved=   9.
 NSaved= 9 IEnMin= 9 EnMin= -3248.13789500185     IErMin= 9 ErrMin= 2.44D-05
 ErrMax= 2.44D-05  0.00D+00 EMaxC= 1.00D-01 BMatC= 3.67D-07 BMatP= 1.51D-06
 IDIUse=1 WtCom= 1.00D+00 WtEn= 0.00D+00
 Coeff-Com: -0.666D-03 0.157D-02 0.230D-02 0.127D-02-0.832D-02-0.499D-01
 Coeff-Com: -0.328D-01 0.346D+00 0.740D+00
 Coeff:     -0.666D-03 0.157D-02 0.230D-02 0.127D-02-0.832D-02-0.499D-01
 Coeff:     -0.328D-01 0.346D+00 0.740D+00
 Gap=     0.169 Goal=   None    Shift=    0.000
 RMSDP=2.92D-06 MaxDP=2.18D-04 DE=-2.43D-06 OVMax= 3.45D-04

 Cycle  10  Pass 1  IDiag  1:
 RMSU=  9.00D-07    CP:  2.06D-01  1.81D+00  8.38D-01  8.35D-01  1.18D+00
                    CP:  1.27D+00  1.31D+00  1.25D+00  1.12D+00
 E= -3248.13789556700     Delta-E=       -0.000000565149 Rises=F Damp=F
 DIIS: error= 5.51D-06 at cycle  10 NSaved=  10.
 NSaved=10 IEnMin=10 EnMin= -3248.13789556700     IErMin=10 ErrMin= 5.51D-06
 ErrMax= 5.51D-06  0.00D+00 EMaxC= 1.00D-01 BMatC= 2.98D-08 BMatP= 3.67D-07
 IDIUse=1 WtCom= 1.00D+00 WtEn= 0.00D+00
 Coeff-Com: -0.276D-03 0.639D-03 0.130D-02 0.157D-02-0.135D-02-0.225D-01
 Coeff-Com: -0.367D-01 0.611D-01 0.274D+00 0.723D+00
 Coeff:     -0.276D-03 0.639D-03 0.130D-02 0.157D-02-0.135D-02-0.225D-01
 Coeff:     -0.367D-01 0.611D-01 0.274D+00 0.723D+00
 Gap=     0.169 Goal=   None    Shift=    0.000
 RMSDP=7.53D-07 MaxDP=4.05D-05 DE=-5.65D-07 OVMax= 1.68D-04

 Cycle  11  Pass 1  IDiag  1:
 RMSU=  2.67D-07    CP:  2.07D-01  1.81D+00  8.38D-01  8.35D-01  1.18D+00
                    CP:  1.26D+00  1.32D+00  1.29D+00  1.19D+00  1.11D+00
 E= -3248.13789561765     Delta-E=       -0.000000050651 Rises=F Damp=F
 DIIS: error= 2.27D-06 at cycle  11 NSaved=  11.
 NSaved=11 IEnMin=11 EnMin= -3248.13789561765     IErMin=11 ErrMin= 2.27D-06
 ErrMax= 2.27D-06  0.00D+00 EMaxC= 1.00D-01 BMatC= 5.22D-09 BMatP= 2.98D-08
 IDIUse=1 WtCom= 1.00D+00 WtEn= 0.00D+00
 Coeff-Com: -0.248D-04 0.553D-04 0.246D-03 0.477D-03 0.593D-03-0.281D-02
 Coeff-Com: -0.114D-01-0.210D-01 0.145D-01 0.311D+00 0.709D+00
 Coeff:     -0.248D-04 0.553D-04 0.246D-03 0.477D-03 0.593D-03-0.281D-02
 Coeff:     -0.114D-01-0.210D-01 0.145D-01 0.311D+00 0.709D+00
 Gap=     0.169 Goal=   None    Shift=    0.000
 RMSDP=2.25D-07 MaxDP=1.65D-05 DE=-5.07D-08 OVMax= 5.54D-05

 Cycle  12  Pass 1  IDiag  1:
 RMSU=  1.17D-07    CP:  2.07D-01  1.81D+00  8.38D-01  8.35D-01  1.18D+00
                    CP:  1.27D+00  1.33D+00  1.30D+00  1.23D+00  1.15D+00
                    CP:  1.01D+00
 E= -3248.13789562609     Delta-E=       -0.000000008433 Rises=F Damp=F
 DIIS: error= 1.04D-06 at cycle  12 NSaved=  12.
 NSaved=12 IEnMin=12 EnMin= -3248.13789562609     IErMin=12 ErrMin= 1.04D-06
 ErrMax= 1.04D-06  0.00D+00 EMaxC= 1.00D-01 BMatC= 6.78D-10 BMatP= 5.22D-09
 IDIUse=1 WtCom= 1.00D+00 WtEn= 0.00D+00
 Coeff-Com:  0.271D-04-0.642D-04-0.860D-04-0.298D-04 0.438D-03 0.254D-02
 Coeff-Com:  0.760D-03-0.202D-01-0.387D-01 0.249D-01 0.275D+00 0.756D+00
 Coeff:      0.271D-04-0.642D-04-0.860D-04-0.298D-04 0.438D-03 0.254D-02
 Coeff:      0.760D-03-0.202D-01-0.387D-01 0.249D-01 0.275D+00 0.756D+00
 Gap=     0.169 Goal=   None    Shift=    0.000
 RMSDP=7.20D-08 MaxDP=3.45D-06 DE=-8.43D-09 OVMax= 3.05D-05

 Cycle  13  Pass 1  IDiag  1:
 RMSU=  3.97D-08    CP:  2.07D-01  1.81D+00  8.38D-01  8.35D-01  1.18D+00
                    CP:  1.27D+00  1.33D+00  1.30D+00  1.23D+00  1.17D+00
                    CP:  1.18D+00  1.11D+00
 E= -3248.13789562750     Delta-E=       -0.000000001411 Rises=F Damp=F
 DIIS: error= 3.54D-07 at cycle  13 NSaved=  13.
 NSaved=13 IEnMin=13 EnMin= -3248.13789562750     IErMin=13 ErrMin= 3.54D-07
 ErrMax= 3.54D-07  0.00D+00 EMaxC= 1.00D-01 BMatC= 1.43D-10 BMatP= 6.78D-10
 IDIUse=1 WtCom= 1.00D+00 WtEn= 0.00D+00
 Coeff-Com:  0.143D-04-0.337D-04-0.700D-04-0.718D-04 0.880D-04 0.149D-02
 Coeff-Com:  0.188D-02-0.562D-02-0.172D-01-0.277D-01-0.109D-02 0.336D+00
 Coeff-Com:  0.712D+00
 Coeff:      0.143D-04-0.337D-04-0.700D-04-0.718D-04 0.880D-04 0.149D-02
 Coeff:      0.188D-02-0.562D-02-0.172D-01-0.277D-01-0.109D-02 0.336D+00
 Coeff:      0.712D+00
 Gap=     0.169 Goal=   None    Shift=    0.000
 RMSDP=3.64D-08 MaxDP=1.87D-06 DE=-1.41D-09 OVMax= 6.09D-06

 Cycle  14  Pass 1  IDiag  1:
 RMSU=  1.54D-08    CP:  2.07D-01  1.81D+00  8.38D-01  8.35D-01  1.18D+00
                    CP:  1.27D+00  1.32D+00  1.30D+00  1.24D+00  1.17D+00
                    CP:  1.20D+00  1.27D+00  1.25D+00
 E= -3248.13789562767     Delta-E=       -0.000000000167 Rises=F Damp=F
 DIIS: error= 8.15D-08 at cycle  14 NSaved=  14.
 NSaved=14 IEnMin=14 EnMin= -3248.13789562767     IErMin=14 ErrMin= 8.15D-08
 ErrMax= 8.15D-08  0.00D+00 EMaxC= 1.00D-01 BMatC= 1.29D-11 BMatP= 1.43D-10
 IDIUse=1 WtCom= 1.00D+00 WtEn= 0.00D+00
 Coeff-Com: -0.216D-06 0.538D-06-0.555D-05-0.862D-05-0.386D-04 0.783D-04
 Coeff-Com:  0.475D-03 0.109D-02 0.517D-03-0.125D-01-0.493D-01-0.395D-03
 Coeff-Com:  0.203D+00 0.857D+00
 Coeff:     -0.216D-06 0.538D-06-0.555D-05-0.862D-05-0.386D-04 0.783D-04
 Coeff:      0.475D-03 0.109D-02 0.517D-03-0.125D-01-0.493D-01-0.395D-03
 Coeff:      0.203D+00 0.857D+00
 Gap=     0.169 Goal=   None    Shift=    0.000
 RMSDP=1.91D-08 MaxDP=1.25D-06 DE=-1.67D-10 OVMax= 3.61D-06

 Cycle  15  Pass 1  IDiag  1:
 RMSU=  7.02D-09    CP:  2.07D-01  1.81D+00  8.38D-01  8.35D-01  1.18D+00
                    CP:  1.27D+00  1.32D+00  1.30D+00  1.24D+00  1.17D+00
                    CP:  1.22D+00  1.31D+00  1.48D+00  1.35D+00
 E= -3248.13789562791     Delta-E=       -0.000000000243 Rises=F Damp=F
 DIIS: error= 4.81D-08 at cycle  15 NSaved=  15.
 NSaved=15 IEnMin=15 EnMin= -3248.13789562791     IErMin=15 ErrMin= 4.81D-08
 ErrMax= 4.81D-08  0.00D+00 EMaxC= 1.00D-01 BMatC= 2.71D-12 BMatP= 1.29D-11
 IDIUse=1 WtCom= 1.00D+00 WtEn= 0.00D+00
 Coeff-Com: -0.143D-05 0.347D-05 0.513D-05 0.374D-05-0.327D-04-0.168D-03
 Coeff-Com: -0.228D-04 0.121D-02 0.268D-02-0.177D-02-0.212D-01-0.416D-01
 Coeff-Com: -0.218D-01 0.371D+00 0.712D+00
 Coeff:     -0.143D-05 0.347D-05 0.513D-05 0.374D-05-0.327D-04-0.168D-03
 Coeff:     -0.228D-04 0.121D-02 0.268D-02-0.177D-02-0.212D-01-0.416D-01
 Coeff:     -0.218D-01 0.371D+00 0.712D+00
 Gap=     0.169 Goal=   None    Shift=    0.000
 RMSDP=6.90D-09 MaxDP=4.39D-07 DE=-2.43D-10 OVMax= 8.02D-07

 Error on total polarization charges =  0.02654
 SCF Done:  E(RCAM-B3LYP) =  -3248.13789563     A.U. after   15 cycles
            NFock= 15  Conv=0.69D-08     -V/T= 2.0030
 KE= 3.238547928824D+03 PE=-1.670053677505D+04 EE= 5.689918730011D+03
 SMD-CDS (non-electrostatic) energy       (kcal/mol) =     -10.97
 (included in total energy above)
 Leave Link  502 at Thu Feb 25 06:25:17 2021, MaxMem=  5242880000 cpu:     36984.2
 (Enter /opt/nce/packages/global/g09/l601.exe)
 Copying SCF densities to generalized density rwf, IOpCl= 0 IROHF=0.

 **********************************************************************

            Population analysis using the SCF density.

 **********************************************************************

 Alpha  occ. eigenvalues -- -101.61357-101.61357-101.61354-101.61354 -19.19610
 Alpha  occ. eigenvalues --  -19.19610 -19.19573 -19.19573 -14.45291 -14.45291
 Alpha  occ. eigenvalues --  -10.38422 -10.38422 -10.38194 -10.38193 -10.34220
 Alpha  occ. eigenvalues --  -10.34220 -10.34215 -10.34214 -10.31088 -10.31086
 Alpha  occ. eigenvalues --  -10.31055 -10.31052 -10.30313 -10.30312 -10.29604
 Alpha  occ. eigenvalues --  -10.29603 -10.29174 -10.29174 -10.29143 -10.29143
 Alpha  occ. eigenvalues --  -10.28765 -10.28765 -10.28765 -10.28764 -10.27380
 Alpha  occ. eigenvalues --  -10.27380  -9.54691  -9.54691  -9.54688  -9.54688
 Alpha  occ. eigenvalues --   -7.30973  -7.30973  -7.30971  -7.30971  -7.30083
 Alpha  occ. eigenvalues --   -7.30083  -7.30080  -7.30080  -7.30028  -7.30028
 Alpha  occ. eigenvalues --   -7.30026  -7.30026  -1.16262  -1.16262  -1.14412
 Alpha  occ. eigenvalues --   -1.14412  -1.03789  -1.03581  -1.02968  -1.00348
 Alpha  occ. eigenvalues --   -1.00338  -0.98265  -0.96613  -0.95515  -0.93910
 Alpha  occ. eigenvalues --   -0.91537  -0.90899  -0.88057  -0.87487  -0.83953
 Alpha  occ. eigenvalues --   -0.83526  -0.81817  -0.81449  -0.79519  -0.78025
 Alpha  occ. eigenvalues --   -0.75574  -0.74368  -0.73469  -0.72184  -0.70964
 Alpha  occ. eigenvalues --   -0.70005  -0.69188  -0.65350  -0.63550  -0.63051
 Alpha  occ. eigenvalues --   -0.62184  -0.61742  -0.60553  -0.58718  -0.57188
 Alpha  occ. eigenvalues --   -0.56828  -0.56658  -0.55936  -0.55668  -0.54936
 Alpha  occ. eigenvalues --   -0.54811  -0.54631  -0.54273  -0.53597  -0.52917
 Alpha  occ. eigenvalues --   -0.52039  -0.51959  -0.51451  -0.50652  -0.50178
 Alpha  occ. eigenvalues --   -0.49810  -0.49710  -0.49360  -0.49224  -0.48535
 Alpha  occ. eigenvalues --   -0.48116  -0.47430  -0.47049  -0.47039  -0.46759
 Alpha  occ. eigenvalues --   -0.46424  -0.46278  -0.44899  -0.44816  -0.43866
 Alpha  occ. eigenvalues --   -0.43631  -0.42390  -0.39991  -0.39861  -0.39698
 Alpha  occ. eigenvalues --   -0.39311  -0.38561  -0.38075  -0.37055  -0.36745
 Alpha  occ. eigenvalues --   -0.36649  -0.35022  -0.34980  -0.34960  -0.34662
 Alpha  occ. eigenvalues --   -0.33521  -0.33363  -0.31806  -0.30950  -0.27025
 Alpha virt. eigenvalues --   -0.10131  -0.04558  -0.02901  -0.00827  -0.00745
 Alpha virt. eigenvalues --    0.02029   0.02551   0.04047   0.06238   0.06930
 Alpha virt. eigenvalues --    0.07697   0.07727   0.08810   0.08831   0.09933
 Alpha virt. eigenvalues --    0.10935   0.11481   0.11712   0.12040   0.12395
 Alpha virt. eigenvalues --    0.13033   0.13540   0.13706   0.13988   0.14106
 Alpha virt. eigenvalues --    0.15267   0.15749   0.15964   0.16602   0.16779
 Alpha virt. eigenvalues --    0.17042   0.17548   0.18383   0.18429   0.19145
 Alpha virt. eigenvalues --    0.19949   0.20048   0.20259   0.20611   0.21424
 Alpha virt. eigenvalues --    0.21882   0.22290   0.22485   0.22501   0.22757
 Alpha virt. eigenvalues --    0.23708   0.24116   0.24287   0.24350   0.24967
 Alpha virt. eigenvalues --    0.25062   0.25309   0.25565   0.26058   0.26154
 Alpha virt. eigenvalues --    0.26362   0.26641   0.27279   0.27358   0.27503
 Alpha virt. eigenvalues --    0.27728   0.28197   0.28598   0.28648   0.29028
 Alpha virt. eigenvalues --    0.29096   0.29359   0.29781   0.29898   0.30658
 Alpha virt. eigenvalues --    0.30753   0.31143   0.31440   0.31893   0.32075
 Alpha virt. eigenvalues --    0.32604   0.32744   0.32816   0.33184   0.33404
 Alpha virt. eigenvalues --    0.34274   0.34451   0.34716   0.34921   0.35047
 Alpha virt. eigenvalues --    0.35292   0.35732   0.35831   0.36927   0.37229
 Alpha virt. eigenvalues --    0.37410   0.37601   0.37747   0.38084   0.39001
 Alpha virt. eigenvalues --    0.39161   0.39614   0.39811   0.40106   0.40124
 Alpha virt. eigenvalues --    0.40450   0.40796   0.40814   0.41686   0.41767
 Alpha virt. eigenvalues --    0.42084   0.42178   0.42402   0.42713   0.42836
 Alpha virt. eigenvalues --    0.42874   0.43351   0.43483   0.43965   0.44616
 Alpha virt. eigenvalues --    0.44837   0.44950   0.45344   0.45965   0.46020
 Alpha virt. eigenvalues --    0.46779   0.47036   0.47405   0.48046   0.48551
 Alpha virt. eigenvalues --    0.49018   0.49292   0.49532   0.49537   0.50652
 Alpha virt. eigenvalues --    0.50724   0.50820   0.51176   0.51339   0.51601
[...]
    45  Cl   0.010613  -0.002012   0.000018  -0.000000   0.010056   0.000143
    46  Cl   0.000046   0.000015  -0.001986   0.000143  -0.000026  -0.000000
              25         26         27         28         29         30
     1  C    0.028849   0.007701  -0.001914  -0.000024   0.000358   0.000005
     2  C   -0.015093  -0.000331   0.002526   0.000071  -0.000012  -0.000002
     3  C    0.027853   0.000654   0.000202  -0.000234  -0.009801  -0.000061
     4  C   -0.091658  -0.011373  -0.058269  -0.017764  -0.097656   0.000002
     5  C    0.138424  -0.223836  -0.040633  -0.001052  -0.085687   0.000000
     6  C   -0.071274   0.068755   0.008673   0.000313   0.035050  -0.000000
     7  C    0.006090   0.000065  -0.004866  -0.000097  -0.000297  -0.001265
     8  C   -0.047142  -0.001875   0.140257  -0.219439  -0.090186  -0.000001
     9  H   -0.008482   0.020201   0.000373   0.000002   0.001545  -0.000000
    10  C    0.004322   0.000268  -0.040580   0.071601   0.033915   0.000004
    11  C   -0.002880  -0.000022   0.018874   0.006722   0.000533   0.000044
    12  H    0.000197   0.000002  -0.007914   0.019486   0.001502   0.000000
    13  C   -0.001265  -0.000043   0.000012  -0.000000  -0.000001   0.006090
    14  C   -0.000061  -0.000000  -0.000081  -0.000001  -0.000001   0.027853
    15  C    0.000044   0.000001   0.000004   0.000000  -0.000000  -0.002880
    16  C   -0.000002  -0.000002  -0.000843  -0.000035  -0.000003  -0.015093
    17  C    0.000002   0.000000   0.000000  -0.000000  -0.000000  -0.091658
    18  C    0.000004   0.000000  -0.000000  -0.000000  -0.000000   0.004322
    19  C    0.000005   0.000000   0.000027   0.000000  -0.000000   0.028849
    20  C    0.000000  -0.000000  -0.000001  -0.000000   0.000000   0.138424
    21  C   -0.000001  -0.000000   0.000000  -0.000000   0.000000  -0.047142
    22  H    0.000000   0.000000  -0.000000   0.000000   0.000000   0.000197
    23  C   -0.000000   0.000000   0.000004   0.000000  -0.000000  -0.071274
    24  H   -0.000000   0.000000   0.000000   0.000000   0.000000  -0.008482
    25  C    4.747753   0.778352  -0.079603  -0.005829   0.427333  -0.000000
    26  O    0.778352   7.823457  -0.003715  -0.000222  -0.119840  -0.000000
    27  C   -0.079603  -0.003715   4.690351   0.771755   0.450485  -0.000000
    28  O   -0.005829  -0.000222   0.771755   7.842167  -0.113756  -0.000000
    29  N    0.427333  -0.119840   0.450485  -0.113756   6.495428   0.000000
    30  C   -0.000000  -0.000000  -0.000000  -0.000000   0.000000   4.747753
    31  O   -0.000000   0.000000  -0.000000   0.000000  -0.000000   0.778352
    32  C   -0.000000  -0.000000  -0.000000  -0.000000   0.000000  -0.079603
    33  O   -0.000000   0.000000  -0.000000  -0.000000  -0.000000  -0.005829
    34  N    0.000000  -0.000000   0.000000  -0.000000  -0.000000   0.427333
    35  C   -0.060451   0.000741  -0.057826  -0.021644   0.244804   0.000000
    36  H   -0.011571   0.002860   0.005905   0.000970  -0.033204   0.000000
    37  H    0.010118   0.001627  -0.027343   0.018028  -0.030140   0.000000
    38  H   -0.010951   0.002760   0.005484   0.000974  -0.033800  -0.000000
    39  C    0.000000  -0.000000   0.000000  -0.000000   0.000000  -0.060451
    40  H    0.000000   0.000000  -0.000000   0.000000   0.000000  -0.011571
    41  H    0.000000  -0.000000   0.000000  -0.000000  -0.000000   0.010118
    42  H   -0.000000   0.000000   0.000000  -0.000000  -0.000000  -0.010951
    43  Cl  -0.000016  -0.000000   0.000001  -0.000000  -0.000000  -0.000003
    44  Cl   0.000000  -0.000000  -0.000016  -0.000000  -0.000000  -0.001173
    45  Cl  -0.000003   0.000000  -0.000958   0.000020   0.000003  -0.000016
    46  Cl  -0.001173   0.000020  -0.000001   0.000000   0.000004   0.000000
              31         32         33         34         35         36
     1  C    0.000000   0.000027   0.000000  -0.000000   0.000000   0.000003
     2  C   -0.000002  -0.000843  -0.000035  -0.000003  -0.000028  -0.000010
     3  C   -0.000000  -0.000081  -0.000001  -0.000001   0.000663   0.000024
     4  C    0.000000   0.000000  -0.000000  -0.000000   0.000522   0.000238
     5  C   -0.000000  -0.000001  -0.000000   0.000000   0.004768  -0.001720
     6  C    0.000000   0.000004   0.000000  -0.000000  -0.002768  -0.000110
     7  C   -0.000043   0.000012  -0.000000  -0.000001   0.000005   0.000007
     8  C   -0.000000   0.000000  -0.000000   0.000000   0.005040  -0.000583
     9  H    0.000000   0.000000   0.000000   0.000000  -0.000180  -0.000011
    10  C    0.000000  -0.000000  -0.000000  -0.000000  -0.001094  -0.000022
    11  C    0.000001   0.000004   0.000000  -0.000000   0.000030  -0.000004
    12  H    0.000000  -0.000000   0.000000   0.000000  -0.000031  -0.000002
    13  C    0.000065  -0.004866  -0.000097  -0.000297   0.000001  -0.000000
    14  C    0.000654   0.000202  -0.000234  -0.009801  -0.000000   0.000000
    15  C   -0.000022   0.018874   0.006722   0.000533   0.000000   0.000000
    16  C   -0.000331   0.002526   0.000071  -0.000012   0.000001   0.000000
    17  C   -0.011373  -0.058269  -0.017764  -0.097656   0.000000  -0.000000
    18  C    0.000268  -0.040580   0.071601   0.033915   0.000000   0.000000
    19  C    0.007701  -0.001914  -0.000024   0.000358   0.000000  -0.000000
    20  C   -0.223836  -0.040633  -0.001052  -0.085687   0.000000   0.000000
    21  C   -0.001875   0.140257  -0.219439  -0.090186   0.000000  -0.000000
    22  H    0.000002  -0.007914   0.019486   0.001502   0.000000  -0.000000
    23  C    0.068755   0.008673   0.000313   0.035050   0.000000  -0.000000
    24  H    0.020201   0.000373   0.000002   0.001545   0.000000  -0.000000
    25  C   -0.000000  -0.000000  -0.000000   0.000000  -0.060451  -0.011571
    26  O    0.000000  -0.000000   0.000000  -0.000000   0.000741   0.002860
    27  C   -0.000000  -0.000000  -0.000000   0.000000  -0.057826   0.005905
    28  O    0.000000  -0.000000  -0.000000  -0.000000  -0.021644   0.000970
    29  N   -0.000000   0.000000  -0.000000  -0.000000   0.244804  -0.033204
    30  C    0.778352  -0.079603  -0.005829   0.427333   0.000000   0.000000
    31  O    7.823457  -0.003715  -0.000222  -0.119840  -0.000000   0.000000
    32  C   -0.003715   4.690351   0.771755   0.450485   0.000000  -0.000000
    33  O   -0.000222   0.771755   7.842167  -0.113756  -0.000000   0.000000
    34  N   -0.119840   0.450485  -0.113756   6.495428   0.000000   0.000000
    35  C   -0.000000   0.000000  -0.000000   0.000000   4.963860   0.413888
    36  H    0.000000  -0.000000   0.000000   0.000000   0.413888   0.516324
    37  H   -0.000000   0.000000  -0.000000  -0.000000   0.410467  -0.021012
    38  H    0.000000   0.000000  -0.000000  -0.000000   0.414337  -0.030726
    39  C    0.000741  -0.057826  -0.021644   0.244804   0.000000  -0.000000
    40  H    0.002860   0.005905   0.000970  -0.033204  -0.000000   0.000000
    41  H    0.001627  -0.027343   0.018028  -0.030140   0.000000  -0.000000
    42  H    0.002760   0.005484   0.000974  -0.033800  -0.000000  -0.000000
    43  Cl   0.000000  -0.000958   0.000020   0.000003  -0.000000   0.000000
    44  Cl   0.000020  -0.000001   0.000000   0.000004  -0.000000  -0.000000
    45  Cl  -0.000000   0.000001  -0.000000  -0.000000  -0.000001   0.000000
    46  Cl  -0.000000  -0.000016  -0.000000  -0.000000  -0.000001   0.000000
              37         38         39         40         41         42
     1  C   -0.000002   0.000003   0.000000  -0.000000   0.000000   0.000000
     2  C    0.000002   0.000001   0.000001   0.000000   0.000000  -0.000000
     3  C    0.000008   0.000048  -0.000000   0.000000  -0.000000   0.000000
     4  C   -0.000672   0.000461   0.000000  -0.000000  -0.000000   0.000000
     5  C    0.001538  -0.002111   0.000000   0.000000   0.000000  -0.000000
     6  C   -0.000041  -0.000148   0.000000  -0.000000  -0.000000  -0.000000
     7  C    0.000003  -0.000006   0.000001  -0.000000   0.000000   0.000000
     8  C    0.007711  -0.000205   0.000000  -0.000000   0.000000  -0.000000
     9  H   -0.000003  -0.000010   0.000000  -0.000000  -0.000000  -0.000000
    10  C   -0.000637  -0.000021   0.000000   0.000000  -0.000000  -0.000000
    11  C   -0.000013   0.000000   0.000000   0.000000  -0.000000  -0.000000
    12  H   -0.000047   0.000001   0.000000  -0.000000  -0.000000   0.000000
    13  C    0.000000   0.000000   0.000005   0.000007   0.000003  -0.000006
    14  C   -0.000000   0.000000   0.000663   0.000024   0.000008   0.000048
    15  C   -0.000000  -0.000000   0.000030  -0.000004  -0.000013   0.000000
    16  C    0.000000  -0.000000  -0.000028  -0.000010   0.000002   0.000001
    17  C   -0.000000   0.000000   0.000522   0.000238  -0.000672   0.000461
    18  C   -0.000000  -0.000000  -0.001094  -0.000022  -0.000637  -0.000021
    19  C    0.000000   0.000000   0.000000   0.000003  -0.000002   0.000003
    20  C    0.000000  -0.000000   0.004768  -0.001720   0.001538  -0.002111
    21  C    0.000000  -0.000000   0.005040  -0.000583   0.007711  -0.000205
    22  H   -0.000000   0.000000  -0.000031  -0.000002  -0.000047   0.000001
    23  C   -0.000000  -0.000000  -0.002768  -0.000110  -0.000041  -0.000148
    24  H   -0.000000  -0.000000  -0.000180  -0.000011  -0.000003  -0.000010
    25  C    0.010118  -0.010951   0.000000   0.000000   0.000000  -0.000000
    26  O    0.001627   0.002760  -0.000000   0.000000  -0.000000   0.000000
    27  C   -0.027343   0.005484   0.000000  -0.000000   0.000000   0.000000
    28  O    0.018028   0.000974  -0.000000   0.000000  -0.000000  -0.000000
    29  N   -0.030140  -0.033800   0.000000   0.000000  -0.000000  -0.000000
    30  C    0.000000  -0.000000  -0.060451  -0.011571   0.010118  -0.010951
    31  O   -0.000000   0.000000   0.000741   0.002860   0.001627   0.002760
    32  C    0.000000   0.000000  -0.057826   0.005905  -0.027343   0.005484
    33  O   -0.000000  -0.000000  -0.021644   0.000970   0.018028   0.000974
    34  N   -0.000000  -0.000000   0.244804  -0.033204  -0.030140  -0.033800
    35  C    0.410467   0.414337   0.000000  -0.000000   0.000000  -0.000000
    36  H   -0.021012  -0.030726  -0.000000   0.000000  -0.000000  -0.000000
    37  H    0.482494  -0.021185   0.000000  -0.000000   0.000000  -0.000000
    38  H   -0.021185   0.516070  -0.000000  -0.000000  -0.000000   0.000000
    39  C    0.000000  -0.000000   4.963860   0.413888   0.410467   0.414337
    40  H   -0.000000  -0.000000   0.413888   0.516324  -0.021012  -0.030726
    41  H    0.000000  -0.000000   0.410467  -0.021012   0.482494  -0.021185
    42  H   -0.000000   0.000000   0.414337  -0.030726  -0.021185   0.516070
    43  Cl  -0.000000   0.000000  -0.000001   0.000000  -0.000000   0.000000
    44  Cl  -0.000000   0.000000  -0.000001   0.000000  -0.000000   0.000000
    45  Cl  -0.000000   0.000000  -0.000000   0.000000  -0.000000   0.000000
    46  Cl  -0.000000   0.000000  -0.000000  -0.000000  -0.000000   0.000000
              43         44         45         46
     1  C    0.010613   0.000046  -0.000024   0.346851
     2  C    0.008555  -0.000321   0.000521  -0.126549
     3  C   -0.002059  -0.002057   0.016479   0.016614
     4  C    0.000101   0.000095  -0.002289  -0.002031
     5  C   -0.002012   0.000015  -0.000104   0.010145
     6  C    0.010056  -0.000026   0.000011  -0.033610
     7  C   -0.000306   0.008302  -0.127204   0.000542
     8  C    0.000018  -0.001986   0.010621  -0.000085
     9  H    0.000143  -0.000000   0.000000   0.006317
    10  C   -0.000026   0.010020  -0.033797   0.000011
    11  C    0.000047   0.010546   0.347212  -0.000024
    12  H   -0.000000   0.000143   0.006161   0.000000
    13  C   -0.127204   0.000542  -0.000306   0.008302
    14  C    0.016479   0.016614  -0.002059  -0.002057
    15  C    0.347212  -0.000024   0.000047   0.010546
    16  C    0.000521  -0.126549   0.008555  -0.000321
    17  C   -0.002289  -0.002031   0.000101   0.000095
    18  C   -0.033797   0.000011  -0.000026   0.010020
    19  C   -0.000024   0.346851   0.010613   0.000046
    20  C   -0.000104   0.010145  -0.002012   0.000015
    21  C    0.010621  -0.000085   0.000018  -0.001986
    22  H    0.006161   0.000000  -0.000000   0.000143
    23  C    0.000011  -0.033610   0.010056  -0.000026
    24  H    0.000000   0.006317   0.000143  -0.000000
    25  C   -0.000016   0.000000  -0.000003  -0.001173
    26  O   -0.000000  -0.000000   0.000000   0.000020
    27  C    0.000001  -0.000016  -0.000958  -0.000001
    28  O   -0.000000  -0.000000   0.000020   0.000000
    29  N   -0.000000  -0.000000   0.000003   0.000004
    30  C   -0.000003  -0.001173  -0.000016   0.000000
    31  O    0.000000   0.000020  -0.000000  -0.000000
    32  C   -0.000958  -0.000001   0.000001  -0.000016
    33  O    0.000020   0.000000  -0.000000  -0.000000
    34  N    0.000003   0.000004  -0.000000  -0.000000
    35  C   -0.000000  -0.000000  -0.000001  -0.000001
    36  H    0.000000  -0.000000   0.000000   0.000000
    37  H   -0.000000  -0.000000  -0.000000  -0.000000
    38  H    0.000000   0.000000   0.000000   0.000000
    39  C   -0.000001  -0.000001  -0.000000  -0.000000
    40  H    0.000000   0.000000   0.000000  -0.000000
    41  H   -0.000000  -0.000000  -0.000000  -0.000000
    42  H    0.000000   0.000000   0.000000   0.000000
    43  Cl  16.846324  -0.000000   0.000000  -0.031425
    44  Cl  -0.000000  16.846272  -0.031425   0.000000
    45  Cl   0.000000  -0.031425  16.846324  -0.000000
    46  Cl  -0.031425   0.000000  -0.000000  16.846272
 Mulliken charges:
               1
     1  C    0.069945
     2  C    0.068958
     3  C    0.006584
     4  C    0.011249
     5  C    0.039129
     6  C   -0.240409
     7  C    0.067919
     8  C    0.038920
     9  H    0.177271
    10  C   -0.237231
    11  C    0.068246
    12  H    0.178002
    13  C    0.067919
    14  C    0.006584
    15  C    0.068246
    16  C    0.068958
    17  C    0.011249
    18  C   -0.237231
    19  C    0.069945
    20  C    0.039129
    21  C    0.038920
    22  H    0.178002
    23  C   -0.240409
    24  H    0.177271
    25  C    0.238107
    26  O   -0.346206
    27  C    0.229630
    28  O   -0.352013
    29  N   -0.076574
    30  C    0.238107
    31  O   -0.346206
    32  C    0.229630
    33  O   -0.352013
    34  N   -0.076574
    35  C   -0.315105
    36  H    0.158755
    37  H    0.169098
    38  H    0.159023
    39  C   -0.315105
    40  H    0.158755
    41  H    0.169098
    42  H    0.159023
    43  Cl  -0.056661
    44  Cl  -0.056639
    45  Cl  -0.056661
    46  Cl  -0.056639
 Sum of Mulliken charges =  -0.00000
 Mulliken charges with hydrogens summed into heavy atoms:
               1
     1  C    0.069945
     2  C    0.068958
     3  C    0.006584
     4  C    0.011249
     5  C    0.039129
     6  C   -0.063138
     7  C    0.067919
     8  C    0.038920
    10  C   -0.059229
    11  C    0.068246
    13  C    0.067919
    14  C    0.006584
    15  C    0.068246
    16  C    0.068958
    17  C    0.011249
    18  C   -0.059229
    19  C    0.069945
    20  C    0.039129
    21  C    0.038920
    23  C   -0.063138
    25  C    0.238107
    26  O   -0.346206
    27  C    0.229630
    28  O   -0.352013
    29  N   -0.076574
    30  C    0.238107
    31  O   -0.346206
    32  C    0.229630
    33  O   -0.352013
    34  N   -0.076574
    35  C    0.171772
    39  C    0.171772
    43  Cl  -0.056661
    44  Cl  -0.056639
    45  Cl  -0.056661
    46  Cl  -0.056639
 Electronic spatial extent (au):  <R**2>=          19741.0448
 Charge=             -0.0000 electrons
 Dipole moment (field-independent basis, Debye):
    X=              0.0000    Y=              0.0000    Z=              0.0149  Tot=              0.0149
 Quadrupole moment (field-independent basis, Debye-Ang):
   XX=           -252.9436   YY=           -249.8201   ZZ=           -231.3126
   XY=              0.1423   XZ=              0.0000   YZ=              0.0000
 Traceless Quadrupole moment (field-independent basis, Debye-Ang):
   XX=             -8.2515   YY=             -5.1280   ZZ=             13.3795
   XY=              0.1423   XZ=              0.0000   YZ=              0.0000
 Octapole moment (field-independent basis, Debye-Ang**2):
  XXX=             -0.0000  YYY=             -0.0000  ZZZ=              1.3633  XYY=             -0.0000
  XXY=             -0.0000  XXZ=             -1.0839  XZZ=             -0.0000  YZZ=             -0.0000
  YYZ=             -0.1462  XYZ=             53.6242
 Hexadecapole moment (field-independent basis, Debye-Ang**3):
 XXXX=          -6959.3740 YYYY=         -18016.0670 ZZZZ=          -1186.1137 XXXY=             10.8321
 XXXZ=             -0.0000 YYYX=             25.9709 YYYZ=             -0.0000 ZZZX=             -0.0000
 ZZZY=             -0.0000 XXYY=          -4983.6005 XXZZ=          -1350.2563 YYZZ=          -3232.8192
 XXYZ=              0.0000 YYXZ=             -0.0000 ZZXY=             -2.9872
 N-N= 4.559064318227D+03 E-N=-1.677184283083D+04  KE= 3.239861851098D+03
 Symmetry A    KE= 1.619687709717D+03
 Symmetry B    KE= 1.620174141380D+03
 Leave Link  601 at Fri Feb 26 04:49:07 2021, MaxMem=  5242880000 cpu:        79.0
 (Enter /opt/nce/packages/global/g09/l9999.exe)
 1\1\GINC-CN044\SP\RCAM-B3LYP TD-FC\Gen\C26H10Cl4N2O4\PNG4RJV\26-Feb-20
 21\0\\#p cam-b3lyp chkbasis geom=allcheck Guess=Read int=ultrafine scr
 f=(SMD,solvent=Dichloromethane) td=(NStates=30) EmpiricalDispersion=GD
 3BJ\\Title\\0,1\C,0,-2.2766174969,1.4260727105,0.7228467628\C,0,-1.220
 6697396,0.7110262331,0.182776752\C,0,0.0029111075,1.4135131618,-0.0016
 558681\C,0,0.00579419,2.8165253045,-0.0014375455\C,0,-1.1442730452,3.5
 139032573,0.3992246985\C,0,-2.2438028922,2.8227093129,0.8192792921\C,0
 ,1.2234302879,0.7058910878,-0.1859444503\C,0,1.1584780145,3.5105711833
 ,-0.4013802749\H,0,-3.100439264,3.3538106769,1.2076479303\C,0,2.254653
 8414,2.8138131035,-0.8217207337\C,0,2.2818851638,1.4170541348,-0.72608
 02807\H,0,3.1137004443,3.3412727578,-1.2095040931\C,0,-1.2234302884,-0
 .7058910878,-0.1859444502\C,0,-0.0029111079,-1.4135131618,-0.001655867
 8\C,0,-2.2818851638,-1.4170541349,-0.7260802814\C,0,1.2206697392,-0.71
 1026233,0.182776752\C,0,-0.0057941904,-2.8165253045,-0.0014375451\C,0,
 -2.2546538414,-2.8138131037,-0.8217207342\C,0,2.2766174969,-1.42607271
 04,0.7228467621\C,0,1.144273045,-3.5139032572,0.3992246987\C,0,-1.1584
 780147,-3.5105711833,-0.4013802747\H,0,-3.1137004439,-3.341272758,-1.2
 095040943\C,0,2.2438028922,-2.8227093128,0.8192792917\H,0,3.1004392644
 ,-3.3538106767,1.2076479292\C,0,-1.141446533,4.9904512536,0.4204831268
 \O,0,-2.1003166157,5.6366597692,0.7837655923\C,0,1.1701623698,4.989029
 2717,-0.4231009539\O,0,2.1402233452,5.6152170385,-0.7901582041\N,0,0.0
 138242265,5.6313931905,0.0005395736\C,0,1.1414465328,-4.9904512535,0.4
 204831271\O,0,2.1003166156,-5.6366597691,0.7837655924\C,0,-1.17016237,
 -4.9890292718,-0.4231009537\O,0,-2.1402233452,-5.6152170386,-0.7901582
 042\N,0,-0.0138242267,-5.6313931905,0.0005395738\C,0,-0.015408543,7.08
 94884893,0.0158534838\H,0,-0.8175835956,7.4495354866,-0.6246714858\H,0
 ,0.9383285175,7.4524598307,-0.3460305506\H,0,-0.1883346285,7.445306248
 8,1.0293562779\C,0,0.015408543,-7.0894884893,0.015853484\H,0,0.8175835
 956,-7.4495354865,-0.6246714856\H,0,-0.9383285175,-7.4524598307,-0.346
 0305505\H,0,0.1883346284,-7.4453062489,1.0293562781\Cl,0,-3.6590947486
 ,-0.6380642924,-1.4233445253\Cl,0,3.6569851259,-0.6521264433,1.4194014
 736\Cl,0,3.6590947498,0.638064292,-1.4233445219\Cl,0,-3.6569851247,0.6
 521264437,1.419401477\\Version=ES64L-G09RevE.01\State=1-A\HF=-3248.144
 7877\RMSD=8.818e-09\PG=C02 [X(C26H10Cl4N2O4)]\\@


 QED = W**5 (WHICH WAS WHAT WE WANTED)
 Job cpu time:       1 days 15 hours 46 minutes  5.5 seconds.
 File lengths (MBytes):  RWF=   7246 Int=      0 D2E=      0 Chk=   1292 Scr=      1
 Normal termination of Gaussian 09 at Fri Feb 26 04:49:09 2021.
