 Entering Gaussian System, Link 0=g09
 Input=/home/png4rjv/fotokatalizis/benchmark/OPCs/PDI_2_M062X_def2TZVP.gjf
 Output=/home/png4rjv/fotokatalizis/benchmark/OPCs/PDI_2_M062X_def2TZVP.log
 Initial command:
 /opt/nce/packages/global/g09/l1.exe "/home/png4rjv/fotokatalizis/benchmark/OPCs/PDI_2_M062X_def2TZVP/Gau-53402.inp" -scrdir="/home/png4rjv/fotokatalizis/benchmark/OPCs/PDI_2_M062X_def2TZVP/"
 Default is to use a total of  12 processors:
                               12 via shared-memory
                                1 via Linda
 Entering Link 1 = /opt/nce/packages/global/g09/l1.exe PID=     53403.
  
 Copyright (c) 1988,1990,1992,1993,1995,1998,2003,2009,2015,
            Gaussian, Inc.  All Rights Reserved.
  
 This is part of the Gaussian(R) 09 program.  It is based on
 the Gaussian(R) 03 system (copyright 2003, Gaussian, Inc.),
 the Gaussian(R) 98 system (copyright 1998, Gaussian, Inc.),
 the Gaussian(R) 94 system (copyright 1995, Gaussian, Inc.),
 the Gaussian 92(TM) system (copyright 1992, Gaussian, Inc.),
 the Gaussian 90(TM) system (copyright 1990, Gaussian, Inc.),
 the Gaussian 88(TM) system (copyright 1988, Gaussian, Inc.),
 the Gaussian 86(TM) system (copyright 1986, Carnegie Mellon
 University), and the Gaussian 82(TM) system (copyright 1983,
 Carnegie Mellon University). Gaussian is a federally registered
 trademark of Gaussian, Inc.
  
 This software contains proprietary and confidential information,
 including trade secrets, belonging to Gaussian, Inc.
  
 This software is provided under written license and may be
 used, copied, transmitted, or stored only in accord with that
 written license.
  
 The following legend is applicable only to US Government
 contracts under FAR:
  
                    RESTRICTED RIGHTS LEGEND
  
 Use, reproduction and disclosure by the US Government is
 subject to restrictions as set forth in subparagraphs (a)
 and (c) of the Commercial Computer Software - Restricted
 Rights clause in FAR 52.227-19.
  
 Gaussian, Inc.
 340 Quinnipiac St., Bldg. 40, Wallingford CT 06492
  
  
 ---------------------------------------------------------------
 Warning -- This program may not be used in any manner that
 competes with the business of Gaussian, Inc. or will provide
 assistance to any competitor of Gaussian, Inc.  The licensee
 of this program is prohibited from giving any competitor of
 Gaussian, Inc. access to this program.  By using this program,
 the user acknowledges that Gaussian, Inc. is engaged in the
 business of creating and licensing software in the field of
 computational chemistry and represents and warrants to the
 licensee that it is not a competitor of Gaussian, Inc. and that
 it will not use this program in any manner prohibited above.
 ---------------------------------------------------------------
  

 Cite this work as:
 Gaussian 09, Revision E.01,
 M. J. Frisch, G. W. Trucks, H. B. Schlegel, G. E. Scuseria, 
 M. A. Robb, J. R. Cheeseman, G. Scalmani, V. Barone, B. Mennucci, 
 G. A. Petersson, H. Nakatsuji, M. Caricato, X. Li, H. P. Hratchian, 
 A. F. Izmaylov, J. Bloino, G. Zheng, J. L. Sonnenberg, M. Hada, 
 M. Ehara, K. Toyota, R. Fukuda, J. Hasegawa, M. Ishida, T. Nakajima, 
 Y. Honda, O. Kitao, H. Nakai, T. Vreven, J. A. Montgomery, Jr., 
 J. E. Peralta, F. Ogliaro, M. Bearpark, J. J. Heyd, E. Brothers, 
 K. N. Kudin, V. N. Staroverov, T. Keith, R. Kobayashi, J. Normand, 
 K. Raghavachari, A. Rendell, J. C. Burant, S. S. Iyengar, J. Tomasi, 
 M. Cossi, N. Rega, J. M. Millam, M. Klene, J. E. Knox, J. B. Cross, 
 V. Bakken, C. Adamo, J. Jaramillo, R. Gomperts, R. E. Stratmann, 
 O. Yazyev, A. J. Austin, R. Cammi, C. Pomelli, J. W. Ochterski, 
 R. L. Martin, K. Morokuma, V. G. Zakrzewski, G. A. Voth, 
 P. Salvador, J. J. Dannenberg, S. Dapprich, A. D. Daniels, 
 O. Farkas, J. B. Foresman, J. V. Ortiz, J. Cioslowski, 
 and D. J. Fox, Gaussian, Inc., Wallingford CT, 2013.
 
 ******************************************
 Gaussian 09:  ES64L-G09RevE.01 30-Nov-2015
                23-Feb-2021 
 ******************************************
 %chk=cp.chk
 Default route:  MaxDisk=500GB
 ----------------------------------------------------------------------
 #p m062x/def2TZVP opt freq=noraman nosymm int=ultrafine scrf=(SMD,solv
 ent=Dichloromethane)
 ----------------------------------------------------------------------
 1/14=-1,18=20,19=15,26=4,38=1/1,3;
 2/9=110,12=2,15=1,17=6,18=5,40=1/2;
 3/5=44,7=101,11=2,16=1,25=1,30=1,70=32201,71=1,72=9,74=-55,75=-5/1,2,3;
 4//1;
 5/5=2,38=5,53=9/2;
 6/7=2,8=2,9=2,10=2,28=1/1;
 7/30=1/1,2,3,16;
 1/14=-1,18=20,19=15,26=4/3(2);
 2/9=110,15=1/2;
 99//99;
 2/9=110,15=1/2;
 3/5=44,7=101,11=2,16=1,25=1,30=1,70=32205,71=1,72=9,74=-55,75=-5/1,2,3;
 4/5=5,16=3,69=1/1;
 5/5=2,38=5,53=9/2;
 7/30=1/1,2,3,16;
 1/14=-1,18=20,19=15,26=4/3(-5);
 2/9=110,15=1/2;
 6/7=2,8=2,9=2,10=2,19=2,28=1/1;
 99/9=1/99;
 Leave Link    1 at Tue Feb 23 05:05:37 2021, MaxMem=           0 cpu:         1.9
 (Enter /opt/nce/packages/global/g09/l101.exe)
 -----
 Title
 -----
 Symbolic Z-matrix:
 Charge =  0 Multiplicity = 1
 C                    -2.31367   1.44465   0.70181 
 C                    -1.23241   0.71401   0.17648 
 C                     0.0032    1.42134  -0.00073 
 C                     0.00634   2.84276  -0.00082 
 C                    -1.15794   3.54791   0.38299 
 C                    -2.27981   2.84997   0.7892 
 C                     1.23546   0.7084   -0.17758 
 C                     1.17342   3.54399  -0.38411 
 H                    -3.14405   3.39784   1.16502 
 C                     2.29192   2.84     -0.79019 
 C                     2.31963   1.43462  -0.70302 
 H                     3.15884   3.38361  -1.16583 
 C                    -1.23546  -0.7084   -0.17758 
 C                    -0.0032   -1.42134  -0.00073 
 C                    -2.31963  -1.43462  -0.70302 
 C                     1.23241  -0.71401   0.17648 
 C                    -0.00634  -2.84276  -0.00082 
 C                    -2.29192  -2.84     -0.79019 
 C                     2.31367  -1.44465   0.70181 
 C                     1.15794  -3.54791   0.38299 
 C                    -1.17342  -3.54399  -0.38411 
 H                    -3.15884  -3.38361  -1.16583 
 C                     2.27981  -2.84997   0.7892 
 H                     3.14405  -3.39784   1.16502 
 C                    -1.16296   5.03327   0.40626 
 O                    -2.13019   5.6814    0.757 
 C                     1.1926    5.03106  -0.40886 
 O                     2.17213   5.65865  -0.76213 
 N                     0.01404   5.67436  -0.00053 
 C                     1.16296  -5.03327   0.40626 
 O                     2.13019  -5.6814    0.757 
 C                    -1.1926   -5.03106  -0.40886 
 O                    -2.17213  -5.65865  -0.76213 
 N                    -0.01404  -5.67436  -0.00053 
 C                    -0.01404   7.13693   0.01219 
 H                    -0.81554   7.50133  -0.64542 
 H                     0.95967   7.49584  -0.33318 
 H                    -0.22104   7.49844   1.02917 
 C                     0.01404  -7.13693   0.01219 
 H                     0.81554  -7.50133  -0.64542 
 H                    -0.95967  -7.49584  -0.33318 
 H                     0.22104  -7.49844   1.02917 
 Cl                   -3.70579  -0.65068  -1.40011 
 Cl                    3.70322  -0.66649   1.39854 
 Cl                    3.70579   0.65068  -1.40011 
 Cl                   -3.70322   0.66649   1.39854 
 
 NAtoms=     46 NQM=       46 NQMF=       0 NMMI=      0 NMMIF=      0
                NMic=       0 NMicF=      0.
                    Isotopes and Nuclear Properties:
 (Nuclear quadrupole moments (NQMom) in fm**2, nuclear magnetic moments (NMagM)
  in nuclear magnetons)

  Atom         1           2           3           4           5           6           7           8           9          10
 IAtWgt=          12          12          12          12          12          12          12          12           1          12
 AtmWgt=  12.0000000  12.0000000  12.0000000  12.0000000  12.0000000  12.0000000  12.0000000  12.0000000   1.0078250  12.0000000
 NucSpn=           0           0           0           0           0           0           0           0           1           0
 AtZEff=   0.0000000   0.0000000   0.0000000   0.0000000   0.0000000   0.0000000   0.0000000   0.0000000   0.0000000   0.0000000
 NQMom=    0.0000000   0.0000000   0.0000000   0.0000000   0.0000000   0.0000000   0.0000000   0.0000000   0.0000000   0.0000000
 NMagM=    0.0000000   0.0000000   0.0000000   0.0000000   0.0000000   0.0000000   0.0000000   0.0000000   2.7928460   0.0000000
 AtZNuc=   6.0000000   6.0000000   6.0000000   6.0000000   6.0000000   6.0000000   6.0000000   6.0000000   1.0000000   6.0000000

  Atom        11          12          13          14          15          16          17          18          19          20
 IAtWgt=          12           1          12          12          12          12          12          12          12          12
 AtmWgt=  12.0000000   1.0078250  12.0000000  12.0000000  12.0000000  12.0000000  12.0000000  12.0000000  12.0000000  12.0000000
 NucSpn=           0           1           0           0           0           0           0           0           0           0
 AtZEff=   0.0000000   0.0000000   0.0000000   0.0000000   0.0000000   0.0000000   0.0000000   0.0000000   0.0000000   0.0000000
 NQMom=    0.0000000   0.0000000   0.0000000   0.0000000   0.0000000   0.0000000   0.0000000   0.0000000   0.0000000   0.0000000
 NMagM=    0.0000000   2.7928460   0.0000000   0.0000000   0.0000000   0.0000000   0.0000000   0.0000000   0.0000000   0.0000000
 AtZNuc=   6.0000000   1.0000000   6.0000000   6.0000000   6.0000000   6.0000000   6.0000000   6.0000000   6.0000000   6.0000000

  Atom        21          22          23          24          25          26          27          28          29          30
 IAtWgt=          12           1          12           1          12          16          12          16          14          12
 AtmWgt=  12.0000000   1.0078250  12.0000000   1.0078250  12.0000000  15.9949146  12.0000000  15.9949146  14.0030740  12.0000000
 NucSpn=           0           1           0           1           0           0           0           0           2           0
 AtZEff=   0.0000000   0.0000000   0.0000000   0.0000000   0.0000000   0.0000000   0.0000000   0.0000000   0.0000000   0.0000000
 NQMom=    0.0000000   0.0000000   0.0000000   0.0000000   0.0000000   0.0000000   0.0000000   0.0000000   2.0440000   0.0000000
 NMagM=    0.0000000   2.7928460   0.0000000   2.7928460   0.0000000   0.0000000   0.0000000   0.0000000   0.4037610   0.0000000
 AtZNuc=   6.0000000   1.0000000   6.0000000   1.0000000   6.0000000   8.0000000   6.0000000   8.0000000   7.0000000   6.0000000

  Atom        31          32          33          34          35          36          37          38          39          40
 IAtWgt=          16          12          16          14          12           1           1           1          12           1
 AtmWgt=  15.9949146  12.0000000  15.9949146  14.0030740  12.0000000   1.0078250   1.0078250   1.0078250  12.0000000   1.0078250
 NucSpn=           0           0           0           2           0           1           1           1           0           1
 AtZEff=   0.0000000   0.0000000   0.0000000   0.0000000   0.0000000   0.0000000   0.0000000   0.0000000   0.0000000   0.0000000
 NQMom=    0.0000000   0.0000000   0.0000000   2.0440000   0.0000000   0.0000000   0.0000000   0.0000000   0.0000000   0.0000000
 NMagM=    0.0000000   0.0000000   0.0000000   0.4037610   0.0000000   2.7928460   2.7928460   2.7928460   0.0000000   2.7928460
 AtZNuc=   8.0000000   6.0000000   8.0000000   7.0000000   6.0000000   1.0000000   1.0000000   1.0000000   6.0000000   1.0000000

  Atom        41          42          43          44          45          46
 IAtWgt=           1           1          35          35          35          35
 AtmWgt=   1.0078250   1.0078250  34.9688527  34.9688527  34.9688527  34.9688527
 NucSpn=           1           1           3           3           3           3
 AtZEff=   0.0000000   0.0000000   0.0000000   0.0000000   0.0000000   0.0000000
 NQMom=    0.0000000   0.0000000  -8.1650000  -8.1650000  -8.1650000  -8.1650000
 NMagM=    2.7928460   2.7928460   0.8218740   0.8218740   0.8218740   0.8218740
 AtZNuc=   1.0000000   1.0000000  17.0000000  17.0000000  17.0000000  17.0000000
 Leave Link  101 at Tue Feb 23 05:05:37 2021, MaxMem=  5242880000 cpu:         4.2
 (Enter /opt/nce/packages/global/g09/l103.exe)

 GradGradGradGradGradGradGradGradGradGradGradGradGradGradGradGradGradGrad
 Berny optimization.
 Initialization pass.
                           ----------------------------
                           !    Initial Parameters    !
                           ! (Angstroms and Degrees)  !
 --------------------------                            --------------------------
 ! Name  Definition              Value          Derivative Info.                !
 --------------------------------------------------------------------------------
 ! R1    R(1,2)                  1.4068         estimate D2E/DX2                !
 ! R2    R(1,6)                  1.4084         estimate D2E/DX2                !
 ! R3    R(1,46)                 1.7383         estimate D2E/DX2                !
 ! R4    R(2,3)                  1.4347         estimate D2E/DX2                !
 ! R5    R(2,13)                 1.4658         estimate D2E/DX2                !
 ! R6    R(3,4)                  1.4214         estimate D2E/DX2                !
 ! R7    R(3,7)                  1.4346         estimate D2E/DX2                !
 ! R8    R(4,5)                  1.4142         estimate D2E/DX2                !
 ! R9    R(4,8)                  1.4145         estimate D2E/DX2                !
 ! R10   R(5,6)                  1.3823         estimate D2E/DX2                !
 ! R11   R(5,25)                 1.4856         estimate D2E/DX2                !
 ! R12   R(6,9)                  1.0901         estimate D2E/DX2                !
 ! R13   R(7,11)                 1.4067         estimate D2E/DX2                !
 ! R14   R(7,16)                 1.4658         estimate D2E/DX2                !
 ! R15   R(8,10)                 1.3826         estimate D2E/DX2                !
 ! R16   R(8,27)                 1.4874         estimate D2E/DX2                !
 ! R17   R(10,11)                1.4084         estimate D2E/DX2                !
 ! R18   R(10,12)                1.09           estimate D2E/DX2                !
 ! R19   R(11,45)                1.7384         estimate D2E/DX2                !
 ! R20   R(13,14)                1.4346         estimate D2E/DX2                !
 ! R21   R(13,15)                1.4067         estimate D2E/DX2                !
 ! R22   R(14,16)                1.4347         estimate D2E/DX2                !
 ! R23   R(14,17)                1.4214         estimate D2E/DX2                !
 ! R24   R(15,18)                1.4084         estimate D2E/DX2                !
 ! R25   R(15,43)                1.7384         estimate D2E/DX2                !
 ! R26   R(16,19)                1.4068         estimate D2E/DX2                !
 ! R27   R(17,20)                1.4142         estimate D2E/DX2                !
 ! R28   R(17,21)                1.4145         estimate D2E/DX2                !
 ! R29   R(18,21)                1.3826         estimate D2E/DX2                !
 ! R30   R(18,22)                1.09           estimate D2E/DX2                !
 ! R31   R(19,23)                1.4084         estimate D2E/DX2                !
 ! R32   R(19,44)                1.7383         estimate D2E/DX2                !
 ! R33   R(20,23)                1.3823         estimate D2E/DX2                !
 ! R34   R(20,30)                1.4856         estimate D2E/DX2                !
 ! R35   R(21,32)                1.4874         estimate D2E/DX2                !
 ! R36   R(23,24)                1.0901         estimate D2E/DX2                !
 ! R37   R(25,26)                1.216          estimate D2E/DX2                !
 ! R38   R(25,29)                1.4006         estimate D2E/DX2                !
 ! R39   R(27,28)                1.2158         estimate D2E/DX2                !
 ! R40   R(27,29)                1.4034         estimate D2E/DX2                !
 ! R41   R(29,35)                1.4629         estimate D2E/DX2                !
 ! R42   R(30,31)                1.216          estimate D2E/DX2                !
 ! R43   R(30,34)                1.4006         estimate D2E/DX2                !
 ! R44   R(32,33)                1.2158         estimate D2E/DX2                !
 ! R45   R(32,34)                1.4034         estimate D2E/DX2                !
 ! R46   R(34,39)                1.4629         estimate D2E/DX2                !
 ! R47   R(35,36)                1.0989         estimate D2E/DX2                !
 ! R48   R(35,37)                1.0937         estimate D2E/DX2                !
 ! R49   R(35,38)                1.099          estimate D2E/DX2                !
 ! R50   R(39,40)                1.0989         estimate D2E/DX2                !
 ! R51   R(39,41)                1.0937         estimate D2E/DX2                !
 ! R52   R(39,42)                1.099          estimate D2E/DX2                !
 ! A1    A(2,1,6)              121.5286         estimate D2E/DX2                !
 ! A2    A(2,1,46)             122.1118         estimate D2E/DX2                !
 ! A3    A(6,1,46)             116.1684         estimate D2E/DX2                !
 ! A4    A(1,2,3)              116.8731         estimate D2E/DX2                !
 ! A5    A(1,2,13)             126.3423         estimate D2E/DX2                !
 ! A6    A(3,2,13)             116.767          estimate D2E/DX2                !
 ! A7    A(2,3,4)              119.6641         estimate D2E/DX2                !
 ! A8    A(2,3,7)              120.6624         estimate D2E/DX2                !
 ! A9    A(4,3,7)              119.6736         estimate D2E/DX2                !
 ! A10   A(3,4,5)              119.7866         estimate D2E/DX2                !
 ! A11   A(3,4,8)              119.8412         estimate D2E/DX2                !
 ! A12   A(5,4,8)              120.3722         estimate D2E/DX2                !
 ! A13   A(4,5,6)              119.7457         estimate D2E/DX2                !
 ! A14   A(4,5,25)             120.3696         estimate D2E/DX2                !
 ! A15   A(6,5,25)             119.835          estimate D2E/DX2                !
 ! A16   A(1,6,5)              120.3364         estimate D2E/DX2                !
 ! A17   A(1,6,9)              120.252          estimate D2E/DX2                !
 ! A18   A(5,6,9)              119.4062         estimate D2E/DX2                !
 ! A19   A(3,7,11)             116.84           estimate D2E/DX2                !
 ! A20   A(3,7,16)             116.7876         estimate D2E/DX2                !
 ! A21   A(11,7,16)            126.3544         estimate D2E/DX2                !
 ! A22   A(4,8,10)             119.6471         estimate D2E/DX2                !
 ! A23   A(4,8,27)             120.7171         estimate D2E/DX2                !
 ! A24   A(10,8,27)            119.5874         estimate D2E/DX2                !
 ! A25   A(8,10,11)            120.3873         estimate D2E/DX2                !
 ! A26   A(8,10,12)            119.3856         estimate D2E/DX2                !
 ! A27   A(11,10,12)           120.2215         estimate D2E/DX2                !
 ! A28   A(7,11,10)            121.5411         estimate D2E/DX2                !
 ! A29   A(7,11,45)            122.1087         estimate D2E/DX2                !
 ! A30   A(10,11,45)           116.1596         estimate D2E/DX2                !
 ! A31   A(2,13,14)            116.7876         estimate D2E/DX2                !
 ! A32   A(2,13,15)            126.3544         estimate D2E/DX2                !
 ! A33   A(14,13,15)           116.84           estimate D2E/DX2                !
 ! A34   A(13,14,16)           120.6624         estimate D2E/DX2                !
 ! A35   A(13,14,17)           119.6736         estimate D2E/DX2                !
 ! A36   A(16,14,17)           119.6641         estimate D2E/DX2                !
 ! A37   A(13,15,18)           121.5411         estimate D2E/DX2                !
 ! A38   A(13,15,43)           122.1087         estimate D2E/DX2                !
 ! A39   A(18,15,43)           116.1596         estimate D2E/DX2                !
 ! A40   A(7,16,14)            116.767          estimate D2E/DX2                !
 ! A41   A(7,16,19)            126.3423         estimate D2E/DX2                !
 ! A42   A(14,16,19)           116.8731         estimate D2E/DX2                !
 ! A43   A(14,17,20)           119.7866         estimate D2E/DX2                !
 ! A44   A(14,17,21)           119.8412         estimate D2E/DX2                !
 ! A45   A(20,17,21)           120.3722         estimate D2E/DX2                !
 ! A46   A(15,18,21)           120.3873         estimate D2E/DX2                !
 ! A47   A(15,18,22)           120.2215         estimate D2E/DX2                !
 ! A48   A(21,18,22)           119.3856         estimate D2E/DX2                !
 ! A49   A(16,19,23)           121.5286         estimate D2E/DX2                !
 ! A50   A(16,19,44)           122.1118         estimate D2E/DX2                !
 ! A51   A(23,19,44)           116.1684         estimate D2E/DX2                !
 ! A52   A(17,20,23)           119.7457         estimate D2E/DX2                !
 ! A53   A(17,20,30)           120.3696         estimate D2E/DX2                !
 ! A54   A(23,20,30)           119.835          estimate D2E/DX2                !
 ! A55   A(17,21,18)           119.6471         estimate D2E/DX2                !
 ! A56   A(17,21,32)           120.7171         estimate D2E/DX2                !
 ! A57   A(18,21,32)           119.5874         estimate D2E/DX2                !
 ! A58   A(19,23,20)           120.3364         estimate D2E/DX2                !
 ! A59   A(19,23,24)           120.252          estimate D2E/DX2                !
 ! A60   A(20,23,24)           119.4062         estimate D2E/DX2                !
 ! A61   A(5,25,26)            122.6931         estimate D2E/DX2                !
 ! A62   A(5,25,29)            116.7607         estimate D2E/DX2                !
 ! A63   A(26,25,29)           120.5463         estimate D2E/DX2                !
 ! A64   A(8,27,28)            122.0941         estimate D2E/DX2                !
 ! A65   A(8,27,29)            116.2707         estimate D2E/DX2                !
 ! A66   A(28,27,29)           121.6352         estimate D2E/DX2                !
 ! A67   A(25,29,27)           125.4774         estimate D2E/DX2                !
 ! A68   A(25,29,35)           116.0378         estimate D2E/DX2                !
 ! A69   A(27,29,35)           118.4847         estimate D2E/DX2                !
 ! A70   A(20,30,31)           122.6931         estimate D2E/DX2                !
 ! A71   A(20,30,34)           116.7607         estimate D2E/DX2                !
 ! A72   A(31,30,34)           120.5463         estimate D2E/DX2                !
 ! A73   A(21,32,33)           122.0941         estimate D2E/DX2                !
 ! A74   A(21,32,34)           116.2707         estimate D2E/DX2                !
 ! A75   A(33,32,34)           121.6352         estimate D2E/DX2                !
 ! A76   A(30,34,32)           125.4774         estimate D2E/DX2                !
 ! A77   A(30,34,39)           116.0378         estimate D2E/DX2                !
 ! A78   A(32,34,39)           118.4847         estimate D2E/DX2                !
 ! A79   A(29,35,36)           109.8958         estimate D2E/DX2                !
 ! A80   A(29,35,37)           107.9542         estimate D2E/DX2                !
 ! A81   A(29,35,38)           109.9088         estimate D2E/DX2                !
 ! A82   A(36,35,37)           110.5822         estimate D2E/DX2                !
 ! A83   A(36,35,38)           107.8964         estimate D2E/DX2                !
 ! A84   A(37,35,38)           110.6073         estimate D2E/DX2                !
 ! A85   A(34,39,40)           109.8958         estimate D2E/DX2                !
 ! A86   A(34,39,41)           107.9542         estimate D2E/DX2                !
 ! A87   A(34,39,42)           109.9088         estimate D2E/DX2                !
 ! A88   A(40,39,41)           110.5822         estimate D2E/DX2                !
 ! A89   A(40,39,42)           107.8964         estimate D2E/DX2                !
 ! A90   A(41,39,42)           110.6073         estimate D2E/DX2                !
 ! D1    D(6,1,2,3)             12.8378         estimate D2E/DX2                !
 ! D2    D(6,1,2,13)          -168.7469         estimate D2E/DX2                !
 ! D3    D(46,1,2,3)          -161.9439         estimate D2E/DX2                !
 ! D4    D(46,1,2,13)           16.4715         estimate D2E/DX2                !
 ! D5    D(2,1,6,5)             -1.4493         estimate D2E/DX2                !
 ! D6    D(2,1,6,9)            177.6935         estimate D2E/DX2                !
 ! D7    D(46,1,6,5)           173.6266         estimate D2E/DX2                !
 ! D8    D(46,1,6,9)            -7.2306         estimate D2E/DX2                !
 ! D9    D(1,2,3,4)            -16.9653         estimate D2E/DX2                !
 ! D10   D(1,2,3,7)            163.0229         estimate D2E/DX2                !
 ! D11   D(13,2,3,4)           164.4643         estimate D2E/DX2                !
 ! D12   D(13,2,3,7)           -15.5475         estimate D2E/DX2                !
 ! D13   D(1,2,13,14)         -147.3207         estimate D2E/DX2                !
 ! D14   D(1,2,13,15)           34.2768         estimate D2E/DX2                !
 ! D15   D(3,2,13,14)           31.0961         estimate D2E/DX2                !
 ! D16   D(3,2,13,15)         -147.3064         estimate D2E/DX2                !
 ! D17   D(2,3,4,5)             10.0537         estimate D2E/DX2                !
 ! D18   D(2,3,4,8)           -169.9678         estimate D2E/DX2                !
 ! D19   D(7,3,4,5)           -169.9347         estimate D2E/DX2                !
 ! D20   D(7,3,4,8)             10.0438         estimate D2E/DX2                !
 ! D21   D(2,3,7,11)           163.037          estimate D2E/DX2                !
 ! D22   D(2,3,7,16)           -15.5211         estimate D2E/DX2                !
 ! D23   D(4,3,7,11)           -16.9748         estimate D2E/DX2                !
 ! D24   D(4,3,7,16)           164.4671         estimate D2E/DX2                !
 ! D25   D(3,4,5,6)              1.6918         estimate D2E/DX2                !
 ! D26   D(3,4,5,25)           179.1246         estimate D2E/DX2                !
 ! D27   D(8,4,5,6)           -178.2865         estimate D2E/DX2                !
 ! D28   D(8,4,5,25)            -0.8537         estimate D2E/DX2                !
 ! D29   D(3,4,8,10)             1.713          estimate D2E/DX2                !
 ! D30   D(3,4,8,27)           179.1726         estimate D2E/DX2                !
 ! D31   D(5,4,8,10)          -178.3086         estimate D2E/DX2                !
 ! D32   D(5,4,8,27)            -0.849          estimate D2E/DX2                !
 ! D33   D(4,5,6,1)             -6.0772         estimate D2E/DX2                !
 ! D34   D(4,5,6,9)            174.7727         estimate D2E/DX2                !
 ! D35   D(25,5,6,1)           176.4762         estimate D2E/DX2                !
 ! D36   D(25,5,6,9)            -2.6739         estimate D2E/DX2                !
 ! D37   D(4,5,25,26)         -178.3477         estimate D2E/DX2                !
 ! D38   D(4,5,25,29)            1.6806         estimate D2E/DX2                !
 ! D39   D(6,5,25,26)           -0.9172         estimate D2E/DX2                !
 ! D40   D(6,5,25,29)          179.1111         estimate D2E/DX2                !
 ! D41   D(3,7,11,10)           12.8636         estimate D2E/DX2                !
 ! D42   D(3,7,11,45)         -161.9253         estimate D2E/DX2                !
 ! D43   D(16,7,11,10)        -168.7346         estimate D2E/DX2                !
 ! D44   D(16,7,11,45)          16.4765         estimate D2E/DX2                !
 ! D45   D(3,7,16,14)           31.0961         estimate D2E/DX2                !
 ! D46   D(3,7,16,19)         -147.3207         estimate D2E/DX2                !
 ! D47   D(11,7,16,14)        -147.3064         estimate D2E/DX2                !
 ! D48   D(11,7,16,19)          34.2768         estimate D2E/DX2                !
 ! D49   D(4,8,10,11)           -6.0852         estimate D2E/DX2                !
 ! D50   D(4,8,10,12)          174.774          estimate D2E/DX2                !
 ! D51   D(27,8,10,11)         176.4263         estimate D2E/DX2                !
 ! D52   D(27,8,10,12)          -2.7146         estimate D2E/DX2                !
 ! D53   D(4,8,27,28)         -178.3541         estimate D2E/DX2                !
 ! D54   D(4,8,27,29)            1.6544         estimate D2E/DX2                !
 ! D55   D(10,8,27,28)          -0.893          estimate D2E/DX2                !
 ! D56   D(10,8,27,29)         179.1155         estimate D2E/DX2                !
 ! D57   D(8,10,11,7)           -1.4644         estimate D2E/DX2                !
 ! D58   D(8,10,11,45)         173.6186         estimate D2E/DX2                !
 ! D59   D(12,10,11,7)         177.6692         estimate D2E/DX2                !
 ! D60   D(12,10,11,45)         -7.2478         estimate D2E/DX2                !
 ! D61   D(2,13,14,16)         -15.5211         estimate D2E/DX2                !
 ! D62   D(2,13,14,17)         164.4671         estimate D2E/DX2                !
 ! D63   D(15,13,14,16)        163.037          estimate D2E/DX2                !
 ! D64   D(15,13,14,17)        -16.9748         estimate D2E/DX2                !
 ! D65   D(2,13,15,18)        -168.7346         estimate D2E/DX2                !
 ! D66   D(2,13,15,43)          16.4765         estimate D2E/DX2                !
 ! D67   D(14,13,15,18)         12.8636         estimate D2E/DX2                !
 ! D68   D(14,13,15,43)       -161.9253         estimate D2E/DX2                !
 ! D69   D(13,14,16,7)         -15.5475         estimate D2E/DX2                !
 ! D70   D(13,14,16,19)        163.0229         estimate D2E/DX2                !
 ! D71   D(17,14,16,7)         164.4643         estimate D2E/DX2                !
 ! D72   D(17,14,16,19)        -16.9653         estimate D2E/DX2                !
 ! D73   D(13,14,17,20)       -169.9347         estimate D2E/DX2                !
 ! D74   D(13,14,17,21)         10.0438         estimate D2E/DX2                !
 ! D75   D(16,14,17,20)         10.0537         estimate D2E/DX2                !
 ! D76   D(16,14,17,21)       -169.9678         estimate D2E/DX2                !
 ! D77   D(13,15,18,21)         -1.4644         estimate D2E/DX2                !
 ! D78   D(13,15,18,22)        177.6692         estimate D2E/DX2                !
 ! D79   D(43,15,18,21)        173.6186         estimate D2E/DX2                !
 ! D80   D(43,15,18,22)         -7.2478         estimate D2E/DX2                !
 ! D81   D(7,16,19,23)        -168.7469         estimate D2E/DX2                !
 ! D82   D(7,16,19,44)          16.4715         estimate D2E/DX2                !
 ! D83   D(14,16,19,23)         12.8378         estimate D2E/DX2                !
 ! D84   D(14,16,19,44)       -161.9439         estimate D2E/DX2                !
 ! D85   D(14,17,20,23)          1.6918         estimate D2E/DX2                !
 ! D86   D(14,17,20,30)        179.1246         estimate D2E/DX2                !
 ! D87   D(21,17,20,23)       -178.2865         estimate D2E/DX2                !
 ! D88   D(21,17,20,30)         -0.8537         estimate D2E/DX2                !
 ! D89   D(14,17,21,18)          1.713          estimate D2E/DX2                !
 ! D90   D(14,17,21,32)        179.1726         estimate D2E/DX2                !
 ! D91   D(20,17,21,18)       -178.3086         estimate D2E/DX2                !
 ! D92   D(20,17,21,32)         -0.849          estimate D2E/DX2                !
 ! D93   D(15,18,21,17)         -6.0852         estimate D2E/DX2                !
 ! D94   D(15,18,21,32)        176.4263         estimate D2E/DX2                !
 ! D95   D(22,18,21,17)        174.774          estimate D2E/DX2                !
 ! D96   D(22,18,21,32)         -2.7146         estimate D2E/DX2                !
 ! D97   D(16,19,23,20)         -1.4493         estimate D2E/DX2                !
 ! D98   D(16,19,23,24)        177.6935         estimate D2E/DX2                !
 ! D99   D(44,19,23,20)        173.6266         estimate D2E/DX2                !
 ! D100  D(44,19,23,24)         -7.2306         estimate D2E/DX2                !
 ! D101  D(17,20,23,19)         -6.0772         estimate D2E/DX2                !
 ! D102  D(17,20,23,24)        174.7727         estimate D2E/DX2                !
 ! D103  D(30,20,23,19)        176.4762         estimate D2E/DX2                !
 ! D104  D(30,20,23,24)         -2.6739         estimate D2E/DX2                !
 ! D105  D(17,20,30,31)       -178.3477         estimate D2E/DX2                !
 ! D106  D(17,20,30,34)          1.6806         estimate D2E/DX2                !
 ! D107  D(23,20,30,31)         -0.9172         estimate D2E/DX2                !
 ! D108  D(23,20,30,34)        179.1111         estimate D2E/DX2                !
 ! D109  D(17,21,32,33)       -178.3541         estimate D2E/DX2                !
 ! D110  D(17,21,32,34)          1.6544         estimate D2E/DX2                !
 ! D111  D(18,21,32,33)         -0.893          estimate D2E/DX2                !
 ! D112  D(18,21,32,34)        179.1155         estimate D2E/DX2                !
 ! D113  D(5,25,29,27)          -0.8311         estimate D2E/DX2                !
 ! D114  D(5,25,29,35)         179.2451         estimate D2E/DX2                !
 ! D115  D(26,25,29,27)        179.1966         estimate D2E/DX2                !
 ! D116  D(26,25,29,35)         -0.7272         estimate D2E/DX2                !
 ! D117  D(8,27,29,25)          -0.7827         estimate D2E/DX2                !
 ! D118  D(8,27,29,35)         179.1394         estimate D2E/DX2                !
 ! D119  D(28,27,29,25)        179.2258         estimate D2E/DX2                !
 ! D120  D(28,27,29,35)         -0.8521         estimate D2E/DX2                !
 ! D121  D(25,29,35,36)        -58.8757         estimate D2E/DX2                !
 ! D122  D(25,29,35,37)       -179.558          estimate D2E/DX2                !
 ! D123  D(25,29,35,38)         59.7215         estimate D2E/DX2                !
 ! D124  D(27,29,35,36)        121.1949         estimate D2E/DX2                !
 ! D125  D(27,29,35,37)          0.5126         estimate D2E/DX2                !
 ! D126  D(27,29,35,38)       -120.2079         estimate D2E/DX2                !
 ! D127  D(20,30,34,32)         -0.8311         estimate D2E/DX2                !
 ! D128  D(20,30,34,39)        179.2451         estimate D2E/DX2                !
 ! D129  D(31,30,34,32)        179.1966         estimate D2E/DX2                !
 ! D130  D(31,30,34,39)         -0.7272         estimate D2E/DX2                !
 ! D131  D(21,32,34,30)         -0.7827         estimate D2E/DX2                !
 ! D132  D(21,32,34,39)        179.1394         estimate D2E/DX2                !
 ! D133  D(33,32,34,30)        179.2258         estimate D2E/DX2                !
 ! D134  D(33,32,34,39)         -0.8521         estimate D2E/DX2                !
 ! D135  D(30,34,39,40)        -58.8757         estimate D2E/DX2                !
 ! D136  D(30,34,39,41)       -179.558          estimate D2E/DX2                !
 ! D137  D(30,34,39,42)         59.7215         estimate D2E/DX2                !
 ! D138  D(32,34,39,40)        121.1949         estimate D2E/DX2                !
 ! D139  D(32,34,39,41)          0.5126         estimate D2E/DX2                !
 ! D140  D(32,34,39,42)       -120.2079         estimate D2E/DX2                !
 --------------------------------------------------------------------------------
 Trust Radius=3.00D-01 FncErr=1.00D-07 GrdErr=1.00D-06
 Number of steps in this run=    276 maximum allowed number of steps=    276.
 GradGradGradGradGradGradGradGradGradGradGradGradGradGradGradGradGradGrad

 Leave Link  103 at Tue Feb 23 05:05:37 2021, MaxMem=  5242880000 cpu:         0.2
 (Enter /opt/nce/packages/global/g09/l202.exe)
                          Input orientation:                          
 ---------------------------------------------------------------------
 Center     Atomic      Atomic             Coordinates (Angstroms)
 Number     Number       Type             X           Y           Z
 ---------------------------------------------------------------------
      1          6           0       -2.313671    1.444653    0.701814
      2          6           0       -1.232407    0.714006    0.176480
      3          6           0        0.003203    1.421335   -0.000734
      4          6           0        0.006344    2.842758   -0.000815
      5          6           0       -1.157935    3.547910    0.382990
      6          6           0       -2.279810    2.849971    0.789197
      7          6           0        1.235457    0.708404   -0.177579
      8          6           0        1.173420    3.543994   -0.384113
      9          1           0       -3.144048    3.397840    1.165018
     10          6           0        2.291922    2.840004   -0.790191
     11          6           0        2.319626    1.434616   -0.703019
     12          1           0        3.158838    3.383613   -1.165825
     13          6           0       -1.235457   -0.708404   -0.177579
     14          6           0       -0.003203   -1.421335   -0.000734
     15          6           0       -2.319626   -1.434616   -0.703019
     16          6           0        1.232407   -0.714006    0.176480
     17          6           0       -0.006344   -2.842758   -0.000815
     18          6           0       -2.291922   -2.840004   -0.790191
     19          6           0        2.313671   -1.444653    0.701814
     20          6           0        1.157935   -3.547910    0.382990
     21          6           0       -1.173420   -3.543994   -0.384113
     22          1           0       -3.158838   -3.383613   -1.165825
     23          6           0        2.279810   -2.849971    0.789197
     24          1           0        3.144048   -3.397840    1.165018
     25          6           0       -1.162958    5.033274    0.406255
     26          8           0       -2.130193    5.681397    0.757004
     27          6           0        1.192601    5.031055   -0.408862
     28          8           0        2.172135    5.658651   -0.762127
     29          7           0        0.014035    5.674363   -0.000527
     30          6           0        1.162958   -5.033274    0.406255
     31          8           0        2.130193   -5.681397    0.757004
     32          6           0       -1.192601   -5.031055   -0.408862
     33          8           0       -2.172135   -5.658651   -0.762127
     34          7           0       -0.014035   -5.674363   -0.000527
     35          6           0       -0.014035    7.136934    0.012185
     36          1           0       -0.815538    7.501325   -0.645419
     37          1           0        0.959669    7.495841   -0.333183
     38          1           0       -0.221042    7.498440    1.029170
     39          6           0        0.014035   -7.136934    0.012185
     40          1           0        0.815538   -7.501325   -0.645419
     41          1           0       -0.959669   -7.495841   -0.333183
     42          1           0        0.221042   -7.498440    1.029170
     43         17           0       -3.705792   -0.650677   -1.400114
     44         17           0        3.703215   -0.666485    1.398541
     45         17           0        3.705792    0.650677   -1.400114
     46         17           0       -3.703215    0.666485    1.398541
 ---------------------------------------------------------------------
                    Distance matrix (angstroms):
                    1          2          3          4          5
     1  C    0.000000
     2  C    1.406753   0.000000
     3  C    2.421161   1.434730   0.000000
     4  C    2.798366   2.469316   1.421426   0.000000
     5  C    2.420964   2.842394   2.453122   1.414246   0.000000
     6  C    1.408439   2.456587   2.806624   2.418816   1.382290
     7  C    3.729840   2.493139   1.434571   2.469298   3.755710
     8  C    4.212633   3.756474   2.453990   1.414467   2.454318
     9  H    2.172331   3.440137   3.894963   3.404740   2.139798
    10  C    5.038310   4.227909   2.806082   2.418055   3.712007
    11  C    4.841601   3.729576   2.420578   2.797718   4.211752
    12  H    6.098852   5.311461   3.894355   3.404114   4.589156
    13  C    2.563500   1.465816   2.470089   3.766174   4.293769
    14  C    3.747762   2.470228   2.842677   4.264104   5.116058
    15  C    3.203714   2.563619   3.747692   4.919264   5.230154
    16  C    4.184549   2.848601   2.470228   3.766329   4.890839
    17  C    4.919282   3.766329   4.264104   5.685530   6.504929
    18  C    4.537052   3.832494   4.904065   6.180528   6.593006
    19  C    5.455308   4.184549   3.747762   4.919282   6.089284
    20  C    6.089284   4.890839   5.116058   6.504929   7.464175
    21  C    5.231253   4.295149   5.117217   6.506102   7.133287
    22  H    5.245430   4.722648   5.868856   7.081195   7.378919
    23  C    6.288998   5.041133   4.904180   6.180609   7.274337
    24  H    7.311019   6.085872   5.869270   7.081625   8.207440
    25  C    3.780171   4.325933   3.817286   2.516214   1.485555
    26  O    4.241074   5.081142   4.824280   3.632761   2.374224
    27  C    5.137103   4.986001   3.822475   2.522370   2.889943
    28  O    6.326402   6.076299   4.820667   3.633112   4.105592
    29  N    4.878724   5.117625   4.253042   2.831615   2.458130
    30  C    7.357842   6.230714   6.570590   7.970906   8.889533
    31  O    8.398307   7.248811   7.452990   8.817383   9.804682
    32  C    6.665223   5.774940   6.574941   7.975017   8.615502
    33  O    7.253970   6.509595   7.445671   8.809048   9.332773
    34  N    7.514120   6.505922   7.095719   8.517145   9.300855
    35  C    6.177862   6.539528   5.715640   4.294244   3.785115
    36  H    6.383002   6.849598   6.168649   4.774228   4.099311
    37  H    6.957216   7.145505   6.158325   4.761353   4.536883
    38  H    6.413626   6.912198   6.167835   4.773672   4.111205
    39  C    8.918376   7.950967   8.558286   9.979703  10.755320
    40  H    9.572748   8.506542   8.982726  10.395690  11.271105
    41  H    9.101482   8.230172   8.975170  10.388950  11.068724
    42  H    9.301121   8.383547   8.981678  10.394582  11.150828
    43  Cl   3.278187   3.235064   4.473046   5.286027   5.224861
    44  Cl   6.414456   5.268734   4.472924   5.285815   6.513313
    45  Cl   6.425141   5.184156   4.032536   4.522076   5.935424
    46  Cl   1.738334   2.756916   4.033027   4.522741   3.976481
                    6          7          8          9         10
     6  C    0.000000
     7  C    4.228246   0.000000
     8  C    3.712563   2.843778   0.000000
     9  H    1.090096   5.311845   4.589303   0.000000
    10  C    4.836869   2.456650   1.382587   5.803774   0.000000
    11  C    5.038328   1.406731   2.421769   6.098815   1.408361
    12  H    5.803945   3.439879   2.139785   6.720075   1.090025
    13  C    3.832409   2.848291   4.891649   4.722979   5.040724
    14  C    4.904180   2.470089   5.117217   5.869270   4.904065
    15  C    4.537177   4.184165   6.090126   5.246129   6.288589
    16  C    5.041133   1.465816   4.295149   6.085872   3.832494
    17  C    6.180609   3.766174   6.506102   7.081625   6.180528
    18  C    5.905119   5.040724   7.275227   6.592394   7.298912
    19  C    6.288998   2.563500   5.231253   7.311019   4.537052
    20  C    7.274337   4.293769   7.133287   8.207440   6.593006
    21  C    6.594205   4.891649   7.466407   7.380531   7.275227
    22  H    6.591841   6.085315   8.208000   7.170854   8.281624
    23  C    7.299279   3.832409   6.594205   8.282187   5.905119
    24  H    8.282187   4.722979   7.380531   9.258586   6.592394
    25  C    2.482099   4.979735   2.881197   2.678635   4.263580
    26  O    2.835559   6.077146   4.096889   2.531602   5.479273
    27  C    4.272015   4.329046   1.487391   4.893977   2.480851
    28  O    5.487723   5.071884   2.368987   6.089906   2.821331
    29  N    3.723248   5.117027   2.455562   4.063809   3.721012
    30  C    8.610740   5.771740   8.613612   9.497879   8.043292
    31  O    9.603822   6.519475   9.344806  10.507932   8.662231
    32  C    8.045368   6.236213   8.895512   8.793834   8.616315
    33  O    8.649558   7.245189   9.799199   9.310131   9.599778
    34  N    8.855601   6.506327   9.302435   9.667489   8.856379
    35  C    4.910757   6.551583   3.804776   5.010672   4.942151
    36  H    5.083041   7.111205   4.436745   5.053536   5.604032
    37  H    5.773913   6.794820   3.957951   5.989884   4.864213
    38  H    5.089634   7.048562   4.424877   5.037593   5.596971
    39  C   10.276368   7.942116  10.750974  11.058209  10.265080
    40  H   10.899020   8.233763  11.054204  11.736601  10.447189
    41  H   10.489916   8.494258  11.244137  11.211084  10.844879
    42  H   10.649012   8.356888  11.173171  11.404876  10.699628
    43  Cl   4.368185   5.268551   6.514156   4.825552   6.966307
    44  Cl   6.966588   3.234858   5.225500   7.966071   4.367810
    45  Cl   6.742211   2.756897   3.976990   7.813265   2.676600
    46  Cl   2.676750   5.184245   5.936285   2.797767   6.742136
                   11         12         13         14         15
    11  C    0.000000
    12  H    2.171878   0.000000
    13  C    4.184165   6.085315   0.000000
    14  C    3.747692   5.868856   1.434571   0.000000
    15  C    5.454828   7.310478   1.406731   2.420578   0.000000
    16  C    2.563619   4.722648   2.493139   1.434730   3.729576
    17  C    4.919264   7.081195   2.469298   1.421426   2.797718
    18  C    6.288589   8.281624   2.456650   2.806082   1.408361
    19  C    3.203714   5.245430   3.729840   2.421161   4.841601
    20  C    5.230154   7.378919   3.755710   2.453122   4.211752
    21  C    6.090126   8.208000   2.843778   2.453990   2.421769
    22  H    7.310478   9.257882   3.439879   3.894355   2.171878
    23  C    4.537177   6.591841   4.228246   2.806624   5.038328
    24  H    5.246129   7.170854   5.311845   3.894963   6.098815
    25  C    5.129251   4.885769   5.771740   6.570590   6.663480
    26  O    6.322002   6.078728   6.519475   7.452990   7.266718
    27  C    3.780355   2.674537   6.236213   6.574941   7.363910
    28  O    4.227022   2.512440   7.245189   7.445671   8.396061
    29  N    4.876956   4.061433   6.506327   7.095719   7.515121
    30  C    6.663480   8.791983   4.979735   3.817286   5.129251
    31  O    7.266718   9.323615   6.077146   4.824280   6.322002
    32  C    7.363910   9.503402   4.329046   3.822475   3.780355
    33  O    8.396061  10.504513   5.071884   4.820667   4.227022
    34  N    7.515121   9.668090   5.117027   4.253042   4.876956
    35  C    6.202735   5.053934   7.942116   8.558286   8.904984
    36  H    6.829168   5.746481   8.233763   8.982726   9.061823
    37  H    6.222918   4.737094   8.494258   8.975170   9.520694
    38  H    6.798929   5.759635   8.356888   8.981678   9.338309
    39  C    8.904984  11.043523   6.551583   5.715640   6.202735
    40  H    9.061823  11.146468   7.111205   6.168649   6.829168
    41  H    9.520694  11.662672   6.794820   6.158325   6.222918
    42  H    9.338309  11.483367   7.048562   6.167835   6.798929
    43  Cl   6.414051   7.965773   2.756897   4.032536   1.738378
    44  Cl   3.278033   4.824481   5.184245   4.033027   6.425044
    45  Cl   1.738378   2.796961   5.268551   4.473046   6.414051
    46  Cl   6.425044   7.813228   3.234858   4.472924   3.278033
                   16         17         18         19         20
    16  C    0.000000
    17  C    2.469316   0.000000
    18  C    4.227909   2.418055   0.000000
    19  C    1.406753   2.798366   5.038310   0.000000
    20  C    2.842394   1.414246   3.712007   2.420964   0.000000
    21  C    3.756474   1.414467   1.382587   4.212633   2.454318
    22  H    5.311461   3.404114   1.090025   6.098852   4.589156
    23  C    2.456587   2.418816   4.836869   1.408439   1.382290
    24  H    3.440137   3.404740   5.803774   2.172331   2.139798
    25  C    6.230714   7.970906   8.043292   7.357842   8.889533
    26  O    7.248811   8.817383   8.662231   8.398307   9.804682
    27  C    5.774940   7.975017   8.616315   6.665223   8.615502
    28  O    6.509595   8.809048   9.599778   7.253970   9.332773
    29  N    6.505922   8.517145   8.856379   7.514120   9.300855
    30  C    4.325933   2.516214   4.263580   3.780171   1.485555
    31  O    5.081142   3.632761   5.479273   4.241074   2.374224
    32  C    4.986001   2.522370   2.480851   5.137103   2.889943
    33  O    6.076299   3.633112   2.821331   6.326402   4.105592
    34  N    5.117625   2.831615   3.721012   4.878724   2.458130
    35  C    7.950967   9.979703  10.265080   8.918376  10.755320
    36  H    8.506542  10.395690  10.447189   9.572748  11.271105
    37  H    8.230172  10.388950  10.844879   9.101482  11.068724
    38  H    8.383547  10.394582  10.699628   9.301121  11.150828
    39  C    6.539528   4.294244   4.942151   6.177862   3.785115
    40  H    6.849598   4.774228   5.604032   6.383002   4.099311
    41  H    7.145505   4.761353   4.864213   6.957216   4.536883
    42  H    6.912198   4.773672   5.596971   6.413626   4.111205
    43  Cl   5.184156   4.522076   2.676600   6.425141   5.935424
    44  Cl   2.756916   4.522741   6.742136   1.738334   3.976481
    45  Cl   3.235064   5.286027   6.966307   3.278187   5.224861
    46  Cl   5.268734   5.285815   4.367810   6.414456   6.513313
                   21         22         23         24         25
    21  C    0.000000
    22  H    2.139785   0.000000
    23  C    3.712563   5.803945   0.000000
    24  H    4.589303   6.720075   1.090096   0.000000
    25  C    8.613612   8.791983   8.610740   9.497879   0.000000
    26  O    9.344806   9.323615   9.603822  10.507932   1.215990
    27  C    8.895512   9.503402   8.045368   8.793834   2.492605
    28  O    9.799199  10.504513   8.649558   9.310131   3.588740
    29  N    9.302435   9.668090   8.855601   9.667489   1.400635
    30  C    2.881197   4.885769   2.482099   2.678635  10.331760
    31  O    4.096889   6.078728   2.835559   2.531602  11.214814
    32  C    1.487391   2.674537   4.272015   4.893977  10.097327
    33  O    2.368987   2.512440   5.487723   6.089906  10.802815
    34  N    2.455562   4.061433   3.723248   4.063809  10.776780
    35  C   10.750974  11.043523  10.276368  11.058209   2.429136
    36  H   11.054204  11.146468  10.899020  11.736601   2.705179
    37  H   11.244137  11.662672  10.489916  11.211084   3.334149
    38  H   11.173171  11.483367  10.649012  11.404876   2.711507
    39  C    3.804776   5.053934   4.910757   5.010672  12.233338
    40  H    4.436745   5.746481   5.083041   5.053536  12.733289
    41  H    3.957951   4.737094   5.773913   5.989884  12.552562
    42  H    4.424877   5.759635   5.089634   5.037593  12.623285
    43  Cl   3.976990   2.796961   6.742211   7.813265   6.483539
    44  Cl   5.936285   7.813228   2.676750   2.797767   7.559863
    45  Cl   6.514156   7.965773   4.368185   4.825552   6.795208
    46  Cl   5.225500   4.824481   6.966588   7.966071   5.148435
                   26         27         28         29         30
    26  O    0.000000
    27  C    3.580942   0.000000
    28  O    4.562708   1.215796   0.000000
    29  N    2.274119   1.403425   2.288597   0.000000
    30  C   11.214814  10.097327  10.802815  10.776780   0.000000
    31  O   12.135237  10.816420  11.441425  11.576064   1.215990
    32  C   10.816420  10.340950  11.212317  10.780941   2.492605
    33  O   11.441425  11.212317  12.122459  11.567047   3.588740
    34  N   11.576064  10.780941  11.567047  11.348761   1.400635
    35  C    2.674223   2.463326   2.750313   1.462896  12.233338
    36  H    2.647120   3.192306   3.512159   2.107574  12.733289
    37  H    3.745392   2.476924   2.242618   2.079102  12.552562
    38  H    2.649637   3.186583   3.510109   2.107794  12.623285
    39  C   13.017760  12.232181  12.999383  12.811303   2.429136
    40  H   13.580437  12.540282  13.230228  13.215788   2.705179
    41  H   13.273968  12.710669  13.528963  13.210338   3.334149
    42  H   13.390686  12.649115  13.421049  13.214608   2.711507
    43  Cl   6.872469   7.566962   8.646657   7.470079   6.795208
    44  Cl   8.644988   6.483198   6.857116   7.468185   5.148435
    45  Cl   8.001251   5.146496   5.276261   6.389471   6.483539
    46  Cl   5.294838   6.803322   8.006869   6.391728   7.559863
                   31         32         33         34         35
    31  O    0.000000
    32  C    3.580942   0.000000
    33  O    4.562708   1.215796   0.000000
    34  N    2.274119   1.403425   2.288597   0.000000
    35  C   13.017760  12.232181  12.999383  12.811303   0.000000
    36  H   13.580437  12.540282  13.230228  13.215788   1.098923
    37  H   13.273968  12.710669  13.528963  13.210338   1.093706
    38  H   13.390686  12.649115  13.421049  13.214608   1.098998
    39  C    2.674223   2.463326   2.750313   1.462896  14.273896
    40  H    2.647120   3.192306   3.512159   2.107574  14.676487
    41  H    3.745392   2.476924   2.242618   2.079102  14.667365
    42  H    2.649637   3.186583   3.510109   2.107794  14.672549
    43  Cl   8.001251   5.146496   5.276261   6.389471   8.733301
    44  Cl   5.294838   6.803322   8.006869   6.391728   8.754044
    45  Cl   6.872469   7.566962   8.646657   7.470079   7.609417
    46  Cl   8.644988   6.483198   6.857116   7.468185   7.576196
                   36         37         38         39         40
    36  H    0.000000
    37  H    1.802465   0.000000
    38  H    1.776987   1.802801   0.000000
    39  C   14.676487  14.667365  14.672549   0.000000
    40  H   15.091054  15.001108  15.128506   1.098923   0.000000
    41  H   15.001108  15.114046  15.074151   1.093706   1.802465
    42  H   15.128506  15.074151  15.003395   1.098998   1.776987
    43  Cl   8.682066   9.448313   9.189832   7.609417   8.242777
    44  Cl   9.555628   8.783478   9.066544   7.576196   7.696200
    45  Cl   8.242777   7.452235   8.259135   8.733301   8.682066
    46  Cl   7.696200   8.448755   7.677081   8.754044   9.555628
                   41         42         43         44         45
    41  H    0.000000
    42  H    1.802801   0.000000
    43  Cl   7.452235   8.259135   0.000000
    44  Cl   8.448755   7.677081   7.919981   0.000000
    45  Cl   9.448313   9.189832   7.524965   3.093120   0.000000
    46  Cl   8.783478   9.066544   3.093120   7.525425   7.919981
                   46
    46  Cl   0.000000
 Symmetry turned off by external request.
 Stoichiometry    C26H10Cl4N2O4
 Framework group  C2[X(C26H10Cl4N2O4)]
 Deg. of freedom    67
 Full point group                 C2      NOp   2
 Rotational constants (GHZ):      0.1503231      0.0665714      0.0496726
 Leave Link  202 at Tue Feb 23 05:05:37 2021, MaxMem=  5242880000 cpu:         0.5
 (Enter /opt/nce/packages/global/g09/l301.exe)
 Standard basis: def2TZVP (5D, 7F)
 Ernie: Thresh=  0.10000D-02 Tol=  0.10000D-05 Strict=F.
  1200 basis functions,  1988 primitive gaussians,  1380 cartesian basis functions
   140 alpha electrons      140 beta electrons
       nuclear repulsion energy      4524.0269155377 Hartrees.
 IExCor= 4336 DFT=T Ex+Corr=M062X ExCW=0 ScaHFX=  0.540000
 ScaDFX=  1.000000  1.000000  1.000000  1.000000 ScalE2=  1.000000  1.000000
 IRadAn=      5 IRanWt=     -1 IRanGd=            0 ICorTp=0 IEmpDi=  4
 NAtoms=   46 NActive=   46 NUniq=   46 SFac= 1.00D+00 NAtFMM=   60 NAOKFM=F Big=F
 Integral buffers will be    131072 words long.
 Raffenetti 2 integral format.
 Two-electron integral symmetry is turned off.
 ------------------------------------------------------------------------------
 Polarizable Continuum Model (PCM)
 =================================
 Model                : PCM (using non-symmetric T matrix).
 Atomic radii         : SMD-Coulomb.
 Polarization charges : Total charges.
 Charge compensation  : None.
 Solution method      : On-the-fly selection.
 Cavity type          : VdW (van der Waals Surface) (Alpha=1.000).
 Cavity algorithm     : GePol (No added spheres)
                        Default sphere list used, NSphG=   46.
                        Lebedev-Laikov grids with approx.  5.0 points / Ang**2.
                        Smoothing algorithm: York/Karplus (Gamma=1.0000).
                        Polarization charges: spherical gaussians, with
                                              point-specific exponents (IZeta= 3).
                        Self-potential: point-specific (ISelfS= 7).
                        Self-field    : sphere-specific E.n sum rule (ISelfD= 2).
 1st derivatives      : Analytical E(r).r(x)/FMM algorithm (CHGder, D1EAlg=3).
                        Cavity 1st derivative terms included.
 Solvent              : Dichloromethane, Eps=   8.930000 Eps(inf)=   2.028346
 ------------------------------------------------------------------------------
 GePol: Number of generator spheres                  =      46
 GePol: Total number of spheres                      =      46
 GePol: Number of exposed spheres                    =      46 (100.00%)
 GePol: Number of points                             =    3924
 GePol: Average weight of points                     =       0.13
 GePol: Minimum weight of points                     =   0.99D-09
 GePol: Maximum weight of points                     =    0.20498
 GePol: Number of points with low weight             =     162
 GePol: Fraction of low-weight points (<1% of avg)   =       4.13%
 GePol: Cavity surface area                          =    500.332 Ang**2
 GePol: Cavity volume                                =    565.764 Ang**3
 ------------------------------------------------------------------------------
 Atomic radii for non-electrostatic terms: SMD-CDS.
 ------------------------------------------------------------------------------
 PCM non-electrostatic energy =        -0.0174758624 Hartrees.
 Nuclear repulsion after PCM non-electrostatic terms =     4524.0094396753 Hartrees.
 Leave Link  301 at Tue Feb 23 05:05:38 2021, MaxMem=  5242880000 cpu:         2.5
 (Enter /opt/nce/packages/global/g09/l302.exe)
 NPDir=0 NMtPBC=     1 NCelOv=     1 NCel=       1 NClECP=     1 NCelD=      1
         NCelK=      1 NCelE2=     1 NClLst=     1 CellRange=     0.0.
 One-electron integrals computed using PRISM.
   1 Symmetry operations used in ECPInt.
 ECPInt:  NShTT=   98790 NPrTT=  327714 LenC2=   74876 LenP2D=  163880.
 LDataN:  DoStor=T MaxTD1= 6 Len=  172
 NBasis=  1200 RedAO= T EigKep=  3.46D-06  NBF=  1200
 NBsUse=  1200 1.00D-06 EigRej= -1.00D+00 NBFU=  1200
 Precomputing XC quadrature grid using
 IXCGrd= 4 IRadAn=           5 IRanWt=          -1 IRanGd=           0 AccXCQ= 0.00D+00.
 Generated NRdTot=       0 NPtTot=           0 NUsed=           0 NTot=          32
 NSgBfM=  1294  1294  1294  1294  1294 MxSgAt=    46 MxSgA2=    46.
 Leave Link  302 at Tue Feb 23 05:05:41 2021, MaxMem=  5242880000 cpu:        34.1
 (Enter /opt/nce/packages/global/g09/l303.exe)
 DipDrv:  MaxL=1.
 Leave Link  303 at Tue Feb 23 05:05:41 2021, MaxMem=  5242880000 cpu:         3.4
 (Enter /opt/nce/packages/global/g09/l401.exe)
 ExpMin= 9.52D-02 ExpMax= 6.95D+04 ExpMxC= 2.37D+03 IAcc=3 IRadAn=         5 AccDes= 0.00D+00
 Harris functional with IExCor= 1009 and IRadAn=       5 diagonalized for initial guess.
 HarFok:  IExCor= 1009 AccDes= 0.00D+00 IRadAn=         5 IDoV= 1 UseB2=F ITyADJ=14
 ICtDFT=  3500011 ScaDFX=  1.000000  1.000000  1.000000  1.000000
 FoFCou: FMM=F IPFlag=           0 FMFlag=      100000 FMFlg1=           0
         NFxFlg=           0 DoJE=T BraDBF=F KetDBF=T FulRan=T
         wScrn=  0.000000 ICntrl=     500 IOpCl=  0 I1Cent=   200000004 NGrid=           0
         NMat0=    1 NMatS0=      1 NMatT0=    0 NMatD0=    1 NMtDS0=    0 NMtDT0=    0
 Symmetry not used in FoFCou.
 Harris En= -3246.35329403849    
 JPrj=0 DoOrth=F DoCkMO=F.
 Leave Link  401 at Tue Feb 23 05:05:52 2021, MaxMem=  5242880000 cpu:       133.9
 (Enter /opt/nce/packages/global/g09/l502.exe)
 Closed shell SCF:
 Using DIIS extrapolation, IDIIS=  1040.
 Two-electron integral symmetry not used.
 IVT=     5756682 IEndB=     5756682 NGot=  5242880000 MDV=  5239045739
 LenX=  5239045739 LenY=  5237139959
 Requested convergence on RMS density matrix=1.00D-08 within 128 cycles.
 Requested convergence on MAX density matrix=1.00D-06.
 Requested convergence on             energy=1.00D-06.
 No special actions if energy rises.
 Fock matrices will be formed incrementally for  20 cycles.

 Cycle   1  Pass 1  IDiag  1:
 FoFJK:  IHMeth= 1 ICntrl=       0 DoSepK=F KAlg= 0 I1Cent=   0 FoldK=F
 IRaf= 640000000 NMat=   1 IRICut=       1 DoRegI=T DoRafI=F ISym2E= 0.
 FoFCou: FMM=F IPFlag=           0 FMFlag=      100000 FMFlg1=           0
         NFxFlg=           0 DoJE=F BraDBF=F KetDBF=F FulRan=T
         wScrn=  0.000000 ICntrl=       0 IOpCl=  0 I1Cent=           0 NGrid=           0
         NMat0=    1 NMatS0=      1 NMatT0=    0 NMatD0=    1 NMtDS0=    0 NMtDT0=    0
 Symmetry not used in FoFCou.
 Inv3:  Mode=1 IEnd=    46193328.
 Iteration    1 A*A^-1 deviation from unit magnitude is 6.66D-15 for   3918.
 Iteration    1 A*A^-1 deviation from orthogonality  is 3.31D-15 for    888    363.
 Iteration    1 A^-1*A deviation from unit magnitude is 6.44D-15 for   3918.
 Iteration    1 A^-1*A deviation from orthogonality  is 1.51D-13 for   2291   2287.
 E= -3247.23039713964    
 DIIS: error= 1.86D-02 at cycle   1 NSaved=   1.
 NSaved= 1 IEnMin= 1 EnMin= -3247.23039713964     IErMin= 1 ErrMin= 1.86D-02
 ErrMax= 1.86D-02  0.00D+00 EMaxC= 1.00D-01 BMatC= 1.31D+00 BMatP= 1.31D+00
 IDIUse=3 WtCom= 8.14D-01 WtEn= 1.86D-01
 Coeff-Com:  0.100D+01
 Coeff-En:   0.100D+01
 Coeff:      0.100D+01
 Gap=     0.313 Goal=   None    Shift=    0.000
 GapD=    0.313 DampG=1.000 DampE=0.500 DampFc=0.5000 IDamp=-1.
 Damping current iteration by 5.00D-01
 RMSDP=3.94D-03 MaxDP=3.09D-01              OVMax= 2.84D-01

 Cycle   2  Pass 1  IDiag  1:
 RMSU=  1.97D-03    CP:  9.85D-01
 E= -3247.63534889955     Delta-E=       -0.404951759914 Rises=F Damp=T
 DIIS: error= 8.16D-03 at cycle   2 NSaved=   2.
 NSaved= 2 IEnMin= 2 EnMin= -3247.63534889955     IErMin= 2 ErrMin= 8.16D-03
 ErrMax= 8.16D-03  0.00D+00 EMaxC= 1.00D-01 BMatC= 1.43D-01 BMatP= 1.31D+00
 IDIUse=3 WtCom= 9.18D-01 WtEn= 8.16D-02
 Coeff-Com: -0.196D-01 0.102D+01
 Coeff-En:   0.322D-01 0.968D+00
 Coeff:     -0.154D-01 0.102D+01
 Gap=     0.157 Goal=   None    Shift=    0.000
 RMSDP=1.52D-03 MaxDP=1.44D-01 DE=-4.05D-01 OVMax= 1.57D-01

 Cycle   3  Pass 1  IDiag  1:
 RMSU=  1.35D-03    CP:  9.28D-01  7.13D-01
 E= -3248.05548351363     Delta-E=       -0.420134614082 Rises=F Damp=F
 DIIS: error= 7.10D-03 at cycle   3 NSaved=   3.
 NSaved= 3 IEnMin= 3 EnMin= -3248.05548351363     IErMin= 3 ErrMin= 7.10D-03
 ErrMax= 7.10D-03  0.00D+00 EMaxC= 1.00D-01 BMatC= 8.70D-02 BMatP= 1.43D-01
 IDIUse=3 WtCom= 9.29D-01 WtEn= 7.10D-02
 Coeff-Com: -0.107D+00 0.476D+00 0.632D+00
 Coeff-En:   0.000D+00 0.000D+00 0.100D+01
 Coeff:     -0.998D-01 0.442D+00 0.658D+00
 Gap=     0.151 Goal=   None    Shift=    0.000
 RMSDP=4.01D-04 MaxDP=2.85D-02 DE=-4.20D-01 OVMax= 6.87D-02

 Cycle   4  Pass 1  IDiag  1:
 RMSU=  3.86D-04    CP:  9.39D-01  7.46D-01  9.67D-01
 E= -3248.10853195764     Delta-E=       -0.053048444003 Rises=F Damp=F
 DIIS: error= 2.88D-03 at cycle   4 NSaved=   4.
 NSaved= 4 IEnMin= 4 EnMin= -3248.10853195764     IErMin= 4 ErrMin= 2.88D-03
 ErrMax= 2.88D-03  0.00D+00 EMaxC= 1.00D-01 BMatC= 1.71D-02 BMatP= 8.70D-02
 IDIUse=3 WtCom= 9.71D-01 WtEn= 2.88D-02
 Coeff-Com: -0.400D-01 0.945D-01 0.353D+00 0.592D+00
 Coeff-En:   0.000D+00 0.000D+00 0.168D+00 0.832D+00
 Coeff:     -0.388D-01 0.918D-01 0.348D+00 0.599D+00
 Gap=     0.154 Goal=   None    Shift=    0.000
 RMSDP=1.72D-04 MaxDP=1.06D-02 DE=-5.30D-02 OVMax= 2.16D-02

 Cycle   5  Pass 1  IDiag  1:
 RMSU=  1.21D-04    CP:  9.34D-01  7.42D-01  1.02D+00  7.53D-01
 E= -3248.12270692909     Delta-E=       -0.014174971452 Rises=F Damp=F
 DIIS: error= 4.13D-04 at cycle   5 NSaved=   5.
 NSaved= 5 IEnMin= 5 EnMin= -3248.12270692909     IErMin= 5 ErrMin= 4.13D-04
 ErrMax= 4.13D-04  0.00D+00 EMaxC= 1.00D-01 BMatC= 3.55D-04 BMatP= 1.71D-02
 IDIUse=3 WtCom= 9.96D-01 WtEn= 4.13D-03
 Coeff-Com: -0.975D-02 0.160D-01 0.108D+00 0.234D+00 0.652D+00
 Coeff-En:   0.000D+00 0.000D+00 0.000D+00 0.000D+00 0.100D+01
 Coeff:     -0.971D-02 0.159D-01 0.108D+00 0.233D+00 0.653D+00
 Gap=     0.155 Goal=   None    Shift=    0.000
 RMSDP=5.28D-05 MaxDP=3.17D-03 DE=-1.42D-02 OVMax= 6.11D-03

 Cycle   6  Pass 1  IDiag  1:
 RMSU=  3.83D-05    CP:  9.36D-01  7.29D-01  1.01D+00  8.11D-01  9.42D-01
 E= -3248.12307106397     Delta-E=       -0.000364134879 Rises=F Damp=F
 DIIS: error= 1.95D-04 at cycle   6 NSaved=   6.
 NSaved= 6 IEnMin= 6 EnMin= -3248.12307106397     IErMin= 6 ErrMin= 1.95D-04
 ErrMax= 1.95D-04  0.00D+00 EMaxC= 1.00D-01 BMatC= 5.35D-05 BMatP= 3.55D-04
 IDIUse=3 WtCom= 9.98D-01 WtEn= 1.95D-03
 Coeff-Com:  0.196D-02-0.757D-02-0.188D-02 0.202D-01 0.273D+00 0.715D+00
 Coeff-En:   0.000D+00 0.000D+00 0.000D+00 0.000D+00 0.000D+00 0.100D+01
 Coeff:      0.195D-02-0.755D-02-0.188D-02 0.202D-01 0.272D+00 0.715D+00
 Gap=     0.155 Goal=   None    Shift=    0.000
 RMSDP=2.85D-05 MaxDP=2.70D-03 DE=-3.64D-04 OVMax= 3.95D-03

 Cycle   7  Pass 1  IDiag  1:
 RMSU=  1.90D-05    CP:  9.36D-01  7.26D-01  1.01D+00  8.41D-01  1.07D+00
                    CP:  1.07D+00
 E= -3248.12314408460     Delta-E=       -0.000073020631 Rises=F Damp=F
 DIIS: error= 1.14D-04 at cycle   7 NSaved=   7.
 NSaved= 7 IEnMin= 7 EnMin= -3248.12314408460     IErMin= 7 ErrMin= 1.14D-04
 ErrMax= 1.14D-04  0.00D+00 EMaxC= 1.00D-01 BMatC= 1.06D-05 BMatP= 5.35D-05
 IDIUse=3 WtCom= 9.99D-01 WtEn= 1.14D-03
 Coeff-Com:  0.268D-02-0.649D-02-0.190D-01-0.317D-01 0.506D-02 0.332D+00
 Coeff-Com:  0.717D+00
 Coeff-En:   0.000D+00 0.000D+00 0.000D+00 0.000D+00 0.000D+00 0.000D+00
 Coeff-En:   0.100D+01
 Coeff:      0.268D-02-0.648D-02-0.190D-01-0.316D-01 0.505D-02 0.332D+00
 Coeff:      0.718D+00
 Gap=     0.156 Goal=   None    Shift=    0.000
 RMSDP=1.30D-05 MaxDP=6.75D-04 DE=-7.30D-05 OVMax= 2.14D-03

 Cycle   8  Pass 1  IDiag  1:
 RMSU=  5.81D-06    CP:  9.37D-01  7.22D-01  1.02D+00  8.50D-01  1.09D+00
                    CP:  1.23D+00  1.01D+00
 E= -3248.12315962970     Delta-E=       -0.000015545106 Rises=F Damp=F
 DIIS: error= 3.41D-05 at cycle   8 NSaved=   8.
 NSaved= 8 IEnMin= 8 EnMin= -3248.12315962970     IErMin= 8 ErrMin= 3.41D-05
 ErrMax= 3.41D-05  0.00D+00 EMaxC= 1.00D-01 BMatC= 1.03D-06 BMatP= 1.06D-05
 IDIUse=1 WtCom= 1.00D+00 WtEn= 0.00D+00
 Coeff-Com:  0.730D-03-0.136D-02-0.575D-02-0.139D-01-0.307D-01 0.358D-01
 Coeff-Com:  0.251D+00 0.764D+00
 Coeff:      0.730D-03-0.136D-02-0.575D-02-0.139D-01-0.307D-01 0.358D-01
 Coeff:      0.251D+00 0.764D+00
 Gap=     0.156 Goal=   None    Shift=    0.000
 RMSDP=3.12D-06 MaxDP=2.16D-04 DE=-1.55D-05 OVMax= 8.83D-04

 Cycle   9  Pass 1  IDiag  1:
 RMSU=  1.69D-06    CP:  9.37D-01  7.22D-01  1.02D+00  8.52D-01  1.10D+00
                    CP:  1.27D+00  1.08D+00  1.07D+00
 E= -3248.12316128364     Delta-E=       -0.000001653939 Rises=F Damp=F
 DIIS: error= 1.30D-05 at cycle   9 NSaved=   9.
 NSaved= 9 IEnMin= 9 EnMin= -3248.12316128364     IErMin= 9 ErrMin= 1.30D-05
 ErrMax= 1.30D-05  0.00D+00 EMaxC= 1.00D-01 BMatC= 2.07D-07 BMatP= 1.03D-06
 IDIUse=1 WtCom= 1.00D+00 WtEn= 0.00D+00
 Coeff-Com:  0.532D-04 0.577D-04-0.468D-03-0.304D-02-0.148D-01-0.207D-01
 Coeff-Com:  0.198D-01 0.344D+00 0.676D+00
 Coeff:      0.532D-04 0.577D-04-0.468D-03-0.304D-02-0.148D-01-0.207D-01
 Coeff:      0.198D-01 0.344D+00 0.676D+00
 Gap=     0.156 Goal=   None    Shift=    0.000
 RMSDP=1.10D-06 MaxDP=5.31D-05 DE=-1.65D-06 OVMax= 3.18D-04

 Cycle  10  Pass 1  IDiag  1:
 RMSU=  6.29D-07    CP:  9.37D-01  7.21D-01  1.02D+00  8.52D-01  1.11D+00
                    CP:  1.28D+00  1.08D+00  1.16D+00  1.06D+00
 E= -3248.12316155218     Delta-E=       -0.000000268541 Rises=F Damp=F
 DIIS: error= 4.42D-06 at cycle  10 NSaved=  10.
 NSaved=10 IEnMin=10 EnMin= -3248.12316155218     IErMin=10 ErrMin= 4.42D-06
 ErrMax= 4.42D-06  0.00D+00 EMaxC= 1.00D-01 BMatC= 2.41D-08 BMatP= 2.07D-07
 IDIUse=1 WtCom= 1.00D+00 WtEn= 0.00D+00
 Coeff-Com: -0.609D-04 0.181D-03 0.538D-03 0.487D-03-0.260D-02-0.126D-01
 Coeff-Com: -0.253D-01 0.385D-01 0.280D+00 0.721D+00
 Coeff:     -0.609D-04 0.181D-03 0.538D-03 0.487D-03-0.260D-02-0.126D-01
 Coeff:     -0.253D-01 0.385D-01 0.280D+00 0.721D+00
 Gap=     0.156 Goal=   None    Shift=    0.000
 RMSDP=4.40D-07 MaxDP=2.44D-05 DE=-2.69D-07 OVMax= 1.12D-04

 Cycle  11  Pass 1  IDiag  1:
 RMSU=  2.28D-07    CP:  9.37D-01  7.21D-01  1.02D+00  8.52D-01  1.11D+00
                    CP:  1.28D+00  1.09D+00  1.19D+00  1.15D+00  1.08D+00
 E= -3248.12316158701     Delta-E=       -0.000000034822 Rises=F Damp=F
 DIIS: error= 1.77D-06 at cycle  11 NSaved=  11.
 NSaved=11 IEnMin=11 EnMin= -3248.12316158701     IErMin=11 ErrMin= 1.77D-06
 ErrMax= 1.77D-06  0.00D+00 EMaxC= 1.00D-01 BMatC= 4.21D-09 BMatP= 2.41D-08
 IDIUse=1 WtCom= 1.00D+00 WtEn= 0.00D+00
 Coeff-Com: -0.354D-04 0.722D-04 0.351D-03 0.726D-03 0.927D-03-0.300D-02
 Coeff-Com: -0.143D-01-0.313D-01 0.344D-01 0.340D+00 0.672D+00
 Coeff:     -0.354D-04 0.722D-04 0.351D-03 0.726D-03 0.927D-03-0.300D-02
 Coeff:     -0.143D-01-0.313D-01 0.344D-01 0.340D+00 0.672D+00
 Gap=     0.156 Goal=   None    Shift=    0.000
 RMSDP=1.39D-07 MaxDP=7.85D-06 DE=-3.48D-08 OVMax= 3.89D-05

 Cycle  12  Pass 1  IDiag  1:
 RMSU=  8.90D-08    CP:  9.37D-01  7.21D-01  1.02D+00  8.52D-01  1.11D+00
                    CP:  1.28D+00  1.09D+00  1.20D+00  1.17D+00  1.19D+00
                    CP:  1.05D+00
 E= -3248.12316159288     Delta-E=       -0.000000005869 Rises=F Damp=F
 DIIS: error= 9.26D-07 at cycle  12 NSaved=  12.
 NSaved=12 IEnMin=12 EnMin= -3248.12316159288     IErMin=12 ErrMin= 9.26D-07
 ErrMax= 9.26D-07  0.00D+00 EMaxC= 1.00D-01 BMatC= 3.94D-10 BMatP= 4.21D-09
 IDIUse=1 WtCom= 1.00D+00 WtEn= 0.00D+00
 Coeff-Com: -0.797D-05 0.104D-04 0.850D-04 0.235D-03 0.679D-03 0.121D-03
 Coeff-Com: -0.295D-02-0.178D-01-0.205D-01 0.523D-01 0.265D+00 0.723D+00
 Coeff:     -0.797D-05 0.104D-04 0.850D-04 0.235D-03 0.679D-03 0.121D-03
 Coeff:     -0.295D-02-0.178D-01-0.205D-01 0.523D-01 0.265D+00 0.723D+00
 Gap=     0.156 Goal=   None    Shift=    0.000
 RMSDP=5.04D-08 MaxDP=2.02D-06 DE=-5.87D-09 OVMax= 1.61D-05

 Cycle  13  Pass 1  IDiag  1:
 RMSU=  3.72D-08    CP:  9.37D-01  7.21D-01  1.02D+00  8.52D-01  1.11D+00
                    CP:  1.28D+00  1.09D+00  1.20D+00  1.18D+00  1.21D+00
                    CP:  1.13D+00  1.18D+00
 E= -3248.12316159352     Delta-E=       -0.000000000648 Rises=F Damp=F
 DIIS: error= 1.64D-07 at cycle  13 NSaved=  13.
 NSaved=13 IEnMin=13 EnMin= -3248.12316159352     IErMin=13 ErrMin= 1.64D-07
 ErrMax= 1.64D-07  0.00D+00 EMaxC= 1.00D-01 BMatC= 4.48D-11 BMatP= 3.94D-10
 IDIUse=1 WtCom= 1.00D+00 WtEn= 0.00D+00
 Coeff-Com:  0.303D-05-0.766D-05-0.295D-04-0.492D-04 0.932D-04 0.534D-03
 Coeff-Com:  0.125D-02-0.117D-03-0.106D-01-0.330D-01-0.316D-01 0.218D+00
 Coeff-Com:  0.856D+00
 Coeff:      0.303D-05-0.766D-05-0.295D-04-0.492D-04 0.932D-04 0.534D-03
 Coeff:      0.125D-02-0.117D-03-0.106D-01-0.330D-01-0.316D-01 0.218D+00
 Coeff:      0.856D+00
 Gap=     0.156 Goal=   None    Shift=    0.000
 RMSDP=3.52D-08 MaxDP=2.70D-06 DE=-6.48D-10 OVMax= 4.59D-06

 Cycle  14  Pass 1  IDiag  1:
 RMSU=  1.28D-08    CP:  9.37D-01  7.21D-01  1.02D+00  8.52D-01  1.11D+00
                    CP:  1.28D+00  1.09D+00  1.20D+00  1.18D+00  1.23D+00
                    CP:  1.17D+00  1.36D+00  1.30D+00
 E= -3248.12316159372     Delta-E=       -0.000000000196 Rises=F Damp=F
 DIIS: error= 5.70D-08 at cycle  14 NSaved=  14.
 NSaved=14 IEnMin=14 EnMin= -3248.12316159372     IErMin=14 ErrMin= 5.70D-08
 ErrMax= 5.70D-08  0.00D+00 EMaxC= 1.00D-01 BMatC= 4.61D-12 BMatP= 4.48D-11
 IDIUse=1 WtCom= 1.00D+00 WtEn= 0.00D+00
 Coeff-Com:  0.175D-05-0.341D-05-0.209D-04-0.455D-04-0.486D-04 0.134D-03
 Coeff-Com:  0.708D-03 0.196D-02-0.150D-02-0.170D-01-0.420D-01 0.439D-03
 Coeff-Com:  0.265D+00 0.793D+00
 Coeff:      0.175D-05-0.341D-05-0.209D-04-0.455D-04-0.486D-04 0.134D-03
 Coeff:      0.708D-03 0.196D-02-0.150D-02-0.170D-01-0.420D-01 0.439D-03
 Coeff:      0.265D+00 0.793D+00
 Gap=     0.156 Goal=   None    Shift=    0.000
 RMSDP=9.04D-09 MaxDP=5.55D-07 DE=-1.96D-10 OVMax= 1.90D-06

 Error on total polarization charges =  0.02504
 SCF Done:  E(RM062X) =  -3248.12316159     A.U. after   14 cycles
            NFock= 14  Conv=0.90D-08     -V/T= 2.0028
 KE= 3.238927679361D+03 PE=-1.669987458564D+04 EE= 5.688814305011D+03
 SMD-CDS (non-electrostatic) energy       (kcal/mol) =     -10.97
 (included in total energy above)
 Leave Link  502 at Tue Feb 23 05:49:55 2021, MaxMem=  5242880000 cpu:     31658.7
 (Enter /opt/nce/packages/global/g09/l601.exe)
 Copying SCF densities to generalized density rwf, IOpCl= 0 IROHF=0.

 **********************************************************************

            Population analysis using the SCF density.

 **********************************************************************

 Alpha  occ. eigenvalues -- -102.66408-102.66407-102.66405-102.66405 -19.62718
 Alpha  occ. eigenvalues --  -19.62718 -19.62715 -19.62714 -14.81306 -14.81306
 Alpha  occ. eigenvalues --  -10.67977 -10.67977 -10.67757 -10.67757 -10.63847
 Alpha  occ. eigenvalues --  -10.63847 -10.63841 -10.63841 -10.60636 -10.60636
 Alpha  occ. eigenvalues --  -10.60586 -10.60583 -10.59890 -10.59890 -10.59116
 Alpha  occ. eigenvalues --  -10.59116 -10.58720 -10.58720 -10.58691 -10.58691
 Alpha  occ. eigenvalues --  -10.58291 -10.58291 -10.58289 -10.58289 -10.56776
 Alpha  occ. eigenvalues --  -10.56776  -9.82670  -9.82670  -9.82668  -9.82668
 Alpha  occ. eigenvalues --   -7.54871  -7.54871  -7.54868  -7.54868  -7.54355
 Alpha  occ. eigenvalues --   -7.54355  -7.54352  -7.54352  -7.54327  -7.54327
 Alpha  occ. eigenvalues --   -7.54325  -7.54325  -1.20392  -1.20392  -1.18681
 Alpha  occ. eigenvalues --   -1.18681  -1.06524  -1.06421  -1.05276  -1.02442
 Alpha  occ. eigenvalues --   -1.02234  -1.00092  -0.98283  -0.97195  -0.95736
 Alpha  occ. eigenvalues --   -0.93153  -0.92530  -0.89617  -0.89069  -0.85362
 Alpha  occ. eigenvalues --   -0.84954  -0.83169  -0.82747  -0.80805  -0.79325
 Alpha  occ. eigenvalues --   -0.76685  -0.75254  -0.74201  -0.73041  -0.71715
 Alpha  occ. eigenvalues --   -0.70711  -0.69927  -0.65771  -0.64034  -0.63441
 Alpha  occ. eigenvalues --   -0.62457  -0.62199  -0.60672  -0.58942  -0.57452
 Alpha  occ. eigenvalues --   -0.57359  -0.57234  -0.57135  -0.56123  -0.55453
 Alpha  occ. eigenvalues --   -0.55044  -0.54736  -0.54346  -0.53768  -0.53648
 Alpha  occ. eigenvalues --   -0.52520  -0.52338  -0.51422  -0.50748  -0.50015
 Alpha  occ. eigenvalues --   -0.49939  -0.49638  -0.49605  -0.49525  -0.48445
 Alpha  occ. eigenvalues --   -0.48264  -0.47610  -0.47196  -0.47112  -0.46916
 Alpha  occ. eigenvalues --   -0.46325  -0.46144  -0.44702  -0.44565  -0.43884
 Alpha  occ. eigenvalues --   -0.43212  -0.42483  -0.40202  -0.39891  -0.39766
 Alpha  occ. eigenvalues --   -0.39447  -0.38597  -0.38172  -0.37812  -0.37320
 Alpha  occ. eigenvalues --   -0.36863  -0.36098  -0.36080  -0.35013  -0.34631
 Alpha  occ. eigenvalues --   -0.33481  -0.33331  -0.31676  -0.30909  -0.26915
 Alpha virt. eigenvalues --   -0.11315  -0.05771  -0.04186  -0.02181  -0.02057
 Alpha virt. eigenvalues --    0.00934   0.01425   0.02957   0.05314   0.06093
 Alpha virt. eigenvalues --    0.06819   0.06995   0.07911   0.08005   0.08959
 Alpha virt. eigenvalues --    0.09664   0.10389   0.10724   0.10950   0.11445
 Alpha virt. eigenvalues --    0.12210   0.12525   0.12672   0.13005   0.13041
 Alpha virt. eigenvalues --    0.14213   0.14536   0.14839   0.15583   0.15830
 Alpha virt. eigenvalues --    0.16059   0.16686   0.17261   0.17361   0.17981
 Alpha virt. eigenvalues --    0.18740   0.18816   0.18912   0.19201   0.20214
 Alpha virt. eigenvalues --    0.20484   0.21030   0.21040   0.21060   0.21613
 Alpha virt. eigenvalues --    0.22326   0.22773   0.22892   0.23030   0.23701
 Alpha virt. eigenvalues --    0.23712   0.24107   0.24171   0.24798   0.24799
 Alpha virt. eigenvalues --    0.24979   0.25228   0.25975   0.26095   0.26192
 Alpha virt. eigenvalues --    0.26394   0.26855   0.27099   0.27358   0.27848
 Alpha virt. eigenvalues --    0.27880   0.28203   0.28338   0.28614   0.29456
 Alpha virt. eigenvalues --    0.29590   0.29845   0.30193   0.30255   0.30542
 Alpha virt. eigenvalues --    0.31131   0.31325   0.31742   0.31977   0.32129
 Alpha virt. eigenvalues --    0.32868   0.33204   0.33288   0.33414   0.33845
 Alpha virt. eigenvalues --    0.33895   0.34402   0.34601   0.35557   0.35847
 Alpha virt. eigenvalues --    0.36025   0.36300   0.36344   0.36793   0.37808
 Alpha virt. eigenvalues --    0.37878   0.38302   0.38309   0.38639   0.38721
 Alpha virt. eigenvalues --    0.39045   0.39465   0.39554   0.39995   0.40288
 Alpha virt. eigenvalues --    0.40613   0.40769   0.41069   0.41244   0.41265
 Alpha virt. eigenvalues --    0.41305   0.41869   0.42074   0.42582   0.43076
 Alpha virt. eigenvalues --    0.43249   0.43435   0.43831   0.44296   0.44547
 Alpha virt. eigenvalues --    0.45132   0.45642   0.45684   0.46510   0.46991
 Alpha virt. eigenvalues --    0.47625   0.47689   0.47939   0.47988   0.49175
 Alpha virt. eigenvalues --    0.49383   0.49575   0.49755   0.50243   0.50453
 Alpha virt. eigenvalues --    0.51222   0.51472   0.51776   0.52041   0.52285
 Alpha virt. eigenvalues --    0.53038   0.53340   0.53497   0.53968   0.53998
 Alpha virt. eigenvalues --    0.54556   0.55043   0.55699   0.55864   0.55915
 Alpha virt. eigenvalues --    0.56381   0.56701   0.56823   0.57048   0.57446
 Alpha virt. eigenvalues --    0.57781   0.58097   0.58209   0.58686   0.58973
 Alpha virt. eigenvalues --    0.59894   0.60222   0.60463   0.60691   0.61481
 Alpha virt. eigenvalues --    0.61681   0.62124   0.62359   0.62463   0.62741
 Alpha virt. eigenvalues --    0.62907   0.63415   0.63442   0.63971   0.64469
 Alpha virt. eigenvalues --    0.64681   0.64893   0.65228   0.65889   0.66294
 Alpha virt. eigenvalues --    0.66517   0.66640   0.66702   0.66995   0.67024
 Alpha virt. eigenvalues --    0.67456   0.68544   0.68595   0.69470   0.69688
 Alpha virt. eigenvalues --    0.69969   0.70266   0.70536   0.71316   0.71866
 Alpha virt. eigenvalues --    0.72344   0.72554   0.72599   0.73174   0.73418
 Alpha virt. eigenvalues --    0.73843   0.73897   0.74732   0.75338   0.75520
 Alpha virt. eigenvalues --    0.75669   0.76115   0.76330   0.76417   0.76989
 Alpha virt. eigenvalues --    0.77311   0.77737   0.77886   0.78025   0.78226
 Alpha virt. eigenvalues --    0.79180   0.79403   0.79596   0.80404   0.80863
 Alpha virt. eigenvalues --    0.80907   0.81421   0.81731   0.81829   0.82806
 Alpha virt. eigenvalues --    0.83221   0.84011   0.84566   0.84984   0.85100
[...]
    46  Cl  -0.000021  -0.000039   0.000516   0.000001  -0.000006   0.000000
              25         26         27         28         29         30
     1  C    0.018680   0.006351  -0.001032  -0.000016   0.000199   0.000007
     2  C   -0.009611  -0.000176   0.000197   0.000048  -0.000002  -0.000018
     3  C    0.028461   0.000503   0.019025  -0.000230  -0.008877   0.000042
     4  C   -0.040155  -0.004786  -0.005379  -0.010234  -0.049694   0.000002
     5  C    0.224286  -0.192438  -0.059027  -0.000953  -0.083484   0.000000
     6  C   -0.116328   0.052054   0.003540   0.000244   0.026382  -0.000000
     7  C    0.002315   0.000043  -0.004157  -0.000005  -0.000109  -0.000887
     8  C   -0.043079  -0.001785   0.200864  -0.189195  -0.089225  -0.000000
     9  H   -0.012840   0.016720   0.000145   0.000002   0.001306  -0.000000
    10  C    0.003586   0.000204  -0.103688   0.054597   0.025469   0.000002
    11  C   -0.001893  -0.000014   0.013765   0.005636   0.000270   0.000019
    12  H    0.000087   0.000002  -0.013255   0.016193   0.001279   0.000000
    13  C   -0.000887  -0.000026  -0.000046  -0.000000  -0.000006   0.002315
    14  C    0.000042   0.000000   0.000034  -0.000000  -0.000000   0.028461
    15  C    0.000019   0.000000   0.000006   0.000000  -0.000000  -0.001893
    16  C   -0.000018  -0.000001  -0.000771  -0.000020  -0.000006  -0.009611
    17  C    0.000002   0.000000   0.000001  -0.000000  -0.000000  -0.040155
    18  C    0.000002   0.000000  -0.000000  -0.000000  -0.000000   0.003586
    19  C    0.000007   0.000000   0.000002   0.000000  -0.000000   0.018680
    20  C    0.000000  -0.000000  -0.000000  -0.000000   0.000000   0.224286
    21  C   -0.000000  -0.000000   0.000000  -0.000000  -0.000000  -0.043079
    22  H    0.000000  -0.000000  -0.000000   0.000000   0.000000   0.000087
    23  C   -0.000000   0.000000   0.000002   0.000000  -0.000000  -0.116328
    24  H   -0.000000   0.000000   0.000000  -0.000000   0.000000  -0.012840
    25  C    4.696300   0.718884  -0.059952  -0.003674   0.412639  -0.000000
    26  O    0.718884   7.887734  -0.002001  -0.000228  -0.114577  -0.000000
    27  C   -0.059952  -0.002001   4.687071   0.714203   0.431132  -0.000000
    28  O   -0.003674  -0.000228   0.714203   7.904417  -0.109148  -0.000000
    29  N    0.412639  -0.114577   0.431132  -0.109148   6.541489   0.000000
    30  C   -0.000000  -0.000000  -0.000000  -0.000000   0.000000   4.696300
    31  O   -0.000000   0.000000  -0.000000   0.000000   0.000000   0.718884
    32  C   -0.000000  -0.000000   0.000000  -0.000000   0.000000  -0.059952
    33  O   -0.000000   0.000000  -0.000000  -0.000000  -0.000000  -0.003674
    34  N    0.000000   0.000000   0.000000  -0.000000   0.000000   0.412639
    35  C   -0.064599   0.003619  -0.056088  -0.015251   0.237583   0.000000
    36  H   -0.012079   0.001712   0.004987   0.000686  -0.030712   0.000000
    37  H    0.010508   0.001462  -0.027275   0.012411  -0.025850   0.000000
    38  H   -0.011775   0.001583   0.004644   0.000701  -0.031226  -0.000000
    39  C    0.000000  -0.000000  -0.000000  -0.000000  -0.000000  -0.064599
    40  H    0.000000   0.000000  -0.000000   0.000000   0.000000  -0.012079
    41  H    0.000000  -0.000000   0.000000  -0.000000  -0.000000   0.010508
    42  H   -0.000000   0.000000  -0.000000  -0.000000  -0.000000  -0.011775
    43  Cl   0.000012  -0.000000   0.000000  -0.000000  -0.000000  -0.000005
    44  Cl   0.000000  -0.000000   0.000012  -0.000000  -0.000000  -0.000775
    45  Cl  -0.000005   0.000000  -0.000550   0.000018   0.000004   0.000012
    46  Cl  -0.000775   0.000018  -0.000003   0.000000   0.000004   0.000000
              31         32         33         34         35         36
     1  C    0.000000   0.000002   0.000000  -0.000000  -0.000008   0.000004
     2  C   -0.000001  -0.000771  -0.000020  -0.000006  -0.000022  -0.000008
     3  C    0.000000   0.000034  -0.000000  -0.000000   0.000423   0.000015
     4  C    0.000000   0.000001  -0.000000  -0.000000  -0.001823   0.000080
     5  C   -0.000000  -0.000000  -0.000000   0.000000   0.009899  -0.001500
     6  C    0.000000   0.000002   0.000000  -0.000000  -0.002055  -0.000048
     7  C   -0.000026  -0.000046  -0.000000  -0.000006   0.000006   0.000005
     8  C   -0.000000   0.000000  -0.000000  -0.000000   0.012202  -0.000962
     9  H    0.000000   0.000000  -0.000000   0.000000  -0.000132  -0.000007
    10  C    0.000000  -0.000000  -0.000000  -0.000000  -0.000963   0.000007
    11  C    0.000000   0.000006   0.000000  -0.000000   0.000014  -0.000002
    12  H   -0.000000  -0.000000   0.000000   0.000000  -0.000021  -0.000002
    13  C    0.000043  -0.004157  -0.000005  -0.000109   0.000001  -0.000000
    14  C    0.000503   0.019025  -0.000230  -0.008877  -0.000000   0.000000
    15  C   -0.000014   0.013765   0.005636   0.000270   0.000000   0.000000
    16  C   -0.000176   0.000197   0.000048  -0.000002   0.000001   0.000000
    17  C   -0.004786  -0.005379  -0.010234  -0.049694   0.000000  -0.000000
    18  C    0.000204  -0.103688   0.054597   0.025469   0.000000   0.000000
    19  C    0.006351  -0.001032  -0.000016   0.000199   0.000000  -0.000000
    20  C   -0.192438  -0.059027  -0.000953  -0.083484   0.000000   0.000000
    21  C   -0.001785   0.200864  -0.189195  -0.089225   0.000000  -0.000000
    22  H    0.000002  -0.013255   0.016193   0.001279   0.000000  -0.000000
    23  C    0.052054   0.003540   0.000244   0.026382   0.000000  -0.000000
    24  H    0.016720   0.000145   0.000002   0.001306   0.000000   0.000000
    25  C   -0.000000  -0.000000  -0.000000   0.000000  -0.064599  -0.012079
    26  O    0.000000  -0.000000   0.000000   0.000000   0.003619   0.001712
    27  C   -0.000000   0.000000  -0.000000   0.000000  -0.056088   0.004987
    28  O    0.000000  -0.000000  -0.000000  -0.000000  -0.015251   0.000686
    29  N    0.000000   0.000000  -0.000000   0.000000   0.237583  -0.030712
    30  C    0.718884  -0.059952  -0.003674   0.412639   0.000000   0.000000
    31  O    7.887734  -0.002001  -0.000228  -0.114577  -0.000000   0.000000
    32  C   -0.002001   4.687071   0.714203   0.431132  -0.000000  -0.000000
    33  O   -0.000228   0.714203   7.904417  -0.109148  -0.000000   0.000000
    34  N   -0.114577   0.431132  -0.109148   6.541489  -0.000000   0.000000
    35  C   -0.000000  -0.000000  -0.000000  -0.000000   4.998161   0.414743
    36  H    0.000000  -0.000000   0.000000   0.000000   0.414743   0.496780
    37  H   -0.000000   0.000000  -0.000000  -0.000000   0.408816  -0.020563
    38  H    0.000000  -0.000000  -0.000000  -0.000000   0.415126  -0.031670
    39  C    0.003619  -0.056088  -0.015251   0.237583   0.000000  -0.000000
    40  H    0.001712   0.004987   0.000686  -0.030712  -0.000000   0.000000
    41  H    0.001462  -0.027275   0.012411  -0.025850   0.000000  -0.000000
    42  H    0.001583   0.004644   0.000701  -0.031226  -0.000000  -0.000000
    43  Cl   0.000000  -0.000550   0.000018   0.000004  -0.000000   0.000000
    44  Cl   0.000018  -0.000003   0.000000   0.000004  -0.000000  -0.000000
    45  Cl  -0.000000   0.000000  -0.000000  -0.000000  -0.000001   0.000000
    46  Cl  -0.000000   0.000012  -0.000000  -0.000000  -0.000001  -0.000000
              37         38         39         40         41         42
     1  C   -0.000003   0.000001   0.000000  -0.000000   0.000000   0.000000
     2  C    0.000003   0.000000   0.000001   0.000000   0.000000  -0.000000
     3  C   -0.000036   0.000036  -0.000000   0.000000  -0.000000  -0.000000
     4  C   -0.001311   0.000386   0.000000  -0.000000  -0.000000   0.000000
     5  C    0.001565  -0.001649   0.000000   0.000000   0.000000  -0.000000
     6  C    0.000037  -0.000081   0.000000  -0.000000   0.000000   0.000000
     7  C    0.000002  -0.000004   0.000001  -0.000000   0.000000   0.000000
     8  C    0.007652  -0.000727   0.000000  -0.000000   0.000000  -0.000000
     9  H   -0.000001  -0.000004   0.000000   0.000000  -0.000000  -0.000000
    10  C   -0.000172   0.000021   0.000000   0.000000  -0.000000  -0.000000
    11  C   -0.000006  -0.000002   0.000000   0.000000  -0.000000  -0.000000
    12  H   -0.000011   0.000001   0.000000  -0.000000  -0.000000   0.000000
    13  C    0.000000   0.000000   0.000006   0.000005   0.000002  -0.000004
    14  C   -0.000000  -0.000000   0.000423   0.000015  -0.000036   0.000036
    15  C   -0.000000  -0.000000   0.000014  -0.000002  -0.000006  -0.000002
    16  C    0.000000  -0.000000  -0.000022  -0.000008   0.000003   0.000000
    17  C   -0.000000   0.000000  -0.001823   0.000080  -0.001311   0.000386
    18  C   -0.000000  -0.000000  -0.000963   0.000007  -0.000172   0.000021
    19  C    0.000000   0.000000  -0.000008   0.000004  -0.000003   0.000001
    20  C    0.000000  -0.000000   0.009899  -0.001500   0.001565  -0.001649
    21  C    0.000000  -0.000000   0.012202  -0.000962   0.007652  -0.000727
    22  H   -0.000000   0.000000  -0.000021  -0.000002  -0.000011   0.000001
    23  C    0.000000   0.000000  -0.002055  -0.000048   0.000037  -0.000081
    24  H   -0.000000  -0.000000  -0.000132  -0.000007  -0.000001  -0.000004
    25  C    0.010508  -0.011775   0.000000   0.000000   0.000000  -0.000000
    26  O    0.001462   0.001583  -0.000000   0.000000  -0.000000   0.000000
    27  C   -0.027275   0.004644  -0.000000  -0.000000   0.000000  -0.000000
    28  O    0.012411   0.000701  -0.000000   0.000000  -0.000000  -0.000000
    29  N   -0.025850  -0.031226  -0.000000   0.000000  -0.000000  -0.000000
    30  C    0.000000  -0.000000  -0.064599  -0.012079   0.010508  -0.011775
    31  O   -0.000000   0.000000   0.003619   0.001712   0.001462   0.001583
    32  C    0.000000  -0.000000  -0.056088   0.004987  -0.027275   0.004644
    33  O   -0.000000  -0.000000  -0.015251   0.000686   0.012411   0.000701
    34  N   -0.000000  -0.000000   0.237583  -0.030712  -0.025850  -0.031226
    35  C    0.408816   0.415126   0.000000  -0.000000   0.000000  -0.000000
    36  H   -0.020563  -0.031670  -0.000000   0.000000  -0.000000  -0.000000
    37  H    0.469468  -0.020696   0.000000  -0.000000   0.000000  -0.000000
    38  H   -0.020696   0.496218  -0.000000  -0.000000  -0.000000   0.000000
    39  C    0.000000  -0.000000   4.998161   0.414743   0.408816   0.415126
    40  H   -0.000000  -0.000000   0.414743   0.496780  -0.020563  -0.031670
    41  H    0.000000  -0.000000   0.408816  -0.020563   0.469468  -0.020696
    42  H   -0.000000   0.000000   0.415126  -0.031670  -0.020696   0.496218
    43  Cl  -0.000000   0.000000  -0.000001   0.000000  -0.000000   0.000000
    44  Cl  -0.000000   0.000000  -0.000001  -0.000000  -0.000000   0.000000
    45  Cl  -0.000000   0.000000  -0.000000   0.000000  -0.000000   0.000000
    46  Cl  -0.000000   0.000000  -0.000000  -0.000000  -0.000000   0.000000
              43         44         45         46
     1  C    0.014411  -0.000021  -0.000023   0.388315
     2  C    0.023328   0.000112   0.000330  -0.167126
     3  C    0.012024   0.012052   0.014194   0.014320
     4  C   -0.001132  -0.001143  -0.003056  -0.002797
     5  C    0.000499  -0.000039  -0.000133   0.011022
     6  C    0.002143  -0.000006   0.000008  -0.063630
     7  C    0.000110   0.023129  -0.167779   0.000334
     8  C   -0.000037   0.000516   0.011445  -0.000118
     9  H    0.000001   0.000000   0.000000   0.002689
    10  C   -0.000006   0.002086  -0.063884   0.000008
    11  C   -0.000022   0.014325   0.388862  -0.000023
    12  H    0.000000   0.000001   0.002488   0.000000
    13  C   -0.167779   0.000334   0.000110   0.023129
    14  C    0.014194   0.014320   0.012024   0.012052
    15  C    0.388862  -0.000023  -0.000022   0.014325
    16  C    0.000330  -0.167126   0.023328   0.000112
    17  C   -0.003056  -0.002797  -0.001132  -0.001143
    18  C   -0.063884   0.000008  -0.000006   0.002086
    19  C   -0.000023   0.388315   0.014411  -0.000021
    20  C   -0.000133   0.011022   0.000499  -0.000039
    21  C    0.011445  -0.000118  -0.000037   0.000516
    22  H    0.002488   0.000000   0.000000   0.000001
    23  C    0.000008  -0.063630   0.002143  -0.000006
    24  H    0.000000   0.002689   0.000001   0.000000
    25  C    0.000012   0.000000  -0.000005  -0.000775
    26  O   -0.000000  -0.000000   0.000000   0.000018
    27  C    0.000000   0.000012  -0.000550  -0.000003
    28  O   -0.000000  -0.000000   0.000018   0.000000
    29  N   -0.000000  -0.000000   0.000004   0.000004
    30  C   -0.000005  -0.000775   0.000012   0.000000
    31  O    0.000000   0.000018  -0.000000  -0.000000
    32  C   -0.000550  -0.000003   0.000000   0.000012
    33  O    0.000018   0.000000  -0.000000  -0.000000
    34  N    0.000004   0.000004  -0.000000  -0.000000
    35  C   -0.000000  -0.000000  -0.000001  -0.000001
    36  H    0.000000  -0.000000   0.000000  -0.000000
    37  H   -0.000000  -0.000000  -0.000000  -0.000000
    38  H    0.000000   0.000000   0.000000   0.000000
    39  C   -0.000001  -0.000001  -0.000000  -0.000000
    40  H    0.000000  -0.000000   0.000000  -0.000000
    41  H   -0.000000  -0.000000  -0.000000  -0.000000
    42  H    0.000000   0.000000   0.000000   0.000000
    43  Cl  16.836873  -0.000000   0.000000  -0.036793
    44  Cl  -0.000000  16.836856  -0.036793   0.000000
    45  Cl   0.000000  -0.036793  16.836873  -0.000000
    46  Cl  -0.036793   0.000000  -0.000000  16.836856
 Mulliken charges:
               1
     1  C   -0.021371
     2  C    0.051965
     3  C    0.050905
     4  C    0.099322
     5  C    0.008124
     6  C   -0.184677
     7  C    0.051291
     8  C    0.002419
     9  H    0.201703
    10  C   -0.179553
    11  C   -0.023037
    12  H    0.202013
    13  C    0.051291
    14  C    0.050905
    15  C   -0.023037
    16  C    0.051965
    17  C    0.099322
    18  C   -0.179553
    19  C   -0.021371
    20  C    0.008124
    21  C    0.002419
    22  H    0.202013
    23  C   -0.184677
    24  H    0.201703
    25  C    0.261842
    26  O   -0.374859
    27  C    0.253594
    28  O   -0.380203
    29  N   -0.134841
    30  C    0.261842
    31  O   -0.374859
    32  C    0.253594
    33  O   -0.380203
    34  N   -0.134841
    35  C   -0.359631
    36  H    0.178533
    37  H    0.183998
    38  H    0.179116
    39  C   -0.359631
    40  H    0.178533
    41  H    0.183998
    42  H    0.179116
    43  Cl  -0.033329
    44  Cl  -0.033325
    45  Cl  -0.033329
    46  Cl  -0.033325
 Sum of Mulliken charges =  -0.00000
 Mulliken charges with hydrogens summed into heavy atoms:
               1
     1  C   -0.021371
     2  C    0.051965
     3  C    0.050905
     4  C    0.099322
     5  C    0.008124
     6  C    0.017026
     7  C    0.051291
     8  C    0.002419
    10  C    0.022461
    11  C   -0.023037
    13  C    0.051291
    14  C    0.050905
    15  C   -0.023037
    16  C    0.051965
    17  C    0.099322
    18  C    0.022461
    19  C   -0.021371
    20  C    0.008124
    21  C    0.002419
    23  C    0.017026
    25  C    0.261842
    26  O   -0.374859
    27  C    0.253594
    28  O   -0.380203
    29  N   -0.134841
    30  C    0.261842
    31  O   -0.374859
    32  C    0.253594
    33  O   -0.380203
    34  N   -0.134841
    35  C    0.182017
    39  C    0.182017
    43  Cl  -0.033329
    44  Cl  -0.033325
    45  Cl  -0.033329
    46  Cl  -0.033325
 Electronic spatial extent (au):  <R**2>=          19806.8964
 Charge=              0.0000 electrons
 Dipole moment (field-independent basis, Debye):
    X=              0.0000    Y=              0.0000    Z=              0.0279  Tot=              0.0279
 Quadrupole moment (field-independent basis, Debye-Ang):
   XX=           -250.3076   YY=           -243.8673   ZZ=           -231.3126
   XY=             -0.0771   XZ=              0.0000   YZ=             -0.0000
 Traceless Quadrupole moment (field-independent basis, Debye-Ang):
   XX=             -8.4784   YY=             -2.0381   ZZ=             10.5166
   XY=             -0.0771   XZ=              0.0000   YZ=             -0.0000
 Octapole moment (field-independent basis, Debye-Ang**2):
  XXX=              0.0000  YYY=              0.0000  ZZZ=              1.4422  XYY=             -0.0000
  XXY=              0.0000  XXZ=             -1.0829  XZZ=              0.0000  YZZ=              0.0000
  YYZ=              0.3483  XYZ=             48.2754
 Hexadecapole moment (field-independent basis, Debye-Ang**3):
 XXXX=          -6942.3408 YYYY=         -17684.0465 ZZZZ=          -1163.2743 XXXY=             12.2895
 XXXZ=             -0.0000 YYYX=             20.0291 YYYZ=              0.0000 ZZZX=             -0.0000
 ZZZY=             -0.0000 XXYY=          -4955.4646 XXZZ=          -1342.5931 YYZZ=          -3228.7481
 XXYZ=              0.0000 YYXZ=             -0.0000 ZZXY=             -3.0426
 N-N= 4.552658738218D+03 E-N=-1.675813974302D+04  KE= 3.240014673764D+03
 Symmetry A    KE= 1.619780165082D+03
 Symmetry B    KE= 1.620234508682D+03
 Leave Link  601 at Wed Feb 24 05:25:52 2021, MaxMem=  5242880000 cpu:       274.1
 (Enter /opt/nce/packages/global/g09/l9999.exe)
 1\1\GINC-CN017\SP\RM062X TD-FC\Gen\C26H10Cl4N2O4\PNG4RJV\24-Feb-2021\0
 \\#p m062x chkbasis geom=allcheck Guess=Read int=ultrafine scrf=(SMD,s
 olvent=Dichloromethane) td=(NStates=30)\\Title\\0,1\C,0,-2.2853437362,
 1.4315429985,0.7131246265\C,0,-1.2238678693,0.7134246145,0.1785373921\
 C,0,0.00354724,1.4162914627,-0.0020187586\C,0,0.0070373119,2.822492915
 ,-0.0019195357\C,0,-1.147729882,3.5216404734,0.3913904298\C,0,-2.25339
 83398,2.8327183342,0.8085352232\C,0,1.2272663351,0.7071843275,-0.18229
 99031\C,0,1.1649428411,3.517451294,-0.3945299237\H,0,-3.1127571735,3.3
 650106095,1.1936007018\C,0,2.2666820088,2.8218262894,-0.8116390825\C,0
 ,2.2918901384,1.4205019842,-0.716850737\H,0,3.1289822292,3.3496274333,
 -1.1960776031\C,0,-1.2272663354,-0.7071843276,-0.182299903\C,0,-0.0035
 472403,-1.4162914627,-0.0020187583\C,0,-2.2918901384,-1.4205019843,-0.
 7168507377\C,0,1.2238678689,-0.7134246144,0.1785373921\C,0,-0.00703731
 21,-2.822492915,-0.0019195353\C,0,-2.2666820087,-2.8218262895,-0.81163
 90829\C,0,2.2853437362,-1.4315429985,0.7131246259\C,0,1.1477298819,-3.
 5216404734,0.39139043\C,0,-1.1649428413,-3.517451294,-0.3945299235\H,0
 ,-3.1289822289,-3.3496274334,-1.196077604\C,0,2.2533983398,-2.83271833
 42,0.8085352228\H,0,3.1127571738,-3.3650106094,1.1936007009\C,0,-1.144
 4466706,5.0034957383,0.4124701447\O,0,-2.1050727209,5.6488592207,0.769
 3341318\C,0,1.1783013982,5.0016217067,-0.4165094585\O,0,2.1512575488,5
 .6249155062,-0.7769852544\N,0,0.0167449707,5.643946718,-0.0002988369\C
 ,0,1.1444466704,-5.0034957383,0.4124701449\O,0,2.1050727208,-5.6488592
 207,0.7693341318\C,0,-1.1783013983,-5.0016217067,-0.4165094582\O,0,-2.
 1512575489,-5.6249155063,-0.7769852544\N,0,-0.0167449708,-5.643946718,
 -0.0002988367\C,0,-0.0176520216,7.1048119303,0.0169567979\H,0,-0.81969
 59514,7.457994005,-0.6284785872\H,0,0.9373475601,7.4734098801,-0.33771
 77202\H,0,-0.2014518184,7.4534551882,1.0316269611\C,0,0.0176520215,-7.
 1048119303,0.016956798\H,0,0.8196959513,-7.457994005,-0.628478587\H,0,
 -0.9373475602,-7.4734098801,-0.3377177201\H,0,0.2014518182,-7.45345518
 83,1.0316269612\Cl,0,-3.6654815495,-0.6399391715,-1.4133402026\Cl,0,3.
 6626072839,-0.6571595159,1.4092351927\Cl,0,3.6654815505,0.6399391712,-
 1.4133401999\Cl,0,-3.6626072829,0.6571595162,1.4092351954\\Version=ES6
 4L-G09RevE.01\State=1-A\HF=-3248.1278424\RMSD=3.994e-09\PG=C02 [X(C26H
 10Cl4N2O4)]\\@


 "I COULD HAVE DONE IT IN A MUCH MORE COMPLICATED WAY"
 SAID THE RED QUEEN, IMMENSELY PROUD.

                                      -- LEWIS CARROLL
 Job cpu time:       2 days  5 hours  4 minutes 40.2 seconds.
 File lengths (MBytes):  RWF=   7251 Int=      0 D2E=      0 Chk=   1292 Scr=      1
 Normal termination of Gaussian 09 at Wed Feb 24 05:25:55 2021.
