
                                 *****************
                                 * O   R   C   A *
                                 *****************

                                            #,                                       
                                            ###                                      
                                            ####                                     
                                            #####                                    
                                            ######                                   
                                           ########,                                 
                                     ,,################,,,,,                         
                               ,,#################################,,                 
                          ,,##########################################,,             
                       ,#########################################, ''#####,          
                    ,#############################################,,   '####,        
                  ,##################################################,,,,####,       
                ,###########''''           ''''###############################       
              ,#####''   ,,,,##########,,,,          '''####'''          '####       
            ,##' ,,,,###########################,,,                        '##       
           ' ,,###''''                  '''############,,,                           
         ,,##''                                '''############,,,,        ,,,,,,###''
      ,#''                                            '''#######################'''  
     '                                                          ''''####''''         
             ,#######,   #######,   ,#######,      ##                                
            ,#'     '#,  ##    ##  ,#'     '#,    #''#        ######   ,####,        
            ##       ##  ##   ,#'  ##            #'  '#       #        #'  '#        
            ##       ##  #######   ##           ,######,      #####,   #    #        
            '#,     ,#'  ##    ##  '#,     ,#' ,#      #,         ##   #,  ,#        
             '#######'   ##     ##  '#######'  #'      '#     #####' # '####'        



                  #######################################################
                  #                        -***-                        #
                  #          Department of theory and spectroscopy      #
                  #    Directorship and core code : Frank Neese         #
                  #        Max Planck Institute fuer Kohlenforschung    #
                  #                Kaiser Wilhelm Platz 1               #
                  #                 D-45470 Muelheim/Ruhr               #
                  #                      Germany                        #
                  #                                                     #
                  #                  All rights reserved                #
                  #                        -***-                        #
                  #######################################################


                         Program Version 5.0.2 -  RELEASE  -


 With contributions from (in alphabetic order):
   Daniel Aravena         : Magnetic Suceptibility
   Michael Atanasov       : Ab Initio Ligand Field Theory (pilot matlab implementation)
   Alexander A. Auer      : GIAO ZORA, VPT2 properties, NMR spectrum
   Ute Becker             : Parallelization
   Giovanni Bistoni       : ED, misc. LED, open-shell LED, HFLD
   Martin Brehm           : Molecular dynamics
   Dmytro Bykov           : SCF Hessian
   Vijay G. Chilkuri      : MRCI spin determinant printing, contributions to CSF-ICE
   Dipayan Datta          : RHF DLPNO-CCSD density
   Achintya Kumar Dutta   : EOM-CC, STEOM-CC
   Dmitry Ganyushin       : Spin-Orbit,Spin-Spin,Magnetic field MRCI
   Miquel Garcia          : C-PCM and meta-GGA Hessian, CC/C-PCM, Gaussian charge scheme
   Yang Guo               : DLPNO-NEVPT2, F12-NEVPT2, CIM, IAO-localization
   Andreas Hansen         : Spin unrestricted coupled pair/coupled cluster methods
   Benjamin Helmich-Paris : MC-RPA, TRAH-SCF, COSX integrals
   Lee Huntington         : MR-EOM, pCC
   Robert Izsak           : Overlap fitted RIJCOSX, COSX-SCS-MP3, EOM
   Marcus Kettner         : VPT2
   Christian Kollmar      : KDIIS, OOCD, Brueckner-CCSD(T), CCSD density, CASPT2, CASPT2-K
   Simone Kossmann        : Meta GGA functionals, TD-DFT gradient, OOMP2, MP2 Hessian
   Martin Krupicka        : Initial AUTO-CI
   Lucas Lang             : DCDCAS
   Marvin Lechner         : AUTO-CI (C++ implementation), FIC-MRCC
   Dagmar Lenk            : GEPOL surface, SMD
   Dimitrios Liakos       : Extrapolation schemes; Compound Job, initial MDCI parallelization
   Dimitrios Manganas     : Further ROCIS development; embedding schemes
   Dimitrios Pantazis     : SARC Basis sets
   Anastasios Papadopoulos: AUTO-CI, single reference methods and gradients
   Taras Petrenko         : DFT Hessian,TD-DFT gradient, ASA, ECA, R-Raman, ABS, FL, XAS/XES, NRVS
   Peter Pinski           : DLPNO-MP2, DLPNO-MP2 Gradient
   Christoph Reimann      : Effective Core Potentials
   Marius Retegan         : Local ZFS, SOC
   Christoph Riplinger    : Optimizer, TS searches, QM/MM, DLPNO-CCSD(T), (RO)-DLPNO pert. Triples
   Tobias Risthaus        : Range-separated hybrids, TD-DFT gradient, RPA, STAB
   Michael Roemelt        : Original ROCIS implementation
   Masaaki Saitow         : Open-shell DLPNO-CCSD energy and density
   Barbara Sandhoefer     : DKH picture change effects
   Avijit Sen             : IP-ROCIS
   Kantharuban Sivalingam : CASSCF convergence, NEVPT2, FIC-MRCI
   Bernardo de Souza      : ESD, SOC TD-DFT
   Georgi Stoychev        : AutoAux, RI-MP2 NMR, DLPNO-MP2 response
   Willem Van den Heuvel  : Paramagnetic NMR
   Boris Wezisla          : Elementary symmetry handling
   Frank Wennmohs         : Technical directorship


 We gratefully acknowledge several colleagues who have allowed us to
 interface, adapt or use parts of their codes:
   Stefan Grimme, W. Hujo, H. Kruse, P. Pracht,  : VdW corrections, initial TS optimization,
                  C. Bannwarth, S. Ehlert          DFT functionals, gCP, sTDA/sTD-DF
   Ed Valeev, F. Pavosevic, A. Kumar             : LibInt (2-el integral package), F12 methods
   Garnet Chan, S. Sharma, J. Yang, R. Olivares  : DMRG
   Ulf Ekstrom                                   : XCFun DFT Library
   Mihaly Kallay                                 : mrcc  (arbitrary order and MRCC methods)
   Jiri Pittner, Ondrej Demel                    : Mk-CCSD
   Frank Weinhold                                : gennbo (NPA and NBO analysis)
   Christopher J. Cramer and Donald G. Truhlar   : smd solvation model
   Lars Goerigk                                  : TD-DFT with DH, B97 family of functionals
   V. Asgeirsson, H. Jonsson                     : NEB implementation
   FAccTs GmbH                                   : IRC, NEB, NEB-TS, DLPNO-Multilevel, CI-OPT
                                                   MM, QMMM, 2- and 3-layer-ONIOM, Crystal-QMMM,
                                                   LR-CPCM, SF, NACMEs, symmetry and pop. for TD-DFT,
                                                   nearIR, NL-DFT gradient (VV10), updates on ESD,
                                                   ML-optimized integration grids
   S Lehtola, MJT Oliveira, MAL Marques          : LibXC Library
   Liviu Ungur et al                             : ANISO software


 Your calculation uses the libint2 library for the computation of 2-el integrals
 For citations please refer to: http://libint.valeyev.net

 Your ORCA version has been built with support for libXC version: 5.1.0
 For citations please refer to: https://tddft.org/programs/libxc/

 This ORCA versions uses:
   CBLAS   interface :  Fast vector & matrix operations
   LAPACKE interface :  Fast linear algebra routines
   SCALAPACK package :  Parallel linear algebra routines
   Shared memory     :  Shared parallel matrices
   BLAS/LAPACK       :  OpenBLAS 0.3.15  USE64BITINT DYNAMIC_ARCH NO_AFFINITY Prescott SINGLE_THREADED
        Core in use  :  Prescott
   Copyright (c) 2011-2014, The OpenBLAS Project


Your calculation utilizes the SMD solvation module
Please cite in your paper:
A.V. Marenich, C.J. Cramer, D.G. Truhlar J. Phys. Chem. B, 113, (2009), 6378 

================================================================================

----- Orbital basis set information -----
Your calculation utilizes the basis: def2-TZVP
   F. Weigend and R. Ahlrichs, Phys. Chem. Chem. Phys. 7, 3297 (2005).

----- AuxJ basis set information -----
Your calculation utilizes the auxiliary basis: def2/J
   F. Weigend, Phys. Chem. Chem. Phys. 8, 1057 (2006).

----- AuxC basis set information -----
Your calculation utilizes the auxiliary basis: def2-TZVP/C
  H-La, Hf-Rn : A. Hellweg, C. Hattig, S. Hofener and W. Klopper, Theor. Chem. Acc. 117, 587 (2007).
        Ce-Lu : J. Chmela and M. E. Harding, Mol. Phys. (2018).

================================================================================
                                        WARNINGS
                       Please study these warnings very carefully!
================================================================================

INFO   : Checking CIS options ...
  ===> : (D) CORRECTION FOUND - SETTING MODE=3
  ===> : JK MODE FOUND - ACTIVATING RI-MP2 CODE
  ===> : MP2 AND CIS FOUND - CHECKING
WARNING: CIS(D) and MP2 runs must have the same orbital window
  ===> : adjusting orbital windows

WARNING: No MP2 level density has been requested!
         To caclulate MP2 level properties use
         %mp2 Density relaxed end
         or
         %mp2 Density unrelaxed end
         Otherwise for double-hybrid DFT only the energy is correct!

WARNING: The frozen-core approximation is turned on by default for 
         the MP2 part of double-hybrid DFT.

WARNING: CIS/ROCIS methods need fully converged wavefunctions
  ===> : Setting SCFConvForced true
         You can overwrite this default with %scf ConvForced false 


INFO   : the flag for use of the SHARK integral package has been found!

================================================================================
                                       INPUT FILE
================================================================================
NAME = PDI_2_M06L_def2TZVP_coords.inp
|  1> %maxcore 20000
|  2> %pal
|  3>  nprocs= 6
|  4> end
|  5> ! RI-SCS-PBE-QIDH   def2-TZVP def2/J def2-TZVP/C RIJCOSX CPCM TightSCF
|  6> %TDDFT  
|  7>    NROOTS   30
|  8>    dcorr 4
|  9>    doscs true 
| 10>    TDA      FALSE
| 11> END
| 12> 
| 13> %CPCM
| 14>    SMD          TRUE
| 15>    SMDsolvent   "DICHLOROMETHANE"
| 16> END
| 17>    
| 18> 
| 19> * xyz 0 1
| 20> C                   1.43137300    2.29418800    0.70438500
| 21> C                   0.70439600    1.22302400    0.17341900
| 22> C                   1.41160100   -0.00015500   -0.00126900
| 23> C                   2.82474200   -0.00027400   -0.00119400
| 24> C                   3.52149700    1.15730000    0.38105200
| 25> C                   2.82228800    2.26690200    0.79369700
| 26> C                   0.70405000   -1.22300200   -0.17559400
| 27> C                   3.52285500   -1.15758300   -0.38266900
| 28> H                   3.35673600    3.12398000    1.17950300
| 29> C                   2.82228800   -2.26663500   -0.79522700
| 30> C                   1.43137300   -2.29391200   -0.70639200
| 31> H                   3.35628000   -3.12414500   -1.18047800
| 32> C                  -0.70405000    1.22300200   -0.17559400
| 33> C                  -1.41160100    0.00015500   -0.00126900
| 34> C                  -1.43137300    2.29391200   -0.70639200
| 35> C                  -0.70439600   -1.22302400    0.17341900
| 36> C                  -2.82474200    0.00027400   -0.00119400
| 37> C                  -2.82228800    2.26663500   -0.79522700
| 38> C                  -1.43137300   -2.29418800    0.70438500
| 39> C                  -3.52149700   -1.15730000    0.38105200
| 40> C                  -3.52285500    1.15758300   -0.38266900
| 41> H                  -3.35628000    3.12414500   -1.18047800
| 42> C                  -2.82228800   -2.26690200    0.79369700
| 43> H                  -3.35673600   -3.12398000    1.17950300
| 44> C                   4.99064900    1.16612600    0.40310100
| 45> O                   5.64225000    2.13307100    0.75315200
| 46> C                   4.99419600   -1.17543900   -0.40560700
| 47> O                   5.62839400   -2.15226100   -0.75801100
| 48> N                   5.63329500   -0.00261900    0.00024400
| 49> C                  -4.99064900   -1.16612600    0.40310100
| 50> O                  -5.64225000   -2.13307100    0.75315200
| 51> C                  -4.99419600    1.17543900   -0.40560700
| 52> O                  -5.62839400    2.15226100   -0.75801100
| 53> N                  -5.63329500    0.00261900    0.00024400
| 54> C                   7.08797400    0.03123000    0.01520000
| 55> H                   7.45013100    0.82016800   -0.64041300
| 56> H                   7.45483800   -0.92943800   -0.32481800
| 57> H                   7.44679400    0.23066200    1.02272400
| 58> C                  -7.08797400   -0.03123000    0.01520000
| 59> H                  -7.45013100   -0.82016800   -0.64041300
| 60> H                  -7.45483800    0.92943800   -0.32481800
| 61> H                  -7.44679400   -0.23066200    1.02272400
| 62> Cl                 -0.64800500    3.66045300   -1.41777100
| 63> Cl                 -0.64757500   -3.66049400    1.41560800
| 64> Cl                  0.64800500   -3.66045300   -1.41777100
| 65> Cl                  0.64757500    3.66049400    1.41560800
| 66> *
| 67> 
| 68> 
| 69>                          ****END OF INPUT****
================================================================================

                       ****************************
                       * Single Point Calculation *
                       ****************************

---------------------------------
CARTESIAN COORDINATES (ANGSTROEM)
---------------------------------
  C      1.431373    2.294188    0.704385
  C      0.704396    1.223024    0.173419
  C      1.411601   -0.000155   -0.001269
  C      2.824742   -0.000274   -0.001194
  C      3.521497    1.157300    0.381052
  C      2.822288    2.266902    0.793697
  C      0.704050   -1.223002   -0.175594
  C      3.522855   -1.157583   -0.382669
  H      3.356736    3.123980    1.179503
  C      2.822288   -2.266635   -0.795227
  C      1.431373   -2.293912   -0.706392
  H      3.356280   -3.124145   -1.180478
  C     -0.704050    1.223002   -0.175594
  C     -1.411601    0.000155   -0.001269
  C     -1.431373    2.293912   -0.706392
  C     -0.704396   -1.223024    0.173419
  C     -2.824742    0.000274   -0.001194
  C     -2.822288    2.266635   -0.795227
  C     -1.431373   -2.294188    0.704385
  C     -3.521497   -1.157300    0.381052
  C     -3.522855    1.157583   -0.382669
  H     -3.356280    3.124145   -1.180478
  C     -2.822288   -2.266902    0.793697
  H     -3.356736   -3.123980    1.179503
  C      4.990649    1.166126    0.403101
  O      5.642250    2.133071    0.753152
  C      4.994196   -1.175439   -0.405607
  O      5.628394   -2.152261   -0.758011
  N      5.633295   -0.002619    0.000244
  C     -4.990649   -1.166126    0.403101
  O     -5.642250   -2.133071    0.753152
  C     -4.994196    1.175439   -0.405607
  O     -5.628394    2.152261   -0.758011
  N     -5.633295    0.002619    0.000244
  C      7.087974    0.031230    0.015200
  H      7.450131    0.820168   -0.640413
  H      7.454838   -0.929438   -0.324818
  H      7.446794    0.230662    1.022724
  C     -7.087974   -0.031230    0.015200
  H     -7.450131   -0.820168   -0.640413
  H     -7.454838    0.929438   -0.324818
  H     -7.446794   -0.230662    1.022724
  Cl    -0.648005    3.660453   -1.417771
  Cl    -0.647575   -3.660494    1.415608
  Cl     0.648005   -3.660453   -1.417771
  Cl     0.647575    3.660494    1.415608

----------------------------
CARTESIAN COORDINATES (A.U.)
----------------------------
  NO LB      ZA    FRAG     MASS         X           Y           Z
   0 C     6.0000    0    12.011    2.704903    4.335387    1.331095
   1 C     6.0000    0    12.011    1.331116    2.311180    0.327714
   2 C     6.0000    0    12.011    2.667539   -0.000293   -0.002398
   3 C     6.0000    0    12.011    5.337989   -0.000518   -0.002256
   4 C     6.0000    0    12.011    6.654665    2.186980    0.720084
   5 C     6.0000    0    12.011    5.333351    4.283824    1.499870
   6 C     6.0000    0    12.011    1.330462   -2.311139   -0.331825
   7 C     6.0000    0    12.011    6.657231   -2.187515   -0.723140
   8 H     1.0000    0     1.008    6.343312    5.903467    2.228938
   9 C     6.0000    0    12.011    5.333351   -4.283319   -1.502761
  10 C     6.0000    0    12.011    2.704903   -4.334865   -1.334887
  11 H     1.0000    0     1.008    6.342450   -5.903778   -2.230780
  12 C     6.0000    0    12.011   -1.330462    2.311139   -0.331825
  13 C     6.0000    0    12.011   -2.667539    0.000293   -0.002398
  14 C     6.0000    0    12.011   -2.704903    4.334865   -1.334887
  15 C     6.0000    0    12.011   -1.331116   -2.311180    0.327714
  16 C     6.0000    0    12.011   -5.337989    0.000518   -0.002256
  17 C     6.0000    0    12.011   -5.333351    4.283319   -1.502761
  18 C     6.0000    0    12.011   -2.704903   -4.335387    1.331095
  19 C     6.0000    0    12.011   -6.654665   -2.186980    0.720084
  20 C     6.0000    0    12.011   -6.657231    2.187515   -0.723140
  21 H     1.0000    0     1.008   -6.342450    5.903778   -2.230780
  22 C     6.0000    0    12.011   -5.333351   -4.283824    1.499870
  23 H     1.0000    0     1.008   -6.343312   -5.903467    2.228938
  24 C     6.0000    0    12.011    9.430960    2.203659    0.761750
  25 O     8.0000    0    15.999   10.662307    4.030920    1.423251
  26 C     6.0000    0    12.011    9.437663   -2.221258   -0.766486
  27 O     8.0000    0    15.999   10.636123   -4.067184   -1.432433
  28 N     7.0000    0    14.007   10.645385   -0.004949    0.000461
  29 C     6.0000    0    12.011   -9.430960   -2.203659    0.761750
  30 O     8.0000    0    15.999  -10.662307   -4.030920    1.423251
  31 C     6.0000    0    12.011   -9.437663    2.221258   -0.766486
  32 O     8.0000    0    15.999  -10.636123    4.067184   -1.432433
  33 N     7.0000    0    14.007  -10.645385    0.004949    0.000461
  34 C     6.0000    0    12.011   13.394330    0.059016    0.028724
  35 H     1.0000    0     1.008   14.078707    1.549893   -1.210205
  36 H     1.0000    0     1.008   14.087602   -1.756383   -0.613817
  37 H     1.0000    0     1.008   14.072401    0.435888    1.932668
  38 C     6.0000    0    12.011  -13.394330   -0.059016    0.028724
  39 H     1.0000    0     1.008  -14.078707   -1.549893   -1.210205
  40 H     1.0000    0     1.008  -14.087602    1.756383   -0.613817
  41 H     1.0000    0     1.008  -14.072401   -0.435888    1.932668
  42 Cl   17.0000    0    35.453   -1.224552    6.917254   -2.679199
  43 Cl   17.0000    0    35.453   -1.223739   -6.917331    2.675111
  44 Cl   17.0000    0    35.453    1.224552   -6.917254   -2.679199
  45 Cl   17.0000    0    35.453    1.223739    6.917331    2.675111

--------------------------------
INTERNAL COORDINATES (ANGSTROEM)
--------------------------------
 C      0   0   0     0.000000000000     0.00000000     0.00000000
 C      1   0   0     1.399218627156     0.00000000     0.00000000
 C      2   1   0     1.423664874684   116.50072863     0.00000000
 C      3   2   1     1.413141007001   119.78953565   342.61710070
 C      4   3   2     1.404121469110   119.74668930    10.14154515
 C      5   4   3     1.374912986378   119.64861850     2.11093847
 C      3   2   1     1.423507080641   120.40993659   162.59826545
 C      4   3   2     1.404367849915   119.81203447   190.11606347
 H      6   5   4     1.081232459938   119.69895282   174.03869147
 C      8   4   3     1.375134380181   119.52917717     2.13245416
 C     10   8   4     1.394015864034   120.33020283   353.42255944
 H     10   8   4     1.081151788217   119.66680254   174.05396540
 C      2   1   3     1.451044523634   126.55477647   177.89119413
 C     13   2   1     1.423507080641   116.93720806   213.14728424
 C     13   2   1     1.399140268605   126.57056251    35.26277139
 C     14  13   2     1.423664874684   120.40993659   344.52284371
 C     14  13   2     1.413141007001   119.80052509   164.50400639
 C     15  13   2     1.394015864034   121.86222349   191.12321192
 C     16  14  13     1.399218627156   116.50072863   162.59826545
 C     17  14  13     1.404121469110   119.74668930   190.16026460
 C     18  15  13     1.375134380181   120.33020283   358.61130361
 H     18  15  13     1.081151788217   119.99998169   177.97778841
 C     20  17  14     1.374912986378   119.64861850     2.11093847
 H     23  20  17     1.081232459938   119.69895282   174.03869147
 C      5   4   3     1.469343954213   120.34420757   179.18406572
 O     25   5   4     1.217416197866   122.97332458   181.59355806
 C      8   4   3     1.471628121117   120.74626937   179.26125250
 O     27   8   4     1.216789588262   122.36826871   181.58635009
 N     25   5   4     1.393288383211   116.85962994     1.51445734
 C     20  17  14     1.469343954213   120.34420757   179.18406572
 O     30  20  17     1.217416197866   122.97332458   181.59355806
 C     21  18  15     1.471628121117   119.66263679   176.26229661
 O     32  21  18     1.216789588262   122.36826871   358.71134409
 N     30  20  17     1.393288383211   116.85962994     1.51445734
 C     29  25   5     1.455149624533   116.01525424   179.35076410
 H     35  29  25     1.087846159281   110.08903667   300.72330104
 H     35  29  25     1.083090227564   108.34580011   180.44893049
 H     35  29  25     1.087947391007   110.08960806    60.15123995
 C     34  30  20     1.455149624533   116.01525424   179.35076410
 H     39  34  30     1.087846159281   110.08903667   300.72330104
 H     39  34  30     1.083090227564   108.34580011   180.44893049
 H     39  34  30     1.087947391007   110.08960806    60.15123995
 Cl    15  13   2     1.728340189241   121.71640215    16.75473925
 Cl    19  16  14     1.728285146082   121.71806762   198.85582211
 Cl    11  10   8     1.728340189241   116.19849414   173.27318285
 Cl     1   2   3     1.728285146082   121.71806762   198.85582211

---------------------------
INTERNAL COORDINATES (A.U.)
---------------------------
 C      0   0   0     0.000000000000     0.00000000     0.00000000
 C      1   0   0     2.644140006807     0.00000000     0.00000000
 C      2   1   0     2.690336719637   116.50072863     0.00000000
 C      3   2   1     2.670449491845   119.78953565   342.61710070
 C      4   3   2     2.653405035378   119.74668930    10.14154515
 C      5   4   3     2.598209002226   119.64861850     2.11093847
 C      3   2   1     2.690038532109   120.40993659   162.59826545
 C      4   3   2     2.653870627623   119.81203447   190.11606347
 H      6   5   4     2.043233236389   119.69895282   174.03869147
 C      8   4   3     2.598627375882   119.52917717     2.13245416
 C     10   8   4     2.634308209366   120.33020283   353.42255944
 H     10   8   4     2.043080788930   119.66680254   174.05396540
 C      2   1   3     2.742076757795   126.55477647   177.89119413
 C     13   2   1     2.690038532109   116.93720806   213.14728424
 C     13   2   1     2.643991930605   126.57056251    35.26277139
 C     14  13   2     2.690336719637   120.40993659   344.52284371
 C     14  13   2     2.670449491845   119.80052509   164.50400639
 C     15  13   2     2.634308209366   121.86222349   191.12321192
 C     16  14  13     2.644140006807   116.50072863   162.59826545
 C     17  14  13     2.653405035378   119.74668930   190.16026460
 C     18  15  13     2.598627375882   120.33020283   358.61130361
 H     18  15  13     2.043080788930   119.99998169   177.97778841
 C     20  17  14     2.598209002226   119.64861850     2.11093847
 H     23  20  17     2.043233236389   119.69895282   174.03869147
 C      5   4   3     2.776657669995   120.34420757   179.18406572
 O     25   5   4     2.300583204967   122.97332458   181.59355806
 C      8   4   3     2.780974119887   120.74626937   179.26125250
 O     27   8   4     2.299399084423   122.36826871   181.58635009
 N     25   5   4     2.632933469842   116.85962994     1.51445734
 C     20  17  14     2.776657669995   120.34420757   179.18406572
 O     30  20  17     2.300583204967   122.97332458   181.59355806
 C     21  18  15     2.780974119887   119.66263679   176.26229661
 O     32  21  18     2.299399084423   122.36826871   358.71134409
 N     30  20  17     2.632933469842   116.85962994     1.51445734
 C     29  25   5     2.749834274245   116.01525424   179.35076410
 H     35  29  25     2.055731316879   110.08903667   300.72330104
 H     35  29  25     2.046743908422   108.34580011   180.44893049
 H     35  29  25     2.055922617118   110.08960806    60.15123995
 C     34  30  20     2.749834274245   116.01525424   179.35076410
 H     39  34  30     2.055731316879   110.08903667   300.72330104
 H     39  34  30     2.046743908422   108.34580011   180.44893049
 H     39  34  30     2.055922617118   110.08960806    60.15123995
 Cl    15  13   2     3.266089623915   121.71640215    16.75473925
 Cl    19  16  14     3.265985607420   121.71806762   198.85582211
 Cl    11  10   8     3.266089623915   116.19849414   173.27318285
 Cl     1   2   3     3.265985607420   121.71806762   198.85582211

---------------------
BASIS SET INFORMATION
---------------------
There are 5 groups of distinct atoms

 Group   1 Type C   : 11s6p2d1f contracted to 5s3p2d1f pattern {62111/411/11/1}
 Group   2 Type H   : 5s1p contracted to 3s1p pattern {311/1}
 Group   3 Type O   : 11s6p2d1f contracted to 5s3p2d1f pattern {62111/411/11/1}
 Group   4 Type N   : 11s6p2d1f contracted to 5s3p2d1f pattern {62111/411/11/1}
 Group   5 Type Cl  : 14s9p3d1f contracted to 5s5p2d1f pattern {73211/51111/21/1}

Atom   0C    basis set group =>   1
Atom   1C    basis set group =>   1
Atom   2C    basis set group =>   1
Atom   3C    basis set group =>   1
Atom   4C    basis set group =>   1
Atom   5C    basis set group =>   1
Atom   6C    basis set group =>   1
Atom   7C    basis set group =>   1
Atom   8H    basis set group =>   2
Atom   9C    basis set group =>   1
Atom  10C    basis set group =>   1
Atom  11H    basis set group =>   2
Atom  12C    basis set group =>   1
Atom  13C    basis set group =>   1
Atom  14C    basis set group =>   1
Atom  15C    basis set group =>   1
Atom  16C    basis set group =>   1
Atom  17C    basis set group =>   1
Atom  18C    basis set group =>   1
Atom  19C    basis set group =>   1
Atom  20C    basis set group =>   1
Atom  21H    basis set group =>   2
Atom  22C    basis set group =>   1
Atom  23H    basis set group =>   2
Atom  24C    basis set group =>   1
Atom  25O    basis set group =>   3
Atom  26C    basis set group =>   1
Atom  27O    basis set group =>   3
Atom  28N    basis set group =>   4
Atom  29C    basis set group =>   1
Atom  30O    basis set group =>   3
Atom  31C    basis set group =>   1
Atom  32O    basis set group =>   3
Atom  33N    basis set group =>   4
Atom  34C    basis set group =>   1
Atom  35H    basis set group =>   2
Atom  36H    basis set group =>   2
Atom  37H    basis set group =>   2
Atom  38C    basis set group =>   1
Atom  39H    basis set group =>   2
Atom  40H    basis set group =>   2
Atom  41H    basis set group =>   2
Atom  42Cl   basis set group =>   5
Atom  43Cl   basis set group =>   5
Atom  44Cl   basis set group =>   5
Atom  45Cl   basis set group =>   5
---------------------------------
AUXILIARY/J BASIS SET INFORMATION
---------------------------------
There are 5 groups of distinct atoms

 Group   1 Type C   : 12s5p4d2f1g contracted to 6s4p3d1f1g pattern {711111/2111/211/2/1}
 Group   2 Type H   : 5s2p1d contracted to 3s1p1d pattern {311/2/1}
 Group   3 Type O   : 12s5p4d2f1g contracted to 6s4p3d1f1g pattern {711111/2111/211/2/1}
 Group   4 Type N   : 12s5p4d2f1g contracted to 6s4p3d1f1g pattern {711111/2111/211/2/1}
 Group   5 Type Cl  : 14s5p5d2f1g contracted to 8s4p3d1f1g pattern {71111111/2111/311/2/1}

Atom   0C    basis set group =>   1
Atom   1C    basis set group =>   1
Atom   2C    basis set group =>   1
Atom   3C    basis set group =>   1
Atom   4C    basis set group =>   1
Atom   5C    basis set group =>   1
Atom   6C    basis set group =>   1
Atom   7C    basis set group =>   1
Atom   8H    basis set group =>   2
Atom   9C    basis set group =>   1
Atom  10C    basis set group =>   1
Atom  11H    basis set group =>   2
Atom  12C    basis set group =>   1
Atom  13C    basis set group =>   1
Atom  14C    basis set group =>   1
Atom  15C    basis set group =>   1
Atom  16C    basis set group =>   1
Atom  17C    basis set group =>   1
Atom  18C    basis set group =>   1
Atom  19C    basis set group =>   1
Atom  20C    basis set group =>   1
Atom  21H    basis set group =>   2
Atom  22C    basis set group =>   1
Atom  23H    basis set group =>   2
Atom  24C    basis set group =>   1
Atom  25O    basis set group =>   3
Atom  26C    basis set group =>   1
Atom  27O    basis set group =>   3
Atom  28N    basis set group =>   4
Atom  29C    basis set group =>   1
Atom  30O    basis set group =>   3
Atom  31C    basis set group =>   1
Atom  32O    basis set group =>   3
Atom  33N    basis set group =>   4
Atom  34C    basis set group =>   1
Atom  35H    basis set group =>   2
Atom  36H    basis set group =>   2
Atom  37H    basis set group =>   2
Atom  38C    basis set group =>   1
Atom  39H    basis set group =>   2
Atom  40H    basis set group =>   2
Atom  41H    basis set group =>   2
Atom  42Cl   basis set group =>   5
Atom  43Cl   basis set group =>   5
Atom  44Cl   basis set group =>   5
Atom  45Cl   basis set group =>   5
---------------------------------
AUXILIARY/C BASIS SET INFORMATION
---------------------------------
There are 5 groups of distinct atoms

 Group   1 Type C   : 8s6p5d3f1g contracted to 8s6p4d3f1g pattern {11111111/111111/2111/111/1}
 Group   2 Type H   : 4s3p2d contracted to 4s2p1d pattern {1111/21/2}
 Group   3 Type O   : 8s6p5d3f1g contracted to 8s6p4d3f1g pattern {11111111/111111/2111/111/1}
 Group   4 Type N   : 8s6p5d3f1g contracted to 8s6p4d3f1g pattern {11111111/111111/2111/111/1}
 Group   5 Type Cl  : 10s7p7d5f2g contracted to 9s7p6d5f2g pattern {211111111/1111111/211111/11111/11}

Atom   0C    basis set group =>   1
Atom   1C    basis set group =>   1
Atom   2C    basis set group =>   1
Atom   3C    basis set group =>   1
Atom   4C    basis set group =>   1
Atom   5C    basis set group =>   1
Atom   6C    basis set group =>   1
Atom   7C    basis set group =>   1
Atom   8H    basis set group =>   2
Atom   9C    basis set group =>   1
Atom  10C    basis set group =>   1
Atom  11H    basis set group =>   2
Atom  12C    basis set group =>   1
Atom  13C    basis set group =>   1
Atom  14C    basis set group =>   1
Atom  15C    basis set group =>   1
Atom  16C    basis set group =>   1
Atom  17C    basis set group =>   1
Atom  18C    basis set group =>   1
Atom  19C    basis set group =>   1
Atom  20C    basis set group =>   1
Atom  21H    basis set group =>   2
Atom  22C    basis set group =>   1
Atom  23H    basis set group =>   2
Atom  24C    basis set group =>   1
Atom  25O    basis set group =>   3
Atom  26C    basis set group =>   1
Atom  27O    basis set group =>   3
Atom  28N    basis set group =>   4
Atom  29C    basis set group =>   1
Atom  30O    basis set group =>   3
Atom  31C    basis set group =>   1
Atom  32O    basis set group =>   3
Atom  33N    basis set group =>   4
Atom  34C    basis set group =>   1
Atom  35H    basis set group =>   2
Atom  36H    basis set group =>   2
Atom  37H    basis set group =>   2
Atom  38C    basis set group =>   1
Atom  39H    basis set group =>   2
Atom  40H    basis set group =>   2
Atom  41H    basis set group =>   2
Atom  42Cl   basis set group =>   5
Atom  43Cl   basis set group =>   5
Atom  44Cl   basis set group =>   5
Atom  45Cl   basis set group =>   5


           ************************************************************
           *        Program running with 6 parallel MPI-processes     *
           *              working on a common directory               *
           ************************************************************
------------------------------------------------------------------------------
                           ORCA GTO INTEGRAL CALCULATION
                           -- RI-GTO INTEGRALS CHOSEN --
------------------------------------------------------------------------------
------------------------------------------------------------------------------
                   ___                                                        
                  /   \      - P O W E R E D   B Y -                         
                 /     \                                                     
                 |  |  |   _    _      __       _____    __    __             
                 |  |  |  | |  | |    /  \     |  _  \  |  |  /  |          
                  \  \/   | |  | |   /    \    | | | |  |  | /  /          
                 / \  \   | |__| |  /  /\  \   | |_| |  |  |/  /          
                |  |  |   |  __  | /  /__\  \  |    /   |      \           
                |  |  |   | |  | | |   __   |  |    \   |  |\   \          
                \     /   | |  | | |  |  |  |  | |\  \  |  | \   \       
                 \___/    |_|  |_| |__|  |__|  |_| \__\ |__|  \__/        
                                                                              
                      - O R C A' S   B I G   F R I E N D -                    
                                      &                                       
                       - I N T E G R A L  F E E D E R -                       
                                                                              
 v1 FN, 2020, v2 2021                                                         
------------------------------------------------------------------------------


Reading SHARK input file PDI_2_M06L_def2TZVP_coords.SHARKINP.tmp ... ok
----------------------
SHARK INTEGRAL PACKAGE
----------------------

Number of atoms                             ...     46
Number of basis functions                   ...   1200
Number of shells                            ...    444
Maximum angular momentum                    ...      3
Integral batch strategy                     ... SHARK/LIBINT Hybrid
RI-J (if used) integral strategy            ... SPLIT-RIJ (Revised 2003 algorithm where possible)
Printlevel                                  ...      1
Contraction scheme used                     ... SEGMENTED contraction
Coulomb Range Separation                    ... NOT USED
Exchange Range Separation                   ... NOT USED
Finite Nucleus Model                        ... NOT USED
Auxiliary Coulomb fitting basis             ... AVAILABLE
   # of basis functions in Aux-J            ...   1882
   # of shells in Aux-J                     ...    598
   Maximum angular momentum in Aux-J        ...      4
Auxiliary J/K fitting basis                 ... NOT available
Auxiliary Correlation fitting basis         ... AVAILABLE
   # of basis functions in Aux-C            ...   3034
   # of shells in Aux-C                     ...    890
   Maximum angular momentum in Aux-C        ...      4
Auxiliary 'external' fitting basis          ... NOT available
Integral threshold                          ...     2.500000e-11
Primitive cut-off                           ...     2.500000e-12
Primitive pair pre-selection threshold      ...     2.500000e-12

Calculating pre-screening integrals         ... done (  0.1 sec) Dimension = 444
Organizing shell pair data                  ... done (  2.5 sec)
Shell pair information
Total number of shell pairs                 ...     98790
Shell pairs after pre-screening             ...     57916
Total number of primitive shell pairs       ...    327714
Primitive shell pairs kept                  ...    119920
          la=0 lb=0:  11835 shell pairs
          la=1 lb=0:  16396 shell pairs
          la=1 lb=1:   5573 shell pairs
          la=2 lb=0:   8388 shell pairs
          la=2 lb=1:   5830 shell pairs
          la=2 lb=2:   1507 shell pairs
          la=3 lb=0:   3894 shell pairs
          la=3 lb=1:   2748 shell pairs
          la=3 lb=2:   1394 shell pairs
          la=3 lb=3:    351 shell pairs

Calculating one electron integrals          ... done (  0.1 sec)
Calculating RI/J V-Matrix + Cholesky decomp.... done (  0.2 sec)
Calculating RI/C V-Matrix + Cholesky decomp.... done (  0.6 sec)
Calculating Nuclear repulsion               ... done (  0.0 sec) ENN=   4554.393209965006 Eh

SHARK setup successfully completed in   4.3 seconds

Maximum memory used throughout the entire GTOINT-calculation: 115.1 MB


           ************************************************************
           *        Program running with 6 parallel MPI-processes     *
           *              working on a common directory               *
           ************************************************************
-------------------------------------------------------------------------------
                                 ORCA SCF
-------------------------------------------------------------------------------

------------
SCF SETTINGS
------------
Hamiltonian:
 Density Functional     Method          .... DFT(GTOs)
 Exchange Functional    Exchange        .... PBE
   PBE kappa parameter   XKappa         ....  0.804000
   PBE mue parameter    XMuePBE         ....  0.219520
 Correlation Functional Correlation     .... PBE
   PBE beta parameter  CBetaPBE         ....  0.066725
 LDA part of GGA corr.  LDAOpt          .... PW91-LDA
 Gradients option       PostSCFGGA      .... off
 Hybrid DFT is turned on
   Fraction HF Exchange ScalHFX         ....  0.690000
   Scaling of DF-GGA-X  ScalDFX         ....  0.310000
   Scaling of DF-GGA-C  ScalDFC         ....  0.670000
   Scaling of DF-LDA-C  ScalLDAC        ....  0.670000
   Perturbative correction              ....  0.330000
   Density functional embedding theory  .... OFF
 RI-approximation to the Coulomb term is turned on
   Number of AuxJ basis functions       .... 1882
   RIJ-COSX (HFX calculated with COS-X)).... on


General Settings:
 Integral files         IntName         .... PDI_2_M06L_def2TZVP_coords
 Hartree-Fock type      HFTyp           .... RHF
 Total Charge           Charge          ....    0
 Multiplicity           Mult            ....    1
 Number of Electrons    NEL             ....  280
 Basis Dimension        Dim             .... 1200
 Nuclear Repulsion      ENuc            ....   4554.3932099650 Eh

Convergence Acceleration:
 DIIS                   CNVDIIS         .... on
   Start iteration      DIISMaxIt       ....    12
   Startup error        DIISStart       ....  0.200000
   # of expansion vecs  DIISMaxEq       ....     5
   Bias factor          DIISBfac        ....   1.050
   Max. coefficient     DIISMaxC        ....  10.000
 Trust-Rad. Augm. Hess. CNVTRAH         .... auto
   Auto Start mean grad. ratio tolernc. ....  1.125000
   Auto Start start iteration           ....    20
   Auto Start num. interpolation iter.  ....    10
   Max. Number of Micro iterations      ....    16
   Max. Number of Macro iterations      .... Maxiter - #DIIS iter
   Number of Davidson start vectors     ....     2
   Converg. threshold I  (grad. norm)   ....   1.000e-05
   Converg. threshold II (energy diff.) ....   1.000e-08
   Grad. Scal. Fac. for Micro threshold ....   0.100
   Minimum threshold for Micro iter.    ....   0.010
   NR start threshold (gradient norm)   ....   0.001
   Initial trust radius                 ....   0.400
   Minimum AH scaling param. (alpha)    ....   1.000
   Maximum AH scaling param. (alpha)    .... 1000.000
   Orbital update algorithm             .... Taylor
   White noise on init. David. guess    .... on
   Maximum white noise                  ....   0.010
   Quad. conv. algorithm                .... NR
 SOSCF                  CNVSOSCF        .... on
   Start iteration      SOSCFMaxIt      ....   150
   Startup grad/error   SOSCFStart      ....  0.003300
 Level Shifting         CNVShift        .... on
   Level shift para.    LevelShift      ....    0.2500
   Turn off err/grad.   ShiftErr        ....    0.0010
 Zerner damping         CNVZerner       .... off
 Static damping         CNVDamp         .... on
   Fraction old density DampFac         ....    0.7000
   Max. Damping (<1)    DampMax         ....    0.9800
   Min. Damping (>=0)   DampMin         ....    0.0000
   Turn off err/grad.   DampErr         ....    0.1000
 Fernandez-Rico         CNVRico         .... off

SCF Procedure:
 Maximum # iterations   MaxIter         ....   125
 SCF integral mode      SCFMode         .... Direct
   Integral package                     .... SHARK and LIBINT hybrid scheme
 Reset frequency        DirectResetFreq ....    20
 Integral Threshold     Thresh          ....  2.500e-11 Eh
 Primitive CutOff       TCut            ....  2.500e-12 Eh

Convergence Tolerance:
 Convergence Check Mode ConvCheckMode   .... Total+1el-Energy
 Convergence forced     ConvForced      .... 1
 Energy Change          TolE            ....  1.000e-08 Eh
 1-El. energy change                    ....  1.000e-05 Eh
 Orbital Gradient       TolG            ....  1.000e-05
 Orbital Rotation angle TolX            ....  1.000e-05
 DIIS Error             TolErr          ....  5.000e-07


Diagonalization of the overlap matrix:
Smallest eigenvalue                        ... 3.137e-06
Time for diagonalization                   ...    0.325 sec
Threshold for overlap eigenvalues          ... 1.000e-08
Number of eigenvalues below threshold      ... 0
Time for construction of square roots      ...    0.234 sec
Total time needed                          ...    0.565 sec

Time for model grid setup =    0.512 sec

------------------------------
INITIAL GUESS: MODEL POTENTIAL
------------------------------
Loading Hartree-Fock densities                     ... done
Calculating cut-offs                               ... done
Initializing the effective Hamiltonian             ... done
Setting up the integral package (SHARK)            ... done
Starting the Coulomb interaction                   ... done (   1.3 sec)
Reading the grid                                   ... done
Mapping shells                                     ... done
Starting the XC term evaluation                    ... done (   0.8 sec)
  promolecular density results
     # of electrons  =    280.005877614
     EX              =   -291.471119603
     EC              =     -3.638481724
     EX+EC           =   -295.109601327
Transforming the Hamiltonian                       ... done (   0.2 sec)
Diagonalizing the Hamiltonian                      ... done (   0.3 sec)
Back transforming the eigenvectors                 ... done (   0.1 sec)
Now organizing SCF variables                       ... done
                      ------------------
                      INITIAL GUESS DONE (   3.1 sec)
                      ------------------
-------------------
DFT GRID GENERATION
-------------------

General Integration Accuracy     IntAcc      ... 4.388
Radial Grid Type                 RadialGrid  ... OptM3 with GC (2021)
Angular Grid (max. ang.)         AngularGrid ... 4 (Lebedev-302)
Angular grid pruning method      GridPruning ... 4 (adaptive)
Weight generation scheme         WeightScheme... Becke
Basis function cutoff            BFCut       ... 1.0000e-11
Integration weight cutoff        WCut        ... 1.0000e-14
Angular grids for H and He will be reduced by one unit
Partially contracted basis set               ... off
Rotationally invariant grid construction     ... off

Total number of grid points                  ...   251010
Total number of batches                      ...     3942
Average number of points per batch           ...       63
Average number of grid points per atom       ...     5457
Time for grid setup =    2.020 sec

--------------------
COSX GRID GENERATION
--------------------

GRIDX 1
-------
General Integration Accuracy     IntAcc      ... 3.816
Radial Grid Type                 RadialGrid  ... OptM3 with GC (2021)
Angular Grid (max. ang.)         AngularGrid ... 1 (Lebedev-50)
Angular grid pruning method      GridPruning ... 4 (adaptive)
Weight generation scheme         WeightScheme... Becke
Basis function cutoff            BFCut       ... 1.0000e-11
Integration weight cutoff        WCut        ... 1.0000e-14
Angular grids for H and He will be reduced by one unit
Partially contracted basis set               ... on
Rotationally invariant grid construction     ... off

Total number of grid points                  ...    31430
Total number of batches                      ...      512
Average number of points per batch           ...       61
Average number of grid points per atom       ...      683
UseSFitting                                  ... on

GRIDX 2
-------
General Integration Accuracy     IntAcc      ... 4.020
Radial Grid Type                 RadialGrid  ... OptM3 with GC (2021)
Angular Grid (max. ang.)         AngularGrid ... 2 (Lebedev-110)
Angular grid pruning method      GridPruning ... 4 (adaptive)
Weight generation scheme         WeightScheme... Becke
Basis function cutoff            BFCut       ... 1.0000e-11
Integration weight cutoff        WCut        ... 1.0000e-14
Angular grids for H and He will be reduced by one unit
Partially contracted basis set               ... on
Rotationally invariant grid construction     ... off

Total number of grid points                  ...    70726
Total number of batches                      ...     1128
Average number of points per batch           ...       62
Average number of grid points per atom       ...     1538
UseSFitting                                  ... on

GRIDX 3
-------
General Integration Accuracy     IntAcc      ... 4.338
Radial Grid Type                 RadialGrid  ... OptM3 with GC (2021)
Angular Grid (max. ang.)         AngularGrid ... 3 (Lebedev-194)
Angular grid pruning method      GridPruning ... 4 (adaptive)
Weight generation scheme         WeightScheme... Becke
Basis function cutoff            BFCut       ... 1.0000e-11
Integration weight cutoff        WCut        ... 1.0000e-14
Angular grids for H and He will be reduced by one unit
Partially contracted basis set               ... on
Rotationally invariant grid construction     ... off

Total number of grid points                  ...   157466
Total number of batches                      ...     2484
Average number of points per batch           ...       63
Average number of grid points per atom       ...     3423
UseSFitting                                  ... on

Time for X-Grid setup             =    5.206 sec


--------------------
CPCM SOLVATION MODEL
--------------------
CPCM parameters:
  Epsilon                                         ...       8.9300
  Refrac                                          ...       1.4242
  Rsolv                                           ...       1.3000
  Surface type                                    ... GAUSSIAN VDW
  Epsilon function type                           ...         CPCM
Solvent:                                     ... DICHLOROMETHANE
SMD-CDS solvent descriptors:
  Soln                                       ...    1.4242
  Soln25                                     ...    1.4212
  Sola                                       ...    0.1000
  Solb                                       ...    0.0500
  Solg                                       ...   39.1500
  Solc                                       ...    0.0000
  Solh                                       ...    0.6670
Radii:
 Radius for C  used is    3.4960 Bohr (=   1.8500 Ang.)
 Radius for H  used is    2.2677 Bohr (=   1.2000 Ang.)
 Radius for O  used is    3.9949 Bohr (=   2.1140 Ang.)
 Radius for N  used is    3.5716 Bohr (=   1.8900 Ang.)
 Radius for Cl used is    4.4975 Bohr (=   2.3800 Ang.)
Calculating surface                               ...        done! (  0.0s)
GEPOL surface points                              ...         2218
GEPOL Volume                                      ...    3773.7853
GEPOL Surface-area                                ...    1765.6570
Calculating surface distance matrix               ...        done! (  0.0s)
Performing Cholesky decomposition & store         ...        done! (  0.2s)
Overall time for CPCM initialization              ...                 0.2s
--------------
SCF ITERATIONS
--------------
ITER       Energy         Delta-E        Max-DP      RMS-DP      [F,P]     Damp
               ***  Starting incremental Fock matrix formation  ***
  0  -3242.8993955403   0.000000000000 0.06764053  0.00081540  0.2685825 0.7000
  1  -3243.1891700290  -0.289774488695 0.06523599  0.00068327  0.1440463 0.7000
                               ***Turning on DIIS***
  2  -3243.3447326850  -0.155562655976 0.09590576  0.00138431  0.0666702 0.0000
  3  -3243.6328294797  -0.288096794704 0.08323690  0.00061950  0.0588617 0.0000
  4  -3243.6616495619  -0.028820082234 0.02496821  0.00023049  0.0108113 0.0000
  5  -3243.6638707863  -0.002221224359 0.01508947  0.00012202  0.0053180 0.0000
                      *** Initiating the SOSCF procedure ***
                           *** Shutting down DIIS ***
                      *** Re-Reading the Fockian *** 
                      *** Removing any level shift *** 
ITER      Energy       Delta-E        Grad      Rot      Max-DP    RMS-DP
  6  -3243.66451489  -0.0006441064  0.002419  0.002419  0.006376  0.000061
               *** Restarting incremental Fock matrix formation ***
  7  -3243.66477333  -0.0002584379  0.001493  0.005869  0.022498  0.000218
  8  -3243.66487302  -0.0000996921  0.000626  0.005067  0.007602  0.000083
  9  -3243.66489247  -0.0000194480  0.000253  0.000797  0.007335  0.000070
 10  -3243.66490009  -0.0000076178  0.000105  0.000535  0.000414  0.000005
 11  -3243.66490056  -0.0000004720  0.000026  0.000070  0.000417  0.000005
 12  -3243.66490067  -0.0000001058  0.000012  0.000067  0.000556  0.000004
 13  -3243.66490068  -0.0000000118  0.000006  0.000023  0.000199  0.000002
 14  -3243.66490061   0.0000000678  0.000003  0.000021  0.000186  0.000002
                  ***Gradient check signals convergence***
              ***Rediagonalizing the Fockian in SOSCF/NRSCF***

               *****************************************************
               *                     SUCCESS                       *
               *           SCF CONVERGED AFTER  15 CYCLES          *
               *****************************************************

Old exchange energy                            =   -203.757443064 Eh
New exchange energy                            =   -203.757395485 Eh
Exchange energy change after final integration =      0.000047580 Eh
Total energy after final integration           =  -3243.664853052 Eh
Final COS-X integration done in                =    83.841 sec

SMD CDS free energy correction energy :               -11.10051     Kcal/mol
Total Energy after SMD CDS correction =             -3243.682542840 Eh

----------------
TOTAL SCF ENERGY
----------------

Total Energy       :        -3243.68254284 Eh          -88265.08930 eV

Components:
Nuclear Repulsion  :         4554.39320997 Eh          123931.33979 eV
Electronic Energy  :        -7798.07575281 Eh         -212196.42909 eV
One Electron Energy:       -13519.58655922 Eh         -367886.65327 eV
Two Electron Energy:         5721.51080642 Eh          155690.22418 eV
Max COSX asymmetry :            0.00001127 Eh               0.00031 eV
CPCM Dielectric    :           -0.02400158 Eh              -0.65312 eV
SMD CDS (Gcds)     :           -0.01768979 Eh              -0.48136 eV

Virial components:
Potential Energy   :        -6480.31939821 Eh         -176338.45570 eV
Kinetic Energy     :         3236.63685537 Eh           88073.36640 eV
Virial Ratio       :            2.00217685


DFT components:
N(Alpha)           :      139.999891511802 electrons
N(Beta)            :      139.999891511802 electrons
N(Total)           :      279.999783023604 electrons
E(X)               :      -91.171482357564 Eh       
E(C)               :       -6.682868039442 Eh       
E(XC)              :      -97.854350397006 Eh       
DFET-embed. en.    :        0.000000000000 Eh       
CPCM Solvation Model Properties:
Surface-charge          :           -0.02473116
Charge-correction       :            0.00019866 Eh               0.00541 eV
Free-energy (cav+disp)  :           -0.01768979 Eh              -0.48136 eV

---------------
SCF CONVERGENCE
---------------

  Last Energy change         ...   -2.1754e-08  Tolerance :   1.0000e-08
  Last MAX-Density change    ...    2.5813e-15  Tolerance :   1.0000e-07
  Last RMS-Density change    ...    1.4853e-17  Tolerance :   5.0000e-09
  Last Orbital Gradient      ...    6.1893e-07  Tolerance :   1.0000e-05
  Last Orbital Rotation      ...    1.9665e-06  Tolerance :   1.0000e-05

             **** THE GBW FILE WAS UPDATED (PDI_2_M06L_def2TZVP_coords.gbw) ****
             **** DENSITY PDI_2_M06L_def2TZVP_coords.scfp WAS UPDATED ****
             **** ENERGY FILE WAS UPDATED (PDI_2_M06L_def2TZVP_coords.en.tmp) ****
             **** THE GBW FILE WAS UPDATED (PDI_2_M06L_def2TZVP_coords.gbw) ****
             **** DENSITY PDI_2_M06L_def2TZVP_coords.scfp WAS UPDATED ****
----------------
ORBITAL ENERGIES
----------------

  NO   OCC          E(Eh)            E(eV) 
   0   2.0000    -103.563021     -2818.0931 
   1   2.0000    -103.563021     -2818.0931 
   2   2.0000    -103.562989     -2818.0922 
   3   2.0000    -103.562989     -2818.0922 
   4   2.0000     -19.998205      -544.1788 
   5   2.0000     -19.998205      -544.1788 
   6   2.0000     -19.998200      -544.1787 
   7   2.0000     -19.998200      -544.1787 
   8   2.0000     -15.145888      -412.1406 
   9   2.0000     -15.145887      -412.1405 
  10   2.0000     -10.964515      -298.3596 
  11   2.0000     -10.964514      -298.3596 
  12   2.0000     -10.962159      -298.2955 
  13   2.0000     -10.962159      -298.2955 
  14   2.0000     -10.919834      -297.1438 
  15   2.0000     -10.919833      -297.1438 
  16   2.0000     -10.919754      -297.1416 
  17   2.0000     -10.919753      -297.1416 
  18   2.0000     -10.887677      -296.2688 
  19   2.0000     -10.887664      -296.2684 
  20   2.0000     -10.887001      -296.2504 
  21   2.0000     -10.886963      -296.2493 
  22   2.0000     -10.877904      -296.0028 
  23   2.0000     -10.877900      -296.0027 
  24   2.0000     -10.871508      -295.8288 
  25   2.0000     -10.871507      -295.8287 
  26   2.0000     -10.864749      -295.6449 
  27   2.0000     -10.864748      -295.6448 
  28   2.0000     -10.864487      -295.6377 
  29   2.0000     -10.864486      -295.6377 
  30   2.0000     -10.862427      -295.5817 
  31   2.0000     -10.862426      -295.5817 
  32   2.0000     -10.862376      -295.5803 
  33   2.0000     -10.862375      -295.5803 
  34   2.0000     -10.840650      -294.9891 
  35   2.0000     -10.840650      -294.9891 
  36   2.0000     -10.167095      -276.6607 
  37   2.0000     -10.167095      -276.6607 
  38   2.0000     -10.167063      -276.6598 
  39   2.0000     -10.167062      -276.6598 
  40   2.0000      -7.744022      -210.7255 
  41   2.0000      -7.744022      -210.7255 
  42   2.0000      -7.743991      -210.7247 
  43   2.0000      -7.743991      -210.7247 
  44   2.0000      -7.739497      -210.6024 
  45   2.0000      -7.739497      -210.6024 
  46   2.0000      -7.739465      -210.6015 
  47   2.0000      -7.739464      -210.6015 
  48   2.0000      -7.739341      -210.5982 
  49   2.0000      -7.739341      -210.5982 
  50   2.0000      -7.739308      -210.5973 
  51   2.0000      -7.739308      -210.5973 
  52   2.0000      -1.305747       -35.5312 
  53   2.0000      -1.305744       -35.5311 
  54   2.0000      -1.285336       -34.9758 
  55   2.0000      -1.285335       -34.9758 
  56   2.0000      -1.164237       -31.6805 
  57   2.0000      -1.161455       -31.6048 
  58   2.0000      -1.153984       -31.4015 
  59   2.0000      -1.123962       -30.5846 
  60   2.0000      -1.118964       -30.4486 
  61   2.0000      -1.095504       -29.8102 
  62   2.0000      -1.073371       -29.2079 
  63   2.0000      -1.062021       -28.8991 
  64   2.0000      -1.051821       -28.6215 
  65   2.0000      -1.018887       -27.7253 
  66   2.0000      -1.012894       -27.5623 
  67   2.0000      -0.983616       -26.7656 
  68   2.0000      -0.978333       -26.6218 
  69   2.0000      -0.935301       -25.4508 
  70   2.0000      -0.931420       -25.3452 
  71   2.0000      -0.912037       -24.8178 
  72   2.0000      -0.904459       -24.6116 
  73   2.0000      -0.883042       -24.0288 
  74   2.0000      -0.869523       -23.6609 
  75   2.0000      -0.838625       -22.8201 
  76   2.0000      -0.824931       -22.4475 
  77   2.0000      -0.812713       -22.1151 
  78   2.0000      -0.796255       -21.6672 
  79   2.0000      -0.783792       -21.3281 
  80   2.0000      -0.774448       -21.0738 
  81   2.0000      -0.767130       -20.8747 
  82   2.0000      -0.717869       -19.5342 
  83   2.0000      -0.697617       -18.9831 
  84   2.0000      -0.693000       -18.8575 
  85   2.0000      -0.683726       -18.6051 
  86   2.0000      -0.681577       -18.5466 
  87   2.0000      -0.664038       -18.0694 
  88   2.0000      -0.643275       -17.5044 
  89   2.0000      -0.627427       -17.0732 
  90   2.0000      -0.622344       -16.9348 
  91   2.0000      -0.614560       -16.7230 
  92   2.0000      -0.612543       -16.6681 
  93   2.0000      -0.609831       -16.5943 
  94   2.0000      -0.604434       -16.4475 
  95   2.0000      -0.598269       -16.2797 
  96   2.0000      -0.598031       -16.2732 
  97   2.0000      -0.590000       -16.0547 
  98   2.0000      -0.586355       -15.9555 
  99   2.0000      -0.585383       -15.9291 
 100   2.0000      -0.573017       -15.5926 
 101   2.0000      -0.569169       -15.4879 
 102   2.0000      -0.555931       -15.1276 
 103   2.0000      -0.545687       -14.8489 
 104   2.0000      -0.542754       -14.7691 
 105   2.0000      -0.542373       -14.7587 
 106   2.0000      -0.540790       -14.7156 
 107   2.0000      -0.531525       -14.4635 
 108   2.0000      -0.527015       -14.3408 
 109   2.0000      -0.526995       -14.3403 
 110   2.0000      -0.521395       -14.1879 
 111   2.0000      -0.510358       -13.8876 
 112   2.0000      -0.508154       -13.8276 
 113   2.0000      -0.505724       -13.7614 
 114   2.0000      -0.503131       -13.6909 
 115   2.0000      -0.500801       -13.6275 
 116   2.0000      -0.500431       -13.6174 
 117   2.0000      -0.491334       -13.3699 
 118   2.0000      -0.486554       -13.2398 
 119   2.0000      -0.472349       -12.8533 
 120   2.0000      -0.470862       -12.8128 
 121   2.0000      -0.455782       -12.4025 
 122   2.0000      -0.435801       -11.8588 
 123   2.0000      -0.431025       -11.7288 
 124   2.0000      -0.425868       -11.5885 
 125   2.0000      -0.421900       -11.4805 
 126   2.0000      -0.415062       -11.2944 
 127   2.0000      -0.414121       -11.2688 
 128   2.0000      -0.413866       -11.2619 
 129   2.0000      -0.407219       -11.0810 
 130   2.0000      -0.396931       -10.8010 
 131   2.0000      -0.396582       -10.7915 
 132   2.0000      -0.396338       -10.7849 
 133   2.0000      -0.376234       -10.2379 
 134   2.0000      -0.373933       -10.1752 
 135   2.0000      -0.350182        -9.5289 
 136   2.0000      -0.345731        -9.4078 
 137   2.0000      -0.328495        -8.9388 
 138   2.0000      -0.321513        -8.7488 
 139   2.0000      -0.275516        -7.4972 
 140   0.0000      -0.084962        -2.3119 
 141   0.0000      -0.020123        -0.5476 
 142   0.0000      -0.005196        -0.1414 
 143   0.0000       0.019511         0.5309 
 144   0.0000       0.020963         0.5704 
 145   0.0000       0.058449         1.5905 
 146   0.0000       0.058593         1.5944 
 147   0.0000       0.079822         2.1721 
 148   0.0000       0.103838         2.8256 
 149   0.0000       0.111090         3.0229 
 150   0.0000       0.113639         3.0923 
 151   0.0000       0.113781         3.0961 
 152   0.0000       0.119902         3.2627 
 153   0.0000       0.120989         3.2923 
 154   0.0000       0.133066         3.6209 
 155   0.0000       0.142503         3.8777 
 156   0.0000       0.143127         3.8947 
 157   0.0000       0.148687         4.0460 
 158   0.0000       0.153676         4.1817 
 159   0.0000       0.157589         4.2882 
 160   0.0000       0.158215         4.3053 
 161   0.0000       0.164142         4.4665 
 162   0.0000       0.165506         4.5036 
 163   0.0000       0.179018         4.8713 
 164   0.0000       0.180378         4.9083 
 165   0.0000       0.182943         4.9781 
 166   0.0000       0.185933         5.0595 
 167   0.0000       0.186872         5.0851 
 168   0.0000       0.193957         5.2778 
 169   0.0000       0.198144         5.3918 
 170   0.0000       0.201311         5.4780 
 171   0.0000       0.213826         5.8185 
 172   0.0000       0.214961         5.8494 
 173   0.0000       0.215321         5.8592 
 174   0.0000       0.222796         6.0626 
 175   0.0000       0.229461         6.2440 
 176   0.0000       0.230877         6.2825 
 177   0.0000       0.233822         6.3626 
 178   0.0000       0.235950         6.4205 
 179   0.0000       0.247203         6.7267 
 180   0.0000       0.251733         6.8500 
 181   0.0000       0.255463         6.9515 
 182   0.0000       0.257714         7.0127 
 183   0.0000       0.265688         7.2297 
 184   0.0000       0.267823         7.2878 
 185   0.0000       0.274699         7.4749 
 186   0.0000       0.275842         7.5060 
 187   0.0000       0.279405         7.6030 
 188   0.0000       0.283057         7.7024 
 189   0.0000       0.285632         7.7724 
 190   0.0000       0.289895         7.8884 
 191   0.0000       0.290470         7.9041 
 192   0.0000       0.293229         7.9792 
 193   0.0000       0.297826         8.1043 
 194   0.0000       0.298235         8.1154 
 195   0.0000       0.303283         8.2528 
 196   0.0000       0.308516         8.3952 
 197   0.0000       0.312076         8.4920 
 198   0.0000       0.313890         8.5414 
 199   0.0000       0.317792         8.6476 
 200   0.0000       0.319065         8.6822 
 201   0.0000       0.323815         8.8115 
 202   0.0000       0.324172         8.8212 
 203   0.0000       0.328668         8.9435 
 204   0.0000       0.331143         9.0109 
 205   0.0000       0.333499         9.0750 
 206   0.0000       0.336356         9.1527 
 207   0.0000       0.340078         9.2540 
 208   0.0000       0.340936         9.2773 
 209   0.0000       0.351071         9.5531 
 210   0.0000       0.352229         9.5846 
 211   0.0000       0.352295         9.5864 
 212   0.0000       0.356841         9.7101 
 213   0.0000       0.357167         9.7190 
 214   0.0000       0.359248         9.7756 
 215   0.0000       0.366342         9.9687 
 216   0.0000       0.370616        10.0850 
 217   0.0000       0.373618        10.1667 
 218   0.0000       0.375029        10.2050 
 219   0.0000       0.375655        10.2221 
 220   0.0000       0.386115        10.5067 
 221   0.0000       0.387282        10.5385 
 222   0.0000       0.388992        10.5850 
 223   0.0000       0.391627        10.6567 
 224   0.0000       0.393587        10.7101 
 225   0.0000       0.394972        10.7477 
 226   0.0000       0.399276        10.8648 
 227   0.0000       0.406854        11.0711 
 228   0.0000       0.411533        11.1984 
 229   0.0000       0.413786        11.2597 
 230   0.0000       0.416765        11.3407 
 231   0.0000       0.421167        11.4605 
 232   0.0000       0.425629        11.5820 
 233   0.0000       0.426921        11.6171 
 234   0.0000       0.434786        11.8311 
 235   0.0000       0.439092        11.9483 
 236   0.0000       0.439478        11.9588 
 237   0.0000       0.441978        12.0268 
 238   0.0000       0.446949        12.1621 
 239   0.0000       0.447364        12.1734 
 240   0.0000       0.450717        12.2646 
 241   0.0000       0.451428        12.2840 
 242   0.0000       0.459663        12.5081 
 243   0.0000       0.460905        12.5419 
 244   0.0000       0.464736        12.6461 
 245   0.0000       0.469215        12.7680 
 246   0.0000       0.469562        12.7774 
 247   0.0000       0.470132        12.7929 
 248   0.0000       0.473771        12.8920 
 249   0.0000       0.479411        13.0454 
 250   0.0000       0.479655        13.0521 
 251   0.0000       0.480888        13.0856 
 252   0.0000       0.485881        13.2215 
 253   0.0000       0.486447        13.2369 
 254   0.0000       0.491737        13.3808 
 255   0.0000       0.496471        13.5097 
 256   0.0000       0.497349        13.5335 
 257   0.0000       0.499882        13.6025 
 258   0.0000       0.508666        13.8415 
 259   0.0000       0.509070        13.8525 
 260   0.0000       0.516586        14.0570 
 261   0.0000       0.519203        14.1282 
 262   0.0000       0.522555        14.2194 
 263   0.0000       0.528248        14.3743 
 264   0.0000       0.532626        14.4935 
 265   0.0000       0.536368        14.5953 
 266   0.0000       0.542637        14.7659 
 267   0.0000       0.544087        14.8054 
 268   0.0000       0.544677        14.8214 
 269   0.0000       0.555956        15.1283 
 270   0.0000       0.561481        15.2787 
 271   0.0000       0.566289        15.4095 
 272   0.0000       0.567569        15.4444 
 273   0.0000       0.570696        15.5294 
 274   0.0000       0.572097        15.5675 
 275   0.0000       0.579940        15.7810 
 276   0.0000       0.583601        15.8806 
 277   0.0000       0.585852        15.9418 
 278   0.0000       0.587879        15.9970 
 279   0.0000       0.589002        16.0276 
 280   0.0000       0.596619        16.2348 
 281   0.0000       0.600003        16.3269 
 282   0.0000       0.608082        16.5467 
 283   0.0000       0.610950        16.6248 
 284   0.0000       0.612778        16.6745 
 285   0.0000       0.617670        16.8077 
 286   0.0000       0.621820        16.9206 
 287   0.0000       0.622799        16.9472 
 288   0.0000       0.629625        17.1330 
 289   0.0000       0.630737        17.1632 
 290   0.0000       0.634904        17.2766 
 291   0.0000       0.636636        17.3237 
 292   0.0000       0.639626        17.4051 
 293   0.0000       0.641142        17.4464 
 294   0.0000       0.644587        17.5401 
 295   0.0000       0.649651        17.6779 
 296   0.0000       0.655174        17.8282 
 297   0.0000       0.656436        17.8625 
 298   0.0000       0.659680        17.9508 
 299   0.0000       0.660184        17.9645 
 300   0.0000       0.674506        18.3542 
 301   0.0000       0.674861        18.3639 
 302   0.0000       0.681521        18.5451 
 303   0.0000       0.682496        18.5716 
 304   0.0000       0.685633        18.6570 
 305   0.0000       0.689486        18.7619 
 306   0.0000       0.693492        18.8709 
 307   0.0000       0.695290        18.9198 
 308   0.0000       0.696638        18.9565 
 309   0.0000       0.698176        18.9983 
 310   0.0000       0.705573        19.1996 
 311   0.0000       0.706529        19.2256 
 312   0.0000       0.710225        19.3262 
 313   0.0000       0.712733        19.3945 
 314   0.0000       0.719900        19.5895 
 315   0.0000       0.721556        19.6345 
 316   0.0000       0.723069        19.6757 
 317   0.0000       0.727150        19.7868 
 318   0.0000       0.731973        19.9180 
 319   0.0000       0.737208        20.0604 
 320   0.0000       0.739354        20.1188 
 321   0.0000       0.742080        20.1930 
 322   0.0000       0.743028        20.2188 
 323   0.0000       0.745520        20.2866 
 324   0.0000       0.747986        20.3537 
 325   0.0000       0.748391        20.3647 
 326   0.0000       0.759995        20.6805 
 327   0.0000       0.760638        20.6980 
 328   0.0000       0.769356        20.9353 
 329   0.0000       0.770413        20.9640 
 330   0.0000       0.771700        20.9990 
 331   0.0000       0.778657        21.1883 
 332   0.0000       0.778824        21.1929 
 333   0.0000       0.790960        21.5231 
 334   0.0000       0.791364        21.5341 
 335   0.0000       0.800342        21.7784 
 336   0.0000       0.803001        21.8508 
 337   0.0000       0.805975        21.9317 
 338   0.0000       0.809327        22.0229 
 339   0.0000       0.810156        22.0455 
 340   0.0000       0.818592        22.2750 
 341   0.0000       0.819268        22.2934 
 342   0.0000       0.825211        22.4551 
 343   0.0000       0.832845        22.6629 
 344   0.0000       0.833692        22.6859 
 345   0.0000       0.834075        22.6963 
 346   0.0000       0.839342        22.8397 
 347   0.0000       0.840703        22.8767 
 348   0.0000       0.847690        23.0668 
 349   0.0000       0.852001        23.1841 
 350   0.0000       0.854070        23.2404 
 351   0.0000       0.861192        23.4342 
 352   0.0000       0.863211        23.4892 
 353   0.0000       0.865241        23.5444 
 354   0.0000       0.868645        23.6370 
 355   0.0000       0.870464        23.6865 
 356   0.0000       0.876558        23.8524 
 357   0.0000       0.881981        23.9999 
 358   0.0000       0.883854        24.0509 
 359   0.0000       0.890605        24.2346 
 360   0.0000       0.894872        24.3507 
 361   0.0000       0.896615        24.3981 
 362   0.0000       0.902529        24.5591 
 363   0.0000       0.906707        24.6728 
 364   0.0000       0.914687        24.8899 
 365   0.0000       0.915445        24.9105 
 366   0.0000       0.925686        25.1892 
 367   0.0000       0.931871        25.3575 
 368   0.0000       0.937737        25.5171 
 369   0.0000       0.938833        25.5470 
 370   0.0000       0.939264        25.5587 
 371   0.0000       0.945925        25.7399 
 372   0.0000       0.950426        25.8624 
 373   0.0000       0.950979        25.8775 
 374   0.0000       0.954675        25.9780 
 375   0.0000       0.955907        26.0116 
 376   0.0000       0.960766        26.1438 
 377   0.0000       0.961885        26.1742 
 378   0.0000       0.963162        26.2090 
 379   0.0000       0.970552        26.4101 
 380   0.0000       0.980603        26.6836 
 381   0.0000       0.981858        26.7177 
 382   0.0000       0.985088        26.8056 
 383   0.0000       0.988789        26.9063 
 384   0.0000       0.994741        27.0683 
 385   0.0000       0.999814        27.2063 
 386   0.0000       1.000990        27.2383 
 387   0.0000       1.008287        27.4369 
 388   0.0000       1.015293        27.6275 
 389   0.0000       1.016418        27.6581 
 390   0.0000       1.020952        27.7815 
 391   0.0000       1.023589        27.8533 
 392   0.0000       1.030494        28.0412 
 393   0.0000       1.032869        28.1058 
 394   0.0000       1.034380        28.1469 
 395   0.0000       1.047102        28.4931 
 396   0.0000       1.052461        28.6389 
 397   0.0000       1.054769        28.7017 
 398   0.0000       1.061232        28.8776 
 399   0.0000       1.073554        29.2129 
 400   0.0000       1.078205        29.3394 
 401   0.0000       1.078536        29.3485 
 402   0.0000       1.083442        29.4820 
 403   0.0000       1.085854        29.5476 
 404   0.0000       1.088281        29.6136 
 405   0.0000       1.094193        29.7745 
 406   0.0000       1.096884        29.8477 
 407   0.0000       1.103279        30.0218 
 408   0.0000       1.111091        30.2343 
 409   0.0000       1.117370        30.4052 
 410   0.0000       1.119091        30.4520 
 411   0.0000       1.122824        30.5536 
 412   0.0000       1.131259        30.7831 
 413   0.0000       1.146055        31.1857 
 414   0.0000       1.147820        31.2338 
 415   0.0000       1.157159        31.4879 
 416   0.0000       1.160437        31.5771 
 417   0.0000       1.167436        31.7675 
 418   0.0000       1.171479        31.8776 
 419   0.0000       1.176813        32.0227 
 420   0.0000       1.177497        32.0413 
 421   0.0000       1.190732        32.4015 
 422   0.0000       1.198204        32.6048 
 423   0.0000       1.205935        32.8152 
 424   0.0000       1.209802        32.9204 
 425   0.0000       1.222567        33.2677 
 426   0.0000       1.223176        33.2843 
 427   0.0000       1.229266        33.4500 
 428   0.0000       1.231709        33.5165 
 429   0.0000       1.235372        33.6162 
 430   0.0000       1.242594        33.8127 
 431   0.0000       1.256893        34.2018 
 432   0.0000       1.263513        34.3819 
 433   0.0000       1.265653        34.4402 
 434   0.0000       1.278654        34.7939 
 435   0.0000       1.284799        34.9612 
 436   0.0000       1.295043        35.2399 
 437   0.0000       1.296611        35.2826 
 438   0.0000       1.300761        35.3955 
 439   0.0000       1.305336        35.5200 
 440   0.0000       1.310149        35.6510 
 441   0.0000       1.313650        35.7462 
 442   0.0000       1.328501        36.1503 
 443   0.0000       1.350691        36.7542 
 444   0.0000       1.353231        36.8233 
 445   0.0000       1.357094        36.9284 
 446   0.0000       1.364412        37.1275 
 447   0.0000       1.368879        37.2491 
 448   0.0000       1.369278        37.2599 
 449   0.0000       1.375630        37.4328 
 450   0.0000       1.380623        37.5687 
 451   0.0000       1.383200        37.6388 
 452   0.0000       1.394482        37.9458 
 453   0.0000       1.397183        38.0193 
 454   0.0000       1.401090        38.1256 
 455   0.0000       1.402182        38.1553 
 456   0.0000       1.403227        38.1838 
 457   0.0000       1.413814        38.4718 
 458   0.0000       1.431841        38.9624 
 459   0.0000       1.433746        39.0142 
 460   0.0000       1.443903        39.2906 
 461   0.0000       1.444828        39.3158 
 462   0.0000       1.459531        39.7159 
 463   0.0000       1.463891        39.8345 
 464   0.0000       1.467010        39.9194 
 465   0.0000       1.483330        40.3635 
 466   0.0000       1.498164        40.7671 
 467   0.0000       1.498678        40.7811 
 468   0.0000       1.503455        40.9111 
 469   0.0000       1.504037        40.9269 
 470   0.0000       1.513830        41.1934 
 471   0.0000       1.521918        41.4135 
 472   0.0000       1.523891        41.4672 
 473   0.0000       1.525650        41.5150 
 474   0.0000       1.539959        41.9044 
 475   0.0000       1.548195        42.1285 
 476   0.0000       1.548468        42.1360 
 477   0.0000       1.554374        42.2967 
 478   0.0000       1.565121        42.5891 
 479   0.0000       1.566436        42.6249 
 480   0.0000       1.568896        42.6918 
 481   0.0000       1.572596        42.7925 
 482   0.0000       1.578992        42.9666 
 483   0.0000       1.580614        43.0107 
 484   0.0000       1.581702        43.0403 
 485   0.0000       1.587135        43.1881 
 486   0.0000       1.593557        43.3629 
 487   0.0000       1.601243        43.5720 
 488   0.0000       1.612829        43.8873 
 489   0.0000       1.616160        43.9780 
 490   0.0000       1.620417        44.0938 
 491   0.0000       1.631008        44.3820 
 492   0.0000       1.637099        44.5477 
 493   0.0000       1.651757        44.9466 
 494   0.0000       1.655090        45.0373 
 495   0.0000       1.655831        45.0575 
 496   0.0000       1.663347        45.2620 
 497   0.0000       1.663459        45.2650 
 498   0.0000       1.677832        45.6561 
 499   0.0000       1.679041        45.6890 
 500   0.0000       1.683162        45.8012 
 501   0.0000       1.688779        45.9540 
 502   0.0000       1.692152        46.0458 
 503   0.0000       1.692744        46.0619 
 504   0.0000       1.695122        46.1266 
 505   0.0000       1.699787        46.2536 
 506   0.0000       1.706099        46.4253 
 507   0.0000       1.707619        46.4667 
 508   0.0000       1.713343        46.6224 
 509   0.0000       1.721916        46.8557 
 510   0.0000       1.728932        47.0466 
 511   0.0000       1.732246        47.1368 
 512   0.0000       1.736656        47.2568 
 513   0.0000       1.739240        47.3271 
 514   0.0000       1.757040        47.8115 
 515   0.0000       1.758584        47.8535 
 516   0.0000       1.763439        47.9856 
 517   0.0000       1.771939        48.2169 
 518   0.0000       1.776124        48.3308 
 519   0.0000       1.782123        48.4940 
 520   0.0000       1.785214        48.5781 
 521   0.0000       1.799479        48.9663 
 522   0.0000       1.799896        48.9777 
 523   0.0000       1.804206        49.0949 
 524   0.0000       1.817451        49.4554 
 525   0.0000       1.822644        49.5967 
 526   0.0000       1.824269        49.6409 
 527   0.0000       1.829132        49.7732 
 528   0.0000       1.846098        50.2349 
 529   0.0000       1.857244        50.5382 
 530   0.0000       1.861567        50.6558 
 531   0.0000       1.863111        50.6978 
 532   0.0000       1.863659        50.7127 
 533   0.0000       1.867849        50.8268 
 534   0.0000       1.874011        50.9944 
 535   0.0000       1.878439        51.1149 
 536   0.0000       1.880267        51.1647 
 537   0.0000       1.888655        51.3929 
 538   0.0000       1.891666        51.4748 
 539   0.0000       1.893928        51.5364 
 540   0.0000       1.900507        51.7154 
 541   0.0000       1.905089        51.8401 
 542   0.0000       1.908349        51.9288 
 543   0.0000       1.921334        52.2822 
 544   0.0000       1.924833        52.3774 
 545   0.0000       1.929176        52.4956 
 546   0.0000       1.929705        52.5099 
 547   0.0000       1.935814        52.6762 
 548   0.0000       1.942853        52.8677 
 549   0.0000       1.953733        53.1638 
 550   0.0000       1.961182        53.3665 
 551   0.0000       1.961819        53.3838 
 552   0.0000       1.971538        53.6483 
 553   0.0000       1.973489        53.7014 
 554   0.0000       1.974713        53.7347 
 555   0.0000       1.984788        54.0088 
 556   0.0000       1.993951        54.2582 
 557   0.0000       1.995023        54.2873 
 558   0.0000       2.002903        54.5018 
 559   0.0000       2.007280        54.6209 
 560   0.0000       2.010890        54.7191 
 561   0.0000       2.025785        55.1244 
 562   0.0000       2.029659        55.2298 
 563   0.0000       2.032368        55.3036 
 564   0.0000       2.035000        55.3752 
 565   0.0000       2.039087        55.4864 
 566   0.0000       2.045533        55.6618 
 567   0.0000       2.052287        55.8456 
 568   0.0000       2.052966        55.8640 
 569   0.0000       2.054877        55.9160 
 570   0.0000       2.055960        55.9455 
 571   0.0000       2.066632        56.2359 
 572   0.0000       2.072948        56.4078 
 573   0.0000       2.074800        56.4582 
[...]
   129a -> 142a  :     0.015175 
   131a -> 140a  :     0.476342 
   131a -> 145a  :     0.011857 
   131a -> 146a  :     0.070616 
   132a -> 141a  :     0.202999 
   132a -> 147a  :     0.041878 

STATE 10:  E=   0.161220 au      4.387 eV    35383.6 cm**-1 <S**2> =   0.000000
   133a -> 140a  :     0.011644 
   136a -> 144a  :     0.058276 
   137a -> 140a  :     0.068132 
   138a -> 141a  :     0.014044 
   139a -> 142a  :     0.020742 
   139a -> 143a  :     0.786580 

STATE 11:  E=   0.160380 au      4.364 eV    35199.3 cm**-1 <S**2> =   0.000000
   125a -> 140a  :     0.019602 
   133a -> 141a  :     0.022954 
   134a -> 140a  :     0.113389 
   135a -> 141a  :     0.015104 
   136a -> 142a  :     0.017594 
   136a -> 143a  :     0.043609 
   137a -> 141a  :     0.033734 
   138a -> 140a  :     0.079315 
   139a -> 144a  :     0.604326 
   139a -> 145a  :     0.014501 

STATE 12:  E=   0.160636 au      4.371 eV    35255.6 cm**-1 <S**2> =   0.000000
   122a -> 140a  :     0.018962 
   124a -> 141a  :     0.010765 
   126a -> 141a  :     0.163762 
   126a -> 147a  :     0.028869 
   127a -> 140a  :     0.130608 
   127a -> 146a  :     0.013967 
   128a -> 140a  :     0.088625 
   128a -> 146a  :     0.014094 
   129a -> 140a  :     0.228140 
   129a -> 146a  :     0.016372 
   131a -> 142a  :     0.079405 
   131a -> 156a  :     0.024817 
   132a -> 145a  :     0.057108 
   132a -> 146a  :     0.010156 

STATE 13:  E=   0.161321 au      4.390 eV    35405.8 cm**-1 <S**2> =   0.000000
   122a -> 141a  :     0.019109 
   124a -> 140a  :     0.018926 
   126a -> 140a  :     0.392281 
   126a -> 146a  :     0.054707 
   127a -> 141a  :     0.060759 
   127a -> 147a  :     0.010420 
   128a -> 141a  :     0.041465 
   129a -> 141a  :     0.068694 
   130a -> 140a  :     0.027273 
   131a -> 145a  :     0.062200 
   131a -> 146a  :     0.011295 
   132a -> 142a  :     0.084510 
   132a -> 156a  :     0.025584 

STATE 14:  E=   0.160794 au      4.375 eV    35290.2 cm**-1 <S**2> =   0.000000
   125a -> 140a  :     0.028560 
   133a -> 141a  :     0.051604 
   134a -> 140a  :     0.502762 
   134a -> 146a  :     0.014570 
   135a -> 141a  :     0.112026 
   137a -> 141a  :     0.079440 
   138a -> 140a  :     0.038994 
   139a -> 144a  :     0.108463 
   139a -> 145a  :     0.014740 

STATE 15:  E=   0.166167 au      4.522 eV    36469.4 cm**-1 <S**2> =   0.000000
   130a -> 140a  :     0.115993 
   133a -> 140a  :     0.268053 
   134a -> 141a  :     0.048422 
   135a -> 144a  :     0.016154 
   137a -> 145a  :     0.018349 
   137a -> 146a  :     0.011266 
   138a -> 141a  :     0.039925 
   138a -> 142a  :     0.397491 

STATE 16:  E=   0.162811 au      4.430 eV    35732.9 cm**-1 <S**2> =   0.000000
   130a -> 140a  :     0.074493 
   133a -> 140a  :     0.415316 
   134a -> 141a  :     0.076528 
   135a -> 144a  :     0.010381 
   137a -> 140a  :     0.011384 
   137a -> 145a  :     0.020933 
   138a -> 141a  :     0.065133 
   138a -> 142a  :     0.253568 

STATE 17:  E=   0.179558 au      4.886 eV    39408.4 cm**-1 <S**2> =   0.000000
   127a -> 140a  :     0.050644 
   128a -> 140a  :     0.035581 
   129a -> 140a  :     0.115740 
   135a -> 142a  :     0.016996 
   135a -> 143a  :     0.014325 
   136a -> 141a  :     0.075938 
   137a -> 142a  :     0.462927 
   137a -> 143a  :     0.046695 
   138a -> 144a  :     0.062613 
   138a -> 145a  :     0.033000 

STATE 18:  E=   0.171814 au      4.675 eV    37708.8 cm**-1 <S**2> =   0.000000
   133a -> 140a  :     0.095470 
   134a -> 141a  :     0.017508 
   137a -> 140a  :     0.050713 
   138a -> 141a  :     0.742544 
   138a -> 147a  :     0.012389 
   139a -> 143a  :     0.048372 

STATE 19:  E=   0.192492 au      5.238 eV    42247.0 cm**-1 <S**2> =   0.000000
   125a -> 140a  :     0.136192 
   128a -> 140a  :     0.014184 
   133a -> 141a  :     0.036222 
   134a -> 140a  :     0.066508 
   135a -> 141a  :     0.180839 
   136a -> 142a  :     0.145550 
   137a -> 141a  :     0.167816 
   138a -> 146a  :     0.011465 
   139a -> 144a  :     0.052894 
   139a -> 145a  :     0.108899 
   139a -> 146a  :     0.016723 

STATE 20:  E=   0.193805 au      5.274 eV    42535.3 cm**-1 <S**2> =   0.000000
   135a -> 142a  :     0.031489 
   135a -> 143a  :     0.049191 
   136a -> 141a  :     0.276130 
   137a -> 142a  :     0.226208 
   137a -> 143a  :     0.129901 
   138a -> 144a  :     0.141496 
   138a -> 145a  :     0.032221 
   139a -> 140a  :     0.025197 
   139a -> 146a  :     0.013854 

STATE 21:  E=   0.181982 au      4.952 eV    39940.4 cm**-1 <S**2> =   0.000000
   125a -> 140a  :     0.010524 
   133a -> 141a  :     0.019355 
   134a -> 140a  :     0.096689 
   136a -> 142a  :     0.048775 
   137a -> 141a  :     0.532989 
   137a -> 147a  :     0.012326 
   138a -> 140a  :     0.017099 
   139a -> 144a  :     0.071452 
   139a -> 145a  :     0.117437 
   139a -> 146a  :     0.023610 

STATE 22:  E=   0.196403 au      5.344 eV    43105.5 cm**-1 <S**2> =   0.000000
   127a -> 140a  :     0.013638 
   129a -> 140a  :     0.074291 
   135a -> 142a  :     0.165293 
   135a -> 143a  :     0.020692 
   136a -> 141a  :     0.120104 
   137a -> 143a  :     0.122057 
   138a -> 144a  :     0.111733 
   139a -> 145a  :     0.041507 
   139a -> 146a  :     0.240243 

STATE 23:  E=   0.195051 au      5.308 eV    42808.8 cm**-1 <S**2> =   0.000000
   124a -> 140a  :     0.011959 
   130a -> 140a  :     0.298497 
   136a -> 140a  :     0.030610 
   137a -> 144a  :     0.206213 
   138a -> 142a  :     0.037579 
   138a -> 143a  :     0.312126 
   139a -> 147a  :     0.026487 

STATE 24:  E=   0.193592 au      5.268 eV    42488.4 cm**-1 <S**2> =   0.000000
   124a -> 140a  :     0.016035 
   130a -> 140a  :     0.376202 
   137a -> 144a  :     0.154687 
   137a -> 145a  :     0.012952 
   138a -> 142a  :     0.138399 
   138a -> 143a  :     0.188490 
   139a -> 141a  :     0.015020 

STATE 25:  E=   0.185147 au      5.038 eV    40635.1 cm**-1 <S**2> =   0.000000
   125a -> 140a  :     0.048690 
   127a -> 140a  :     0.054163 
   128a -> 140a  :     0.081021 
   133a -> 141a  :     0.022288 
   134a -> 140a  :     0.022036 
   135a -> 141a  :     0.262547 
   136a -> 142a  :     0.301477 
   137a -> 141a  :     0.029293 
   139a -> 144a  :     0.019293 
   139a -> 145a  :     0.087822 
   139a -> 146a  :     0.011234 

STATE 26:  E=   0.190040 au      5.171 eV    41709.0 cm**-1 <S**2> =   0.000000
   119a -> 140a  :     0.026075 
   124a -> 142a  :     0.017046 
   127a -> 140a  :     0.242528 
   128a -> 140a  :     0.362416 
   130a -> 142a  :     0.021833 
   132a -> 140a  :     0.028461 
   135a -> 141a  :     0.140194 
   136a -> 142a  :     0.064052 
   137a -> 141a  :     0.017540 

STATE 27:  E=   0.203969 au      5.550 eV    44766.1 cm**-1 <S**2> =   0.000000
   125a -> 145a  :     0.010916 
   129a -> 140a  :     0.017972 
   135a -> 142a  :     0.520274 
   136a -> 141a  :     0.108788 
   137a -> 143a  :     0.105890 
   138a -> 144a  :     0.157456 

STATE 28:  E=   0.194097 au      5.282 eV    42599.4 cm**-1 <S**2> =   0.000000
   119a -> 140a  :     0.016087 
   125a -> 140a  :     0.502215 
   127a -> 140a  :     0.024933 
   128a -> 140a  :     0.015005 
   129a -> 140a  :     0.016775 
   135a -> 141a  :     0.061635 
   136a -> 142a  :     0.035165 
   139a -> 145a  :     0.213919 

STATE 29:  E=   0.191587 au      5.213 eV    42048.4 cm**-1 <S**2> =   0.000000
   117a -> 140a  :     0.023482 
   122a -> 140a  :     0.104340 
   125a -> 140a  :     0.022465 
   128a -> 140a  :     0.016865 
   129a -> 140a  :     0.310869 
   135a -> 143a  :     0.030792 
   137a -> 142a  :     0.098828 
   137a -> 143a  :     0.018124 
   138a -> 144a  :     0.030038 
   139a -> 146a  :     0.178121 
   139a -> 148a  :     0.017825 

STATE 30:  E=   0.203613 au      5.541 eV    44687.9 cm**-1 <S**2> =   0.000000
   121a -> 142a  :     0.013309 
   124a -> 140a  :     0.690086 
   126a -> 140a  :     0.060269 
   127a -> 142a  :     0.014184 
   128a -> 142a  :     0.021141 
   129a -> 141a  :     0.015540 
   136a -> 146a  :     0.012290 
   138a -> 142a  :     0.024802 
   139a -> 147a  :     0.058059 


-------------------------
TD-DFT-EXCITATION SPECTRA
-------------------------

Center of mass = (  0.0000,  0.0000, -0.0004)
Calculating the Dipole integrals                  ... done
Transforming integrals                            ... done
Calculating the Linear Momentum integrals         ... done
Transforming integrals                            ... done
Calculating angular momentum integrals            ... done
Transforming integrals                            ... done

-----------------------------------------------------------------------------
         ABSORPTION SPECTRUM VIA TRANSITION ELECTRIC DIPOLE MOMENTS
-----------------------------------------------------------------------------
State   Energy    Wavelength  fosc         T2        TX        TY        TZ  
        (cm-1)      (nm)                 (au**2)    (au)      (au)      (au) 
-----------------------------------------------------------------------------
   1   19612.9    509.9   0.740350783  12.42717  -3.52522   0.00058  -0.00001
   2   24431.8    409.3   0.233237082   3.14281  -0.00130   1.77280   0.00017
   3   25236.0    396.3   0.027458251   0.35820  -0.00005  -0.00045   0.59850
   4   30096.7    332.3   0.021577918   0.23603  -0.00000  -0.00005   0.48583
   5   30501.5    327.9   0.000027326   0.00029   0.00002   0.00000   0.01717
   6   29024.3    344.5   0.000000820   0.00001   0.00003  -0.00001   0.00305
   7   30201.3    331.1   0.000292641   0.00319   0.00002  -0.00000  -0.05648
   8   31699.6    315.5   0.000084401   0.00088   0.00433  -0.02929   0.00011
   9   31708.5    315.4   0.000346148   0.00359   0.00002   0.00011   0.05995
  10   35383.6    282.6   0.069375808   0.64548   0.00003  -0.00004  -0.80342
  11   35199.3    284.1   0.312549296   2.92321   0.00707   1.70972  -0.00002
  12   35255.6    283.6   0.005210243   0.04865   0.21257  -0.05886   0.00003
  13   35405.8    282.4   0.000002551   0.00002   0.00004   0.00004   0.00487
  14   35290.2    283.4   0.483714416   4.51244   0.02866  -2.12406  -0.00000
  15   36469.4    274.2   0.014192035   0.12811   0.00001   0.00007  -0.35793
  16   35732.9    279.9   0.021833703   0.20116  -0.00011  -0.00005  -0.44851
  17   39408.4    253.8   0.017668737   0.14760   0.38028   0.05465  -0.00008
  18   37708.8    265.2   0.047652323   0.41602   0.00004  -0.00066  -0.64500
  19   42247.0    236.7   0.019878912   0.15491   0.00937   0.39347  -0.00082
  20   42535.3    235.1   0.045749463   0.35409  -0.59475   0.01888  -0.00004
  21   39940.4    250.4   0.553024630   4.55835  -0.04348   2.13459  -0.00004
  22   43105.5    232.0   0.192880742   1.47310  -1.20914  -0.10529  -0.00000
  23   42808.8    233.6   0.000009359   0.00007  -0.00001   0.00010   0.00848
  24   42488.4    235.4   0.000002605   0.00002  -0.00001   0.00005   0.00449
  25   40635.1    246.1   0.005564087   0.04508  -0.04475   0.20755  -0.00000
  26   41709.0    239.8   0.032524231   0.25672  -0.02118  -0.50623   0.00001
  27   44766.1    223.4   1.623083710  11.93624   3.45489   0.00131   0.00002
  28   42599.4    234.7   0.007654058   0.05915   0.24018   0.03829  -0.00001
  29   42048.4    237.8   0.131902730   1.03271   1.01611   0.01555  -0.00002
  30   44687.9    223.8   0.000005501   0.00004   0.00535   0.00005  -0.00345

-----------------------------------------------------------------------------
         ABSORPTION SPECTRUM VIA TRANSITION VELOCITY DIPOLE MOMENTS
-----------------------------------------------------------------------------
State   Energy    Wavelength   fosc        P2         PX        PY        PZ  
        (cm-1)      (nm)                 (au**2)     (au)      (au)      (au) 
-----------------------------------------------------------------------------
   1   19612.9    509.9   0.910758659   0.12208   0.34940  -0.00008  -0.00000
   2   24431.8    409.3   0.350602944   0.05854   0.00027  -0.24196  -0.00002
   3   25236.0    396.3   0.039591258   0.00683   0.00000   0.00006  -0.08263
   4   30096.7    332.3   0.025574664   0.00526   0.00000   0.00000  -0.07253
   5   30501.5    327.9   0.000033460   0.00001  -0.00000   0.00000  -0.00264
   6   29024.3    344.5   0.000001327   0.00000  -0.00001  -0.00000  -0.00051
   7   30201.3    331.1   0.000437902   0.00009  -0.00000  -0.00000   0.00951
   8   31699.6    315.5   0.000145739   0.00003  -0.00079   0.00556  -0.00003
   9   31708.5    315.4   0.000701264   0.00015  -0.00000  -0.00002  -0.01233
  10   35383.6    282.6   0.093991688   0.02273  -0.00001   0.00001   0.15076
  11   35199.3    284.1   0.450878578   0.10847  -0.00098  -0.32934   0.00000
  12   35255.6    283.6   0.007551696   0.00182  -0.04113   0.01132  -0.00000
  13   35405.8    282.4   0.000007450   0.00000  -0.00001  -0.00001  -0.00134
  14   35290.2    283.4   0.739352427   0.17832  -0.00508   0.42225  -0.00000
  15   36469.4    274.2   0.020651510   0.00515  -0.00000  -0.00001   0.07175
  16   35732.9    279.9   0.033166225   0.00810   0.00002   0.00001   0.09000
  17   39408.4    253.8   0.022891817   0.00617  -0.07775  -0.01099   0.00001
  18   37708.8    265.2   0.073264041   0.01888  -0.00001   0.00014   0.13741
  19   42247.0    236.7   0.025599074   0.00739  -0.00168  -0.08596   0.00017
  20   42535.3    235.1   0.057421405   0.01669   0.12914  -0.00409   0.00001
  21   39940.4    250.4   0.789547281   0.21552   0.00929  -0.46415   0.00001
  22   43105.5    232.0   0.249254136   0.07343   0.27003   0.02274   0.00000
  23   42808.8    233.6   0.000012519   0.00000   0.00000  -0.00002  -0.00191
  24   42488.4    235.4   0.000004070   0.00000   0.00000  -0.00001  -0.00109
  25   40635.1    246.1   0.008009268   0.00222   0.01035  -0.04601  -0.00000
  26   41709.0    239.8   0.047304102   0.01348   0.00488   0.11602  -0.00000
  27   44766.1    223.4   2.133180357   0.65265  -0.80787  -0.00062  -0.00000
  28   42599.4    234.7   0.011438721   0.00333  -0.05697  -0.00924   0.00001
  29   42048.4    237.8   0.203807525   0.05857  -0.24198  -0.00374   0.00000
  30   44687.9    223.8   0.000007107   0.00000  -0.00128  -0.00002   0.00073

-------------------------------------------------------------------
                             CD SPECTRUM
-------------------------------------------------------------------
State  Energy     Wavelength     R         MX        MY        MZ   
       (cm-1)       (nm)     (1e40*cgs)   (au)      (au)      (au)  
-------------------------------------------------------------------
   1   19612.9    509.9    137.89719  -0.08297   0.00060  -0.00001
   2   24431.8    409.3    -152.16423  -0.00001  -0.18206   0.00018
   3   25236.0    396.3    222.08890   0.00000   0.00004   0.78709
   4   30096.7    332.3    -239.94891  -0.00000   0.00001  -1.04761
   5   30501.5    327.9     -0.13787   0.00000   0.00001  -0.01703
   6   29024.3    344.5     -0.00969   0.00001  -0.00000  -0.00674
   7   30201.3    331.1     -3.44727  -0.00000  -0.00000   0.12946
   8   31699.6    315.5     -6.44621   0.02921   0.47116   0.00023
   9   31708.5    315.4      3.77138  -0.00007  -0.00102   0.13344
  10   35383.6    282.6    504.69630   0.00001   0.00000  -1.33246
  11   35199.3    284.1    -99.09133   0.00395  -0.12295  -0.00003
  12   35255.6    283.6     32.78435   0.32702  -0.00038   0.00004
  13   35405.8    282.4      0.03247   0.00005   0.00000   0.01414
  14   35290.2    283.4    -738.64752  -0.01103   0.73748  -0.00001
  15   36469.4    274.2    165.61417  -0.00002  -0.00005  -0.98144
  16   35732.9    279.9    261.34514   0.00004   0.00001  -1.23598
  17   39408.4    253.8    -26.04450  -0.14148  -0.02637  -0.00022
  18   37708.8    265.2    310.46000   0.00001   0.00023  -1.02097
  19   42247.0    236.7    -28.71419   0.00222  -0.15485  -0.00130
  20   42535.3    235.1     28.32977  -0.10123  -0.00610  -0.00006
  21   39940.4    250.4    -258.75871  -0.00071  -0.25714  -0.00007
  22   43105.5    232.0     19.91731  -0.03651   0.01803  -0.00001
  23   42808.8    233.6      0.10581  -0.00000  -0.00003   0.02646
  24   42488.4    235.4      0.02738  -0.00001  -0.00004   0.01293
  25   40635.1    246.1    -21.04727   0.00089  -0.21491  -0.00001
  26   41709.0    239.8    -66.41857  -0.00300   0.27842   0.00001
  27   44766.1    223.4    107.15520   0.06579  -0.00846   0.00001
  28   42599.4    234.7     -1.11293  -0.02064   0.06784   0.00001
  29   42048.4    237.8    -53.27810  -0.11083  -0.02505  -0.00003
  30   44687.9    223.8      0.02316   0.00056  -0.00003  -0.01336

Total run time:    51433.333 sec

           *** ORCA-CIS/TD-DFT FINISHED WITHOUT ERROR ***

Maximum memory used throughout the entire CIS-calculation: 6717.1 MB

-----------------------
CIS/TD-DFT TOTAL ENERGY
-----------------------

    E(SCF)  =  -3243.682542840 Eh
    DE(CIS) =      0.089362753 Eh (Root  1)
    ----------------------------- ---------
    E(tot)  =  -3243.593180087 Eh


-------------------------   --------------------
FINAL SINGLE POINT ENERGY     -3243.593180087280
-------------------------   --------------------


                            ***************************************
                            *     ORCA property calculations      *
                            ***************************************


  WARNING: The energy has been calculated at the MP2 level but the densities
           used in the property calculations are still SCF densities
           MP2 response densities have not been calculated 
           use %mp2 Density relaxed end
           or  %mp2 Density unrelaxed end

                                    ---------------------
                                    Active property flags
                                    ---------------------
   (+) Dipole Moment


------------------------------------------------------------------------------
                       ORCA ELECTRIC PROPERTIES CALCULATION
------------------------------------------------------------------------------

Dipole Moment Calculation                       ... on
Quadrupole Moment Calculation                   ... off
Polarizability Calculation                      ... off
GBWName                                         ... PDI_2_M06L_def2TZVP_coords.gbw
Electron density                                ... PDI_2_M06L_def2TZVP_coords.scfp
The origin for moment calculation is the CENTER OF MASS  = ( 0.000000,  0.000000 -0.000402)

-------------
DIPOLE MOMENT
-------------
                                X             Y             Z
Electronic contribution:      0.00001       0.00003      -0.10817
Nuclear contribution   :      0.00000      -0.00000       0.11258
                        -----------------------------------------
Total Dipole Moment    :      0.00001       0.00003       0.00441
                        -----------------------------------------
Magnitude (a.u.)       :      0.00441
Magnitude (Debye)      :      0.01121



--------------------
Rotational spectrum 
--------------------
 
Rotational constants in cm-1:     0.005049     0.002246     0.001678 
Rotational constants in MHz :   151.365717    67.318622    50.310932 

 Dipole components along the rotational axes: 
x,y,z [a.u.] :     0.000007     0.000026     0.004410 
x,y,z [Debye]:     0.000017     0.000067     0.011209 

 

Timings for individual modules:

Sum of individual times         ...    53504.111 sec (= 891.735 min)
GTO integral calculation        ...        4.602 sec (=   0.077 min)   0.0 %
SCF iterations                  ...      652.459 sec (=  10.874 min)   1.2 %
MP2 module                      ...     1412.203 sec (=  23.537 min)   2.6 %
CIS module                      ...    51434.847 sec (= 857.247 min)  96.1 %
                             ****ORCA TERMINATED NORMALLY****
TOTAL RUN TIME: 0 days 14 hours 51 minutes 55 seconds 298 msec
