
                                 *****************
                                 * O   R   C   A *
                                 *****************

                                            #,                                       
                                            ###                                      
                                            ####                                     
                                            #####                                    
                                            ######                                   
                                           ########,                                 
                                     ,,################,,,,,                         
                               ,,#################################,,                 
                          ,,##########################################,,             
                       ,#########################################, ''#####,          
                    ,#############################################,,   '####,        
                  ,##################################################,,,,####,       
                ,###########''''           ''''###############################       
              ,#####''   ,,,,##########,,,,          '''####'''          '####       
            ,##' ,,,,###########################,,,                        '##       
           ' ,,###''''                  '''############,,,                           
         ,,##''                                '''############,,,,        ,,,,,,###''
      ,#''                                            '''#######################'''  
     '                                                          ''''####''''         
             ,#######,   #######,   ,#######,      ##                                
            ,#'     '#,  ##    ##  ,#'     '#,    #''#        ######   ,####,        
            ##       ##  ##   ,#'  ##            #'  '#       #        #'  '#        
            ##       ##  #######   ##           ,######,      #####,   #    #        
            '#,     ,#'  ##    ##  '#,     ,#' ,#      #,         ##   #,  ,#        
             '#######'   ##     ##  '#######'  #'      '#     #####' # '####'        



                  #######################################################
                  #                        -***-                        #
                  #          Department of theory and spectroscopy      #
                  #    Directorship and core code : Frank Neese         #
                  #        Max Planck Institute fuer Kohlenforschung    #
                  #                Kaiser Wilhelm Platz 1               #
                  #                 D-45470 Muelheim/Ruhr               #
                  #                      Germany                        #
                  #                                                     #
                  #                  All rights reserved                #
                  #                        -***-                        #
                  #######################################################


                         Program Version 5.0.2 -  RELEASE  -


 With contributions from (in alphabetic order):
   Daniel Aravena         : Magnetic Suceptibility
   Michael Atanasov       : Ab Initio Ligand Field Theory (pilot matlab implementation)
   Alexander A. Auer      : GIAO ZORA, VPT2 properties, NMR spectrum
   Ute Becker             : Parallelization
   Giovanni Bistoni       : ED, misc. LED, open-shell LED, HFLD
   Martin Brehm           : Molecular dynamics
   Dmytro Bykov           : SCF Hessian
   Vijay G. Chilkuri      : MRCI spin determinant printing, contributions to CSF-ICE
   Dipayan Datta          : RHF DLPNO-CCSD density
   Achintya Kumar Dutta   : EOM-CC, STEOM-CC
   Dmitry Ganyushin       : Spin-Orbit,Spin-Spin,Magnetic field MRCI
   Miquel Garcia          : C-PCM and meta-GGA Hessian, CC/C-PCM, Gaussian charge scheme
   Yang Guo               : DLPNO-NEVPT2, F12-NEVPT2, CIM, IAO-localization
   Andreas Hansen         : Spin unrestricted coupled pair/coupled cluster methods
   Benjamin Helmich-Paris : MC-RPA, TRAH-SCF, COSX integrals
   Lee Huntington         : MR-EOM, pCC
   Robert Izsak           : Overlap fitted RIJCOSX, COSX-SCS-MP3, EOM
   Marcus Kettner         : VPT2
   Christian Kollmar      : KDIIS, OOCD, Brueckner-CCSD(T), CCSD density, CASPT2, CASPT2-K
   Simone Kossmann        : Meta GGA functionals, TD-DFT gradient, OOMP2, MP2 Hessian
   Martin Krupicka        : Initial AUTO-CI
   Lucas Lang             : DCDCAS
   Marvin Lechner         : AUTO-CI (C++ implementation), FIC-MRCC
   Dagmar Lenk            : GEPOL surface, SMD
   Dimitrios Liakos       : Extrapolation schemes; Compound Job, initial MDCI parallelization
   Dimitrios Manganas     : Further ROCIS development; embedding schemes
   Dimitrios Pantazis     : SARC Basis sets
   Anastasios Papadopoulos: AUTO-CI, single reference methods and gradients
   Taras Petrenko         : DFT Hessian,TD-DFT gradient, ASA, ECA, R-Raman, ABS, FL, XAS/XES, NRVS
   Peter Pinski           : DLPNO-MP2, DLPNO-MP2 Gradient
   Christoph Reimann      : Effective Core Potentials
   Marius Retegan         : Local ZFS, SOC
   Christoph Riplinger    : Optimizer, TS searches, QM/MM, DLPNO-CCSD(T), (RO)-DLPNO pert. Triples
   Tobias Risthaus        : Range-separated hybrids, TD-DFT gradient, RPA, STAB
   Michael Roemelt        : Original ROCIS implementation
   Masaaki Saitow         : Open-shell DLPNO-CCSD energy and density
   Barbara Sandhoefer     : DKH picture change effects
   Avijit Sen             : IP-ROCIS
   Kantharuban Sivalingam : CASSCF convergence, NEVPT2, FIC-MRCI
   Bernardo de Souza      : ESD, SOC TD-DFT
   Georgi Stoychev        : AutoAux, RI-MP2 NMR, DLPNO-MP2 response
   Willem Van den Heuvel  : Paramagnetic NMR
   Boris Wezisla          : Elementary symmetry handling
   Frank Wennmohs         : Technical directorship


 We gratefully acknowledge several colleagues who have allowed us to
 interface, adapt or use parts of their codes:
   Stefan Grimme, W. Hujo, H. Kruse, P. Pracht,  : VdW corrections, initial TS optimization,
                  C. Bannwarth, S. Ehlert          DFT functionals, gCP, sTDA/sTD-DF
   Ed Valeev, F. Pavosevic, A. Kumar             : LibInt (2-el integral package), F12 methods
   Garnet Chan, S. Sharma, J. Yang, R. Olivares  : DMRG
   Ulf Ekstrom                                   : XCFun DFT Library
   Mihaly Kallay                                 : mrcc  (arbitrary order and MRCC methods)
   Jiri Pittner, Ondrej Demel                    : Mk-CCSD
   Frank Weinhold                                : gennbo (NPA and NBO analysis)
   Christopher J. Cramer and Donald G. Truhlar   : smd solvation model
   Lars Goerigk                                  : TD-DFT with DH, B97 family of functionals
   V. Asgeirsson, H. Jonsson                     : NEB implementation
   FAccTs GmbH                                   : IRC, NEB, NEB-TS, DLPNO-Multilevel, CI-OPT
                                                   MM, QMMM, 2- and 3-layer-ONIOM, Crystal-QMMM,
                                                   LR-CPCM, SF, NACMEs, symmetry and pop. for TD-DFT,
                                                   nearIR, NL-DFT gradient (VV10), updates on ESD,
                                                   ML-optimized integration grids
   S Lehtola, MJT Oliveira, MAL Marques          : LibXC Library
   Liviu Ungur et al                             : ANISO software


 Your calculation uses the libint2 library for the computation of 2-el integrals
 For citations please refer to: http://libint.valeyev.net

 Your ORCA version has been built with support for libXC version: 5.1.0
 For citations please refer to: https://tddft.org/programs/libxc/

 This ORCA versions uses:
   CBLAS   interface :  Fast vector & matrix operations
   LAPACKE interface :  Fast linear algebra routines
   SCALAPACK package :  Parallel linear algebra routines
   Shared memory     :  Shared parallel matrices
   BLAS/LAPACK       :  OpenBLAS 0.3.15  USE64BITINT DYNAMIC_ARCH NO_AFFINITY Zen SINGLE_THREADED
        Core in use  :  Zen
   Copyright (c) 2011-2014, The OpenBLAS Project


Your calculation utilizes the SMD solvation module
Please cite in your paper:
A.V. Marenich, C.J. Cramer, D.G. Truhlar J. Phys. Chem. B, 113, (2009), 6378 

================================================================================

----- Orbital basis set information -----
Your calculation utilizes the basis: def2-TZVP
   F. Weigend and R. Ahlrichs, Phys. Chem. Chem. Phys. 7, 3297 (2005).

----- AuxJ basis set information -----
Your calculation utilizes the auxiliary basis: def2/J
   F. Weigend, Phys. Chem. Chem. Phys. 8, 1057 (2006).

----- AuxC basis set information -----
Your calculation utilizes the auxiliary basis: def2-TZVP/C
  H-La, Hf-Rn : A. Hellweg, C. Hattig, S. Hofener and W. Klopper, Theor. Chem. Acc. 117, 587 (2007).
        Ce-Lu : J. Chmela and M. E. Harding, Mol. Phys. (2018).

================================================================================
                                        WARNINGS
                       Please study these warnings very carefully!
================================================================================

INFO   : Checking CIS options ...
  ===> : (D) CORRECTION FOUND - SETTING MODE=3
  ===> : JK MODE FOUND - ACTIVATING RI-MP2 CODE
  ===> : MP2 AND CIS FOUND - CHECKING
WARNING: CIS(D) and MP2 runs must have the same orbital window
  ===> : adjusting orbital windows

WARNING: No MP2 level density has been requested!
         To caclulate MP2 level properties use
         %mp2 Density relaxed end
         or
         %mp2 Density unrelaxed end
         Otherwise for double-hybrid DFT only the energy is correct!

WARNING: The frozen-core approximation is turned on by default for 
         the MP2 part of double-hybrid DFT.

WARNING:  You are using a Range-Separated Double Hybrid functional with Doubles Correction 
          Changing Mode to RPA_AOINTS 


WARNING: CIS/ROCIS methods need fully converged wavefunctions
  ===> : Setting SCFConvForced true
         You can overwrite this default with %scf ConvForced false 


INFO   : the flag for use of the SHARK integral package has been found!

================================================================================
                                       INPUT FILE
================================================================================
NAME = NCE_1_M06L_def2TZVP_coords.inp
|  1> %maxcore 20000
|  2> %pal
|  3>  nprocs= 4
|  4> end
|  5> ! RI-wPBEPP86   def2-TZVP def2/J def2-TZVP/C RIJCOSX CPCM TightSCF
|  6> %TDDFT  
|  7>    NROOTS   30
|  8>    dcorr 1
|  9>    TDA      FALSE
| 10> END
| 11> 
| 12> %CPCM
| 13>    SMD          TRUE
| 14>    SMDsolvent   "ACETONITRILE"
| 15> END
| 16>    
| 17> 
| 18> * xyz 0 1
| 19> C                   1.88629500    4.20967500    0.00975300
| 20> C                   0.58312800    3.79831200    0.00210500
| 21> C                   0.25769100    2.42219400   -0.00134700
| 22> C                   1.30920500    1.45669500    0.00107500
| 23> C                   2.64691800    1.92250500    0.01243900
| 24> C                   2.92695500    3.26158300    0.01602800
| 25> C                  -1.07371400    1.98976500   -0.00338400
| 26> C                   0.98468200    0.07504500   -0.00581700
| 27> C                  -0.35228100   -0.31916500   -0.01347600
| 28> C                  -1.40159000    0.65276500   -0.00694200
| 29> C                  -2.78227100    0.19662400   -0.00248100
| 30> C                  -3.03132000   -1.17416000   -0.00726700
| 31> C                  -0.68796500   -1.74830700   -0.03892000
| 32> H                  -1.84891700    2.74447200   -0.00088500
| 33> H                   2.12316200    5.26611500    0.01239500
| 34> H                  -0.22628700    4.51846200   -0.00072200
| 35> H                   3.45640600    1.20471800    0.01849500
| 36> H                   3.95616700    3.59676900    0.02445700
| 37> C                   2.11411600   -0.89034300    0.00271100
| 38> C                   2.72559400   -1.27145900   -1.18861100
| 39> C                   2.62603400   -1.36512600    1.20739000
| 40> C                   3.80945300   -2.13635800   -1.17698700
| 41> H                   2.34182200   -0.89323000   -2.12894300
| 42> C                   3.71094200   -2.22830500    1.21828200
| 43> H                   2.16267700   -1.06177500    2.13897800
| 44> C                   4.30390800   -2.62059300    0.02608700
| 45> H                   4.27114100   -2.43019900   -2.11161500
| 46> H                   4.09560600   -2.59412600    2.16233200
| 47> H                   5.15107000   -3.29480400    0.03504000
| 48> O                   0.08459400   -2.67312200   -0.07461200
| 49> O                  -2.01530000   -2.08680800   -0.02449300
| 50> C                  -3.89782100    1.04425400    0.01055500
| 51> C                  -4.31611200   -1.69787100    0.00165800
| 52> C                  -5.39467800   -0.83571300    0.01492800
| 53> H                  -6.40094900   -1.23393300    0.02187300
| 54> C                  -5.18255600    0.54027400    0.01893300
| 55> H                  -6.02502100    1.21919700    0.02905900
| 56> H                  -3.75312400    2.11601700    0.01476600
| 57> H                  -4.44577800   -2.77198100   -0.00265200
| 58> *
| 59> 
| 60> 
| 61>                          ****END OF INPUT****
================================================================================

                       ****************************
                       * Single Point Calculation *
                       ****************************

---------------------------------
CARTESIAN COORDINATES (ANGSTROEM)
---------------------------------
  C      1.886295    4.209675    0.009753
  C      0.583128    3.798312    0.002105
  C      0.257691    2.422194   -0.001347
  C      1.309205    1.456695    0.001075
  C      2.646918    1.922505    0.012439
  C      2.926955    3.261583    0.016028
  C     -1.073714    1.989765   -0.003384
  C      0.984682    0.075045   -0.005817
  C     -0.352281   -0.319165   -0.013476
  C     -1.401590    0.652765   -0.006942
  C     -2.782271    0.196624   -0.002481
  C     -3.031320   -1.174160   -0.007267
  C     -0.687965   -1.748307   -0.038920
  H     -1.848917    2.744472   -0.000885
  H      2.123162    5.266115    0.012395
  H     -0.226287    4.518462   -0.000722
  H      3.456406    1.204718    0.018495
  H      3.956167    3.596769    0.024457
  C      2.114116   -0.890343    0.002711
  C      2.725594   -1.271459   -1.188611
  C      2.626034   -1.365126    1.207390
  C      3.809453   -2.136358   -1.176987
  H      2.341822   -0.893230   -2.128943
  C      3.710942   -2.228305    1.218282
  H      2.162677   -1.061775    2.138978
  C      4.303908   -2.620593    0.026087
  H      4.271141   -2.430199   -2.111615
  H      4.095606   -2.594126    2.162332
  H      5.151070   -3.294804    0.035040
  O      0.084594   -2.673122   -0.074612
  O     -2.015300   -2.086808   -0.024493
  C     -3.897821    1.044254    0.010555
  C     -4.316112   -1.697871    0.001658
  C     -5.394678   -0.835713    0.014928
  H     -6.400949   -1.233933    0.021873
  C     -5.182556    0.540274    0.018933
  H     -6.025021    1.219197    0.029059
  H     -3.753124    2.116017    0.014766
  H     -4.445778   -2.771981   -0.002652

----------------------------
CARTESIAN COORDINATES (A.U.)
----------------------------
  NO LB      ZA    FRAG     MASS         X           Y           Z
   0 C     6.0000    0    12.011    3.564581    7.955133    0.018430
   1 C     6.0000    0    12.011    1.101952    7.177769    0.003978
   2 C     6.0000    0    12.011    0.486965    4.577283   -0.002545
   3 C     6.0000    0    12.011    2.474039    2.752755    0.002031
   4 C     6.0000    0    12.011    5.001950    3.633008    0.023506
   5 C     6.0000    0    12.011    5.531143    6.163499    0.030289
   6 C     6.0000    0    12.011   -2.029025    3.760111   -0.006395
   7 C     6.0000    0    12.011    1.860779    0.141814   -0.010993
   8 C     6.0000    0    12.011   -0.665715   -0.603134   -0.025466
   9 C     6.0000    0    12.011   -2.648621    1.233547   -0.013118
  10 C     6.0000    0    12.011   -5.257730    0.371566   -0.004688
  11 C     6.0000    0    12.011   -5.728365   -2.218841   -0.013733
  12 C     6.0000    0    12.011   -1.300065   -3.303821   -0.073548
  13 H     1.0000    0     1.008   -3.493947    5.186300   -0.001672
  14 H     1.0000    0     1.008    4.012195    9.951515    0.023423
  15 H     1.0000    0     1.008   -0.427620    8.538656   -0.001364
  16 H     1.0000    0     1.008    6.531661    2.276587    0.034950
  17 H     1.0000    0     1.008    7.476072    6.796908    0.046217
  18 C     6.0000    0    12.011    3.995100   -1.682504    0.005123
  19 C     6.0000    0    12.011    5.150626   -2.402709   -2.246149
  20 C     6.0000    0    12.011    4.962485   -2.579714    2.281636
  21 C     6.0000    0    12.011    7.198823   -4.037132   -2.224183
  22 H     1.0000    0     1.008    4.425402   -1.687960   -4.023119
  23 C     6.0000    0    12.011    7.012664   -4.210886    2.302219
  24 H     1.0000    0     1.008    4.086867   -2.006464    4.042083
  25 C     6.0000    0    12.011    8.133207   -4.952203    0.049297
  26 H     1.0000    0     1.008    8.071287   -4.592411   -3.990374
  27 H     1.0000    0     1.008    7.739574   -4.902188    4.086215
  28 H     1.0000    0     1.008    9.734112   -6.226277    0.066216
  29 O     8.0000    0    15.999    0.159859   -5.051469   -0.140996
  30 O     8.0000    0    15.999   -3.808365   -3.943496   -0.046285
  31 C     6.0000    0    12.011   -7.365814    1.973354    0.019946
  32 C     6.0000    0    12.011   -8.156270   -3.208511    0.003133
  33 C     6.0000    0    12.011  -10.194464   -1.579269    0.028210
  34 H     1.0000    0     1.008  -12.096041   -2.331795    0.041334
  35 C     6.0000    0    12.011   -9.793612    1.020970    0.035778
  36 H     1.0000    0     1.008  -11.385640    2.303948    0.054914
  37 H     1.0000    0     1.008   -7.092377    3.998693    0.027904
  38 H     1.0000    0     1.008   -8.401303   -5.238285   -0.005012

--------------------------------
INTERNAL COORDINATES (ANGSTROEM)
--------------------------------
 C      0   0   0     0.000000000000     0.00000000     0.00000000
 C      1   0   0     1.366573173878     0.00000000     0.00000000
 C      2   1   0     1.414079880062   120.82469085     0.00000000
 C      3   2   1     1.427541900359   119.25232000   359.89981226
 C      4   3   2     1.416539504202   118.24291716     0.25479541
 C      5   4   3     1.368050983105   121.01084696   359.76251016
 C      3   2   1     1.399870802408   121.29883448   179.72259167
 C      4   3   2     1.419267205178   119.33907165   180.15905176
 C      8   4   3     1.393890328451   119.64736610   359.93598611
 C      7   3   2     1.376620619757   121.77232527   179.99044994
 C     10   7   3     1.454085463844   122.06025617   179.69348552
 C     11  10   7     1.393232602566   118.57857264   179.96494920
 C      9   8   4     1.468256789923   119.64760172   179.17761652
 H      7   3   2     1.081909696813   117.77385291   359.91951772
 H      1   2   3     1.082671893721   120.15674637   180.00386023
 H      2   1   3     1.083409736274   120.82126580   179.95432194
 H      5   4   3     1.081908348544   119.23863789   179.75318745
 H      6   5   4     1.082450018976   119.85109147   180.01779804
 C      8   4   3     1.485822290075   117.30158278   180.24580534
 C     19   8   4     1.392265368967   120.45068604   274.66048038
 C     19   8   4     1.392383003650   120.39682770    90.86700070
 C     20  19   8     1.386699581545   120.45365049   177.75072872
 H     20  19   8     1.083772298340   119.43038049   357.20571814
 C     21  19   8     1.386442205852   120.44993610   182.34095609
 H     21  19   8     1.083779378100   119.41073825     2.94045885
 C     22  20  19     1.387932394508   120.22009836   359.36071694
 H     22  20  19     1.083064098292   119.68075025   179.56211646
 H     24  21  19     1.083061309177   119.67342611   180.32738764
 H     26  22  20     1.082739157403   120.20919889   180.08595951
 O     13   9   8     1.205572109652   126.91890158   358.82686168
 O     12  11  10     1.365840308155   121.63453537   359.57988229
 C     11  10   7     1.401106118999   124.48917426   359.75881917
 C     12  11  10     1.387459314867   122.47186086   179.74525548
 C     33  12  11     1.380868250855   119.18767357     0.04303508
 H     34  33  12     1.082223972598   119.77398276   179.99400518
 C     32  11  10     1.380076103521   121.35367786   180.23547530
 H     36  32  11     1.082028766729   119.71793362   179.99345778
 H     32  11  10     1.081494744554   119.54052713     0.19865402
 H     33  12  11     1.081916882092   119.05776485   180.00194426

---------------------------
INTERNAL COORDINATES (A.U.)
---------------------------
 C      0   0   0     0.000000000000     0.00000000     0.00000000
 C      1   0   0     2.582449040592     0.00000000     0.00000000
 C      2   1   0     2.672223704806   120.82469085     0.00000000
 C      3   2   1     2.697663236376   119.25232000   359.89981226
 C      4   3   2     2.676871720822   118.24291716     0.25479541
 C      5   4   3     2.585241695310   121.01084696   359.76251016
 C      3   2   1     2.645372439424   121.29883448   179.72259167
 C      4   3   2     2.682026328642   119.33907165   180.15905176
 C      8   4   3     2.634070981494   119.64736610   359.93598611
 C      7   3   2     2.601435961650   121.77232527   179.99044994
 C     10   7   3     2.747823301981   122.06025617   179.69348552
 C     11  10   7     2.632828059700   118.57857264   179.96494920
 C      9   8   4     2.774603227225   119.64760172   179.17761652
 H      7   3   2     2.044513028611   117.77385291   359.91951772
 H      1   2   3     2.045953372026   120.15674637   180.00386023
 H      2   1   3     2.047347692382   120.82126580   179.95432194
 H      5   4   3     2.044510480751   119.23863789   179.75318745
 H      6   5   4     2.045534089522   119.85109147   180.01779804
 C      8   4   3     2.807797211918   117.30158278   180.24580534
 C     19   8   4     2.631000253090   120.45068604   274.66048038
 C     19   8   4     2.631222550426   120.39682770    90.86700070
 C     20  19   8     2.620482439144   120.45365049   177.75072872
 H     20  19   8     2.048032835393   119.43038049   357.20571814
 C     21  19   8     2.619996069571   120.44993610   182.34095609
 H     21  19   8     2.048046214200   119.41073825     2.94045885
 C     22  20  19     2.622812118019   120.22009836   359.36071694
 H     22  20  19     2.046694531254   119.68075025   179.56211646
 H     24  21  19     2.046689260591   119.67342611   180.32738764
 H     26  22  20     2.046080481965   120.20919889   180.08595951
 O     13   9   8     2.278201121935   126.91890158   358.82686168
 O     12  11  10     2.581064125083   121.63453537   359.57988229
 C     11  10   7     2.647706849469   124.48917426   359.75881917
 C     12  11  10     2.621918127056   122.47186086   179.74525548
 C     33  12  11     2.609462821143   119.18767357     0.04303508
 H     34  33  12     2.045106923775   119.77398276   179.99400518
 C     32  11  10     2.607965879623   121.35367786   180.23547530
 H     36  32  11     2.044738038143   119.71793362   179.99345778
 H     32  11  10     2.043728882483   119.54052713     0.19865402
 H     33  12  11     2.044526606820   119.05776485   180.00194426

---------------------
BASIS SET INFORMATION
---------------------
There are 3 groups of distinct atoms

 Group   1 Type C   : 11s6p2d1f contracted to 5s3p2d1f pattern {62111/411/11/1}
 Group   2 Type H   : 5s1p contracted to 3s1p pattern {311/1}
 Group   3 Type O   : 11s6p2d1f contracted to 5s3p2d1f pattern {62111/411/11/1}

Atom   0C    basis set group =>   1
Atom   1C    basis set group =>   1
Atom   2C    basis set group =>   1
Atom   3C    basis set group =>   1
Atom   4C    basis set group =>   1
Atom   5C    basis set group =>   1
Atom   6C    basis set group =>   1
Atom   7C    basis set group =>   1
Atom   8C    basis set group =>   1
Atom   9C    basis set group =>   1
Atom  10C    basis set group =>   1
Atom  11C    basis set group =>   1
Atom  12C    basis set group =>   1
Atom  13H    basis set group =>   2
Atom  14H    basis set group =>   2
Atom  15H    basis set group =>   2
Atom  16H    basis set group =>   2
Atom  17H    basis set group =>   2
Atom  18C    basis set group =>   1
Atom  19C    basis set group =>   1
Atom  20C    basis set group =>   1
Atom  21C    basis set group =>   1
Atom  22H    basis set group =>   2
Atom  23C    basis set group =>   1
Atom  24H    basis set group =>   2
Atom  25C    basis set group =>   1
Atom  26H    basis set group =>   2
Atom  27H    basis set group =>   2
Atom  28H    basis set group =>   2
Atom  29O    basis set group =>   3
Atom  30O    basis set group =>   3
Atom  31C    basis set group =>   1
Atom  32C    basis set group =>   1
Atom  33C    basis set group =>   1
Atom  34H    basis set group =>   2
Atom  35C    basis set group =>   1
Atom  36H    basis set group =>   2
Atom  37H    basis set group =>   2
Atom  38H    basis set group =>   2
---------------------------------
AUXILIARY/J BASIS SET INFORMATION
---------------------------------
There are 3 groups of distinct atoms

 Group   1 Type C   : 12s5p4d2f1g contracted to 6s4p3d1f1g pattern {711111/2111/211/2/1}
 Group   2 Type H   : 5s2p1d contracted to 3s1p1d pattern {311/2/1}
 Group   3 Type O   : 12s5p4d2f1g contracted to 6s4p3d1f1g pattern {711111/2111/211/2/1}

Atom   0C    basis set group =>   1
Atom   1C    basis set group =>   1
Atom   2C    basis set group =>   1
Atom   3C    basis set group =>   1
Atom   4C    basis set group =>   1
Atom   5C    basis set group =>   1
Atom   6C    basis set group =>   1
Atom   7C    basis set group =>   1
Atom   8C    basis set group =>   1
Atom   9C    basis set group =>   1
Atom  10C    basis set group =>   1
Atom  11C    basis set group =>   1
Atom  12C    basis set group =>   1
Atom  13H    basis set group =>   2
Atom  14H    basis set group =>   2
Atom  15H    basis set group =>   2
Atom  16H    basis set group =>   2
Atom  17H    basis set group =>   2
Atom  18C    basis set group =>   1
Atom  19C    basis set group =>   1
Atom  20C    basis set group =>   1
Atom  21C    basis set group =>   1
Atom  22H    basis set group =>   2
Atom  23C    basis set group =>   1
Atom  24H    basis set group =>   2
Atom  25C    basis set group =>   1
Atom  26H    basis set group =>   2
Atom  27H    basis set group =>   2
Atom  28H    basis set group =>   2
Atom  29O    basis set group =>   3
Atom  30O    basis set group =>   3
Atom  31C    basis set group =>   1
Atom  32C    basis set group =>   1
Atom  33C    basis set group =>   1
Atom  34H    basis set group =>   2
Atom  35C    basis set group =>   1
Atom  36H    basis set group =>   2
Atom  37H    basis set group =>   2
Atom  38H    basis set group =>   2
---------------------------------
AUXILIARY/C BASIS SET INFORMATION
---------------------------------
There are 3 groups of distinct atoms

 Group   1 Type C   : 8s6p5d3f1g contracted to 8s6p4d3f1g pattern {11111111/111111/2111/111/1}
 Group   2 Type H   : 4s3p2d contracted to 4s2p1d pattern {1111/21/2}
 Group   3 Type O   : 8s6p5d3f1g contracted to 8s6p4d3f1g pattern {11111111/111111/2111/111/1}

Atom   0C    basis set group =>   1
Atom   1C    basis set group =>   1
Atom   2C    basis set group =>   1
Atom   3C    basis set group =>   1
Atom   4C    basis set group =>   1
Atom   5C    basis set group =>   1
Atom   6C    basis set group =>   1
Atom   7C    basis set group =>   1
Atom   8C    basis set group =>   1
Atom   9C    basis set group =>   1
Atom  10C    basis set group =>   1
Atom  11C    basis set group =>   1
Atom  12C    basis set group =>   1
Atom  13H    basis set group =>   2
Atom  14H    basis set group =>   2
Atom  15H    basis set group =>   2
Atom  16H    basis set group =>   2
Atom  17H    basis set group =>   2
Atom  18C    basis set group =>   1
Atom  19C    basis set group =>   1
Atom  20C    basis set group =>   1
Atom  21C    basis set group =>   1
Atom  22H    basis set group =>   2
Atom  23C    basis set group =>   1
Atom  24H    basis set group =>   2
Atom  25C    basis set group =>   1
Atom  26H    basis set group =>   2
Atom  27H    basis set group =>   2
Atom  28H    basis set group =>   2
Atom  29O    basis set group =>   3
Atom  30O    basis set group =>   3
Atom  31C    basis set group =>   1
Atom  32C    basis set group =>   1
Atom  33C    basis set group =>   1
Atom  34H    basis set group =>   2
Atom  35C    basis set group =>   1
Atom  36H    basis set group =>   2
Atom  37H    basis set group =>   2
Atom  38H    basis set group =>   2


           ************************************************************
           *        Program running with 4 parallel MPI-processes     *
           *              working on a common directory               *
           ************************************************************
------------------------------------------------------------------------------
                           ORCA GTO INTEGRAL CALCULATION
                           -- RI-GTO INTEGRALS CHOSEN --
------------------------------------------------------------------------------
------------------------------------------------------------------------------
                   ___                                                        
                  /   \      - P O W E R E D   B Y -                         
                 /     \                                                     
                 |  |  |   _    _      __       _____    __    __             
                 |  |  |  | |  | |    /  \     |  _  \  |  |  /  |          
                  \  \/   | |  | |   /    \    | | | |  |  | /  /          
                 / \  \   | |__| |  /  /\  \   | |_| |  |  |/  /          
                |  |  |   |  __  | /  /__\  \  |    /   |      \           
                |  |  |   | |  | | |   __   |  |    \   |  |\   \          
                \     /   | |  | | |  |  |  |  | |\  \  |  | \   \       
                 \___/    |_|  |_| |__|  |__|  |_| \__\ |__|  \__/        
                                                                              
                      - O R C A' S   B I G   F R I E N D -                    
                                      &                                       
                       - I N T E G R A L  F E E D E R -                       
                                                                              
 v1 FN, 2020, v2 2021                                                         
------------------------------------------------------------------------------


Reading SHARK input file NCE_1_M06L_def2TZVP_coords.SHARKINP.tmp ... ok
----------------------
SHARK INTEGRAL PACKAGE
----------------------

Number of atoms                             ...     39
Number of basis functions                   ...    859
Number of shells                            ...    331
Maximum angular momentum                    ...      3
Integral batch strategy                     ... SHARK/LIBINT Hybrid
RI-J (if used) integral strategy            ... SPLIT-RIJ (Revised 2003 algorithm where possible)
Printlevel                                  ...      1
Contraction scheme used                     ... SEGMENTED contraction
Coulomb Range Separation                    ... NOT USED
Exchange Range Separation                   ... Long Range
   Mu parameter                             ...  0.180000
   Scaling (regular/separated)              ...  0.700000  0.300000
Finite Nucleus Model                        ... NOT USED
Auxiliary Coulomb fitting basis             ... AVAILABLE
   # of basis functions in Aux-J            ...   1379
   # of shells in Aux-J                     ...    445
   Maximum angular momentum in Aux-J        ...      4
Auxiliary J/K fitting basis                 ... NOT available
Auxiliary Correlation fitting basis         ... AVAILABLE
   # of basis functions in Aux-C            ...   2110
   # of shells in Aux-C                     ...    648
   Maximum angular momentum in Aux-C        ...      4
Auxiliary 'external' fitting basis          ... NOT available
Integral threshold                          ...     2.500000e-11
Primitive cut-off                           ...     2.500000e-12
Primitive pair pre-selection threshold      ...     2.500000e-12

Calculating pre-screening integrals         ... done (  0.2 sec) Dimension = 331
Organizing shell pair data                  ... done (  0.4 sec)
Shell pair information
Total number of shell pairs                 ...     54946
Shell pairs after pre-screening             ...     38493
Total number of primitive shell pairs       ...    171412
Primitive shell pairs kept                  ...     79235
          la=0 lb=0:   9219 shell pairs
          la=1 lb=0:  10919 shell pairs
          la=1 lb=1:   3206 shell pairs
          la=2 lb=0:   5621 shell pairs
          la=2 lb=1:   3361 shell pairs
          la=2 lb=2:    892 shell pairs
          la=3 lb=0:   2642 shell pairs
          la=3 lb=1:   1604 shell pairs
          la=3 lb=2:    820 shell pairs
          la=3 lb=3:    209 shell pairs

Calculating one electron integrals          ... done (  0.2 sec)
Calculating RI/J V-Matrix + Cholesky decomp.... done (  0.2 sec)
Calculating RI/C V-Matrix + Cholesky decomp.... done (  0.3 sec)
Calculating Nuclear repulsion               ... done (  0.0 sec) ENN=   1988.929685490817 Eh

SHARK setup successfully completed in   2.3 seconds

Maximum memory used throughout the entire GTOINT-calculation: 75.7 MB


           ************************************************************
           *        Program running with 4 parallel MPI-processes     *
           *              working on a common directory               *
           ************************************************************
-------------------------------------------------------------------------------
                                 ORCA SCF
-------------------------------------------------------------------------------

------------
SCF SETTINGS
------------
Hamiltonian:
 Density Functional     Method          .... DFT(GTOs)
 Exchange Functional    Exchange        .... LC-PBE
 Correlation Functional Correlation     .... P86
 LDA part of GGA corr.  LDAOpt          .... VWN-5
 Gradients option       PostSCFGGA      .... off
 Hybrid DFT is turned on
   Fraction HF Exchange ScalHFX         ....  0.700000
   Scaling of DF-GGA-X  ScalDFX         ....  0.000000
   Scaling of DF-GGA-C  ScalDFC         ....  0.680000
   Scaling of DF-LDA-C  ScalLDAC        ....  0.680000
   Perturbative correction              ....  0.480000
   Density functional embedding theory  .... OFF
 Long-range corrected/Screened/Range-Separated Hybrid DFT is turned on
   Amount of maximum screened exact exchange              ....  0.300000
   Range separation parameter mu (erf(mu*r12)/r12)        ....  0.180000
 RI-approximation to the Coulomb term is turned on
   Number of AuxJ basis functions       .... 1379
   RIJ-COSX (HFX calculated with COS-X)).... on


General Settings:
 Integral files         IntName         .... NCE_1_M06L_def2TZVP_coords
 Hartree-Fock type      HFTyp           .... RHF
 Total Charge           Charge          ....    0
 Multiplicity           Mult            ....    1
 Number of Electrons    NEL             ....  168
 Basis Dimension        Dim             ....  859
 Nuclear Repulsion      ENuc            ....   1988.9296854908 Eh

Convergence Acceleration:
 DIIS                   CNVDIIS         .... on
   Start iteration      DIISMaxIt       ....    12
   Startup error        DIISStart       ....  0.200000
   # of expansion vecs  DIISMaxEq       ....     5
   Bias factor          DIISBfac        ....   1.050
   Max. coefficient     DIISMaxC        ....  10.000
 Trust-Rad. Augm. Hess. CNVTRAH         .... auto
   Auto Start mean grad. ratio tolernc. ....  1.125000
   Auto Start start iteration           ....    20
   Auto Start num. interpolation iter.  ....    10
   Max. Number of Micro iterations      ....    16
   Max. Number of Macro iterations      .... Maxiter - #DIIS iter
   Number of Davidson start vectors     ....     2
   Converg. threshold I  (grad. norm)   ....   1.000e-05
   Converg. threshold II (energy diff.) ....   1.000e-08
   Grad. Scal. Fac. for Micro threshold ....   0.100
   Minimum threshold for Micro iter.    ....   0.010
   NR start threshold (gradient norm)   ....   0.001
   Initial trust radius                 ....   0.400
   Minimum AH scaling param. (alpha)    ....   1.000
   Maximum AH scaling param. (alpha)    .... 1000.000
   Orbital update algorithm             .... Taylor
   White noise on init. David. guess    .... on
   Maximum white noise                  ....   0.010
   Quad. conv. algorithm                .... NR
 SOSCF                  CNVSOSCF        .... on
   Start iteration      SOSCFMaxIt      ....   150
   Startup grad/error   SOSCFStart      ....  0.003300
 Level Shifting         CNVShift        .... on
   Level shift para.    LevelShift      ....    0.2500
   Turn off err/grad.   ShiftErr        ....    0.0010
 Zerner damping         CNVZerner       .... off
 Static damping         CNVDamp         .... on
   Fraction old density DampFac         ....    0.7000
   Max. Damping (<1)    DampMax         ....    0.9800
   Min. Damping (>=0)   DampMin         ....    0.0000
   Turn off err/grad.   DampErr         ....    0.1000
 Fernandez-Rico         CNVRico         .... off

SCF Procedure:
 Maximum # iterations   MaxIter         ....   125
 SCF integral mode      SCFMode         .... Direct
   Integral package                     .... SHARK and LIBINT hybrid scheme
 Reset frequency        DirectResetFreq ....    20
 Integral Threshold     Thresh          ....  2.500e-11 Eh
 Primitive CutOff       TCut            ....  2.500e-12 Eh

Convergence Tolerance:
 Convergence Check Mode ConvCheckMode   .... Total+1el-Energy
 Convergence forced     ConvForced      .... 1
 Energy Change          TolE            ....  1.000e-08 Eh
 1-El. energy change                    ....  1.000e-05 Eh
 Orbital Gradient       TolG            ....  1.000e-05
 Orbital Rotation angle TolX            ....  1.000e-05
 DIIS Error             TolErr          ....  5.000e-07


Diagonalization of the overlap matrix:
Smallest eigenvalue                        ... 2.651e-06
Time for diagonalization                   ...    0.202 sec
Threshold for overlap eigenvalues          ... 1.000e-08
Number of eigenvalues below threshold      ... 0
Time for construction of square roots      ...    0.136 sec
Total time needed                          ...    0.341 sec

Time for model grid setup =    0.696 sec

------------------------------
INITIAL GUESS: MODEL POTENTIAL
------------------------------
Loading Hartree-Fock densities                     ... done
Calculating cut-offs                               ... done
Initializing the effective Hamiltonian             ... done
Setting up the integral package (SHARK)            ... done
Starting the Coulomb interaction                   ... done (   1.4 sec)
Reading the grid                                   ... done
Mapping shells                                     ... done
Starting the XC term evaluation                    ... done (   0.8 sec)
  promolecular density results
     # of electrons  =    168.006293716
     EX              =   -132.809819063
     EC              =     -2.752446940
     EX+EC           =   -135.562266003
Transforming the Hamiltonian                       ... done (   0.2 sec)
Diagonalizing the Hamiltonian                      ... done (   0.2 sec)
Back transforming the eigenvectors                 ... done (   0.1 sec)
Now organizing SCF variables                       ... done
                      ------------------
                      INITIAL GUESS DONE (   3.4 sec)
                      ------------------
-------------------
DFT GRID GENERATION
-------------------

General Integration Accuracy     IntAcc      ... 4.388
Radial Grid Type                 RadialGrid  ... OptM3 with GC (2021)
Angular Grid (max. ang.)         AngularGrid ... 4 (Lebedev-302)
Angular grid pruning method      GridPruning ... 4 (adaptive)
Weight generation scheme         WeightScheme... Becke
Basis function cutoff            BFCut       ... 1.0000e-11
Integration weight cutoff        WCut        ... 1.0000e-14
Angular grids for H and He will be reduced by one unit
Partially contracted basis set               ... off
Rotationally invariant grid construction     ... off

Total number of grid points                  ...   193523
Total number of batches                      ...     3043
Average number of points per batch           ...       63
Average number of grid points per atom       ...     4962
Time for grid setup =    2.266 sec

--------------------
COSX GRID GENERATION
--------------------

GRIDX 1
-------
General Integration Accuracy     IntAcc      ... 3.816
Radial Grid Type                 RadialGrid  ... OptM3 with GC (2021)
Angular Grid (max. ang.)         AngularGrid ... 1 (Lebedev-50)
Angular grid pruning method      GridPruning ... 4 (adaptive)
Weight generation scheme         WeightScheme... Becke
Basis function cutoff            BFCut       ... 1.0000e-11
Integration weight cutoff        WCut        ... 1.0000e-14
Angular grids for H and He will be reduced by one unit
Partially contracted basis set               ... on
Rotationally invariant grid construction     ... off

Total number of grid points                  ...    24576
Total number of batches                      ...      403
Average number of points per batch           ...       60
Average number of grid points per atom       ...      630
UseSFitting                                  ... on

GRIDX 2
-------
General Integration Accuracy     IntAcc      ... 4.020
Radial Grid Type                 RadialGrid  ... OptM3 with GC (2021)
Angular Grid (max. ang.)         AngularGrid ... 2 (Lebedev-110)
Angular grid pruning method      GridPruning ... 4 (adaptive)
Weight generation scheme         WeightScheme... Becke
Basis function cutoff            BFCut       ... 1.0000e-11
Integration weight cutoff        WCut        ... 1.0000e-14
Angular grids for H and He will be reduced by one unit
Partially contracted basis set               ... on
Rotationally invariant grid construction     ... off

Total number of grid points                  ...    54060
Total number of batches                      ...      865
Average number of points per batch           ...       62
Average number of grid points per atom       ...     1386
UseSFitting                                  ... on

GRIDX 3
-------
General Integration Accuracy     IntAcc      ... 4.338
Radial Grid Type                 RadialGrid  ... OptM3 with GC (2021)
Angular Grid (max. ang.)         AngularGrid ... 3 (Lebedev-194)
Angular grid pruning method      GridPruning ... 4 (adaptive)
Weight generation scheme         WeightScheme... Becke
Basis function cutoff            BFCut       ... 1.0000e-11
Integration weight cutoff        WCut        ... 1.0000e-14
Angular grids for H and He will be reduced by one unit
Partially contracted basis set               ... on
Rotationally invariant grid construction     ... off

Total number of grid points                  ...   118402
Total number of batches                      ...     1869
Average number of points per batch           ...       63
Average number of grid points per atom       ...     3036
UseSFitting                                  ... on

Time for X-Grid setup             =    4.614 sec


--------------------
CPCM SOLVATION MODEL
--------------------
CPCM parameters:
  Epsilon                                         ...      35.6880
  Refrac                                          ...       1.3442
  Rsolv                                           ...       1.3000
  Surface type                                    ... GAUSSIAN VDW
  Epsilon function type                           ...         CPCM
Solvent:                                     ... ACETONITRILE
SMD-CDS solvent descriptors:
  Soln                                       ...    1.3442
  Soln25                                     ...    1.3416
  Sola                                       ...    0.0700
  Solb                                       ...    0.3200
  Solg                                       ...   41.2500
  Solc                                       ...    0.0000
  Solh                                       ...    0.0000
Radii:
 Radius for C  used is    3.4960 Bohr (=   1.8500 Ang.)
 Radius for H  used is    2.2677 Bohr (=   1.2000 Ang.)
 Radius for O  used is    4.0969 Bohr (=   2.1680 Ang.)
Calculating surface                               ...        done! (  0.0s)
GEPOL surface points                              ...         2134
GEPOL Volume                                      ...    2264.3160
GEPOL Surface-area                                ...    1179.5978
Calculating surface distance matrix               ...        done! (  0.0s)
Performing Cholesky decomposition & store         ...        done! (  0.3s)
Overall time for CPCM initialization              ...                 0.3s
--------------
SCF ITERATIONS
--------------
ITER       Energy         Delta-E        Max-DP      RMS-DP      [F,P]     Damp
               ***  Starting incremental Fock matrix formation  ***
  0  -1032.2665350805   0.000000000000 0.04792536  0.00064234  0.2691457 0.7000
  1  -1032.4765434876  -0.210008407066 0.04781119  0.00055586  0.1479656 0.7000
                               ***Turning on DIIS***
  2  -1032.5991207028  -0.122577215183 0.09236265  0.00128123  0.0725367 0.0000
  3  -1032.8307725837  -0.231651880930 0.04729710  0.00041419  0.0539129 0.0000
  4  -1032.8477032194  -0.016930635669 0.01110497  0.00012416  0.0149706 0.0000
  5  -1032.8486350159  -0.000931796519 0.01365668  0.00008140  0.0083147 0.0000
                      *** Initiating the SOSCF procedure ***
                           *** Shutting down DIIS ***
                      *** Re-Reading the Fockian *** 
                      *** Removing any level shift *** 
ITER      Energy       Delta-E        Grad      Rot      Max-DP    RMS-DP
  6  -1032.84886922  -0.0002342087  0.001075  0.001075  0.004730  0.000033
               *** Restarting incremental Fock matrix formation ***
  7  -1032.84874728   0.0001219487  0.000576  0.001406  0.028039  0.000250
  8  -1032.84877230  -0.0000250224  0.000310  0.001681  0.009108  0.000081
  9  -1032.84877942  -0.0000071203  0.000100  0.000201  0.007865  0.000067
 10  -1032.84878036  -0.0000009436  0.000043  0.000077  0.000375  0.000005
 11  -1032.84878050  -0.0000001428  0.000022  0.000090  0.000425  0.000004
 12  -1032.84878056  -0.0000000525  0.000010  0.000069  0.000231  0.000002
 13  -1032.84878058  -0.0000000177  0.000005  0.000037  0.000424  0.000004
                  ***Gradient check signals convergence***
              ***Rediagonalizing the Fockian in SOSCF/NRSCF***

               *****************************************************
               *                     SUCCESS                       *
               *           SCF CONVERGED AFTER  14 CYCLES          *
               *****************************************************

Old exchange energy                            =   -103.644079234 Eh
New exchange energy                            =   -103.644178776 Eh
Exchange energy change after final integration =     -0.000099541 Eh
Total energy after final integration           =  -1032.848880144 Eh
Final COS-X integration done in                =   166.369 sec

SMD CDS free energy correction energy :                -5.76887     Kcal/mol
Total Energy after SMD CDS correction =             -1032.858073422 Eh

----------------
TOTAL SCF ENERGY
----------------

Total Energy       :        -1032.85807342 Eh          -28105.49703 eV

Components:
Nuclear Repulsion  :         1988.92968549 Eh           54121.52823 eV
Electronic Energy  :        -3021.78775891 Eh          -82227.02526 eV
One Electron Energy:        -5354.55137850 Eh         -145704.75050 eV
Two Electron Energy:         2332.76361959 Eh           63477.72523 eV
Max COSX asymmetry :            0.00000913 Eh               0.00025 eV
CPCM Dielectric    :           -0.02839575 Eh              -0.77269 eV
SMD CDS (Gcds)     :           -0.00919328 Eh              -0.25016 eV

Virial components:
Potential Energy   :        -2061.56009625 Eh          -56097.90218 eV
Kinetic Energy     :         1028.70202283 Eh           27992.40515 eV
Virial Ratio       :            2.00404009


DFT components:
N(Alpha)           :       84.000092588039 electrons
N(Beta)            :       84.000092588039 electrons
N(Total)           :      168.000185176079 electrons
E(X)               :      -36.708295094269 Eh       
E(C)               :       -4.237556450422 Eh       
E(XC)              :      -40.945851544691 Eh       
DFET-embed. en.    :        0.000000000000 Eh       
CPCM Solvation Model Properties:
Surface-charge          :           -0.05747260
Charge-correction       :            0.00008041 Eh               0.00219 eV
Free-energy (cav+disp)  :           -0.00919328 Eh              -0.25016 eV

---------------
SCF CONVERGENCE
---------------

  Last Energy change         ...   -2.7443e-08  Tolerance :   1.0000e-08
  Last MAX-Density change    ...    2.1094e-15  Tolerance :   1.0000e-07
  Last RMS-Density change    ...    1.4066e-17  Tolerance :   5.0000e-09
  Last Orbital Gradient      ...    1.4162e-06  Tolerance :   1.0000e-05
  Last Orbital Rotation      ...    7.1652e-06  Tolerance :   1.0000e-05

             **** THE GBW FILE WAS UPDATED (NCE_1_M06L_def2TZVP_coords.gbw) ****
             **** DENSITY NCE_1_M06L_def2TZVP_coords.scfp WAS UPDATED ****
             **** ENERGY FILE WAS UPDATED (NCE_1_M06L_def2TZVP_coords.en.tmp) ****
             **** THE GBW FILE WAS UPDATED (NCE_1_M06L_def2TZVP_coords.gbw) ****
             **** DENSITY NCE_1_M06L_def2TZVP_coords.scfp WAS UPDATED ****
----------------
ORBITAL ENERGIES
----------------

  NO   OCC          E(Eh)            E(eV) 
   0   2.0000     -20.126238      -547.6628 
   1   2.0000     -20.047743      -545.5268 
   2   2.0000     -11.023247      -299.9578 
   3   2.0000     -10.947299      -297.8912 
   4   2.0000     -10.911138      -296.9072 
   5   2.0000     -10.903762      -296.7064 
   6   2.0000     -10.900990      -296.6310 
   7   2.0000     -10.892797      -296.4081 
   8   2.0000     -10.890458      -296.3444 
   9   2.0000     -10.890450      -296.3442 
  10   2.0000     -10.881771      -296.1080 
  11   2.0000     -10.877915      -296.0031 
  12   2.0000     -10.875973      -295.9503 
  13   2.0000     -10.875779      -295.9450 
  14   2.0000     -10.875215      -295.9297 
  15   2.0000     -10.874468      -295.9093 
  16   2.0000     -10.872018      -295.8426 
  17   2.0000     -10.871824      -295.8374 
  18   2.0000     -10.870949      -295.8136 
  19   2.0000     -10.867539      -295.7208 
  20   2.0000     -10.865675      -295.6700 
  21   2.0000     -10.865532      -295.6661 
  22   2.0000     -10.864624      -295.6415 
  23   2.0000     -10.864466      -295.6371 
  24   2.0000     -10.863370      -295.6073 
  25   2.0000      -1.398238       -38.0480 
  26   2.0000      -1.299770       -35.3686 
  27   2.0000      -1.140867       -31.0446 
  28   2.0000      -1.108621       -30.1671 
  29   2.0000      -1.096715       -29.8431 
  30   2.0000      -1.074765       -29.2458 
  31   2.0000      -1.030406       -28.0388 
  32   2.0000      -1.000836       -27.2341 
  33   2.0000      -0.978802       -26.6345 
  34   2.0000      -0.970652       -26.4128 
  35   2.0000      -0.964922       -26.2569 
  36   2.0000      -0.962040       -26.1784 
  37   2.0000      -0.929210       -25.2851 
  38   2.0000      -0.873947       -23.7813 
  39   2.0000      -0.843001       -22.9392 
  40   2.0000      -0.827653       -22.5216 
  41   2.0000      -0.806051       -21.9338 
  42   2.0000      -0.795538       -21.6477 
  43   2.0000      -0.789312       -21.4783 
  44   2.0000      -0.753273       -20.4976 
  45   2.0000      -0.746881       -20.3237 
  46   2.0000      -0.731882       -19.9155 
  47   2.0000      -0.692384       -18.8407 
  48   2.0000      -0.688815       -18.7436 
  49   2.0000      -0.667429       -18.1617 
  50   2.0000      -0.648271       -17.6403 
  51   2.0000      -0.645986       -17.5782 
  52   2.0000      -0.636364       -17.3164 
  53   2.0000      -0.625348       -17.0166 
  54   2.0000      -0.614423       -16.7193 
  55   2.0000      -0.612194       -16.6587 
  56   2.0000      -0.609491       -16.5851 
  57   2.0000      -0.597046       -16.2465 
  58   2.0000      -0.585717       -15.9382 
  59   2.0000      -0.582499       -15.8506 
  60   2.0000      -0.572562       -15.5802 
  61   2.0000      -0.565195       -15.3797 
  62   2.0000      -0.563019       -15.3205 
  63   2.0000      -0.544831       -14.8256 
  64   2.0000      -0.543202       -14.7813 
  65   2.0000      -0.535974       -14.5846 
  66   2.0000      -0.534875       -14.5547 
  67   2.0000      -0.505865       -13.7653 
  68   2.0000      -0.504454       -13.7269 
  69   2.0000      -0.495673       -13.4879 
  70   2.0000      -0.492142       -13.3919 
  71   2.0000      -0.489251       -13.3132 
  72   2.0000      -0.477565       -12.9952 
  73   2.0000      -0.475093       -12.9279 
  74   2.0000      -0.460402       -12.5282 
  75   2.0000      -0.459944       -12.5157 
  76   2.0000      -0.439480       -11.9589 
  77   2.0000      -0.408909       -11.1270 
  78   2.0000      -0.381393       -10.3782 
  79   2.0000      -0.353088        -9.6080 
  80   2.0000      -0.346804        -9.4370 
  81   2.0000      -0.342195        -9.3116 
  82   2.0000      -0.337059        -9.1718 
  83   2.0000      -0.299287        -8.1440 
  84   0.0000       0.007268         0.1978 
  85   0.0000       0.021789         0.5929 
  86   0.0000       0.074014         2.0140 
  87   0.0000       0.079942         2.1753 
  88   0.0000       0.083187         2.2636 
  89   0.0000       0.095241         2.5917 
  90   0.0000       0.114256         3.1091 
  91   0.0000       0.133283         3.6268 
  92   0.0000       0.146509         3.9867 
  93   0.0000       0.148434         4.0391 
  94   0.0000       0.151539         4.1236 
  95   0.0000       0.156036         4.2460 
  96   0.0000       0.159938         4.3521 
  97   0.0000       0.171973         4.6796 
  98   0.0000       0.173668         4.7258 
  99   0.0000       0.175475         4.7749 
 100   0.0000       0.186324         5.0701 
 101   0.0000       0.191485         5.2106 
 102   0.0000       0.199356         5.4248 
 103   0.0000       0.202415         5.5080 
 104   0.0000       0.203181         5.5288 
 105   0.0000       0.206615         5.6223 
 106   0.0000       0.217794         5.9265 
 107   0.0000       0.219713         5.9787 
 108   0.0000       0.225115         6.1257 
 109   0.0000       0.231094         6.2884 
 110   0.0000       0.247768         6.7421 
 111   0.0000       0.256143         6.9700 
 112   0.0000       0.256947         6.9919 
 113   0.0000       0.261483         7.1153 
 114   0.0000       0.269757         7.3405 
 115   0.0000       0.276095         7.5129 
 116   0.0000       0.283536         7.7154 
 117   0.0000       0.284746         7.7483 
 118   0.0000       0.286890         7.8067 
 119   0.0000       0.292242         7.9523 
 120   0.0000       0.297741         8.1019 
 121   0.0000       0.298358         8.1187 
 122   0.0000       0.302836         8.2406 
 123   0.0000       0.304414         8.2835 
 124   0.0000       0.309054         8.4098 
 125   0.0000       0.311162         8.4672 
 126   0.0000       0.313698         8.5362 
 127   0.0000       0.318903         8.6778 
 128   0.0000       0.324273         8.8239 
 129   0.0000       0.330513         8.9937 
 130   0.0000       0.333592         9.0775 
 131   0.0000       0.340013         9.2522 
 132   0.0000       0.343287         9.3413 
 133   0.0000       0.344716         9.3802 
 134   0.0000       0.351945         9.5769 
 135   0.0000       0.356594         9.7034 
 136   0.0000       0.357568         9.7299 
 137   0.0000       0.366123         9.9627 
 138   0.0000       0.368194        10.0191 
 139   0.0000       0.369876        10.0648 
 140   0.0000       0.377165        10.2632 
 141   0.0000       0.377877        10.2826 
 142   0.0000       0.382193        10.4000 
 143   0.0000       0.385842        10.4993 
 144   0.0000       0.394652        10.7390 
 145   0.0000       0.395390        10.7591 
 146   0.0000       0.406247        11.0545 
 147   0.0000       0.410535        11.1712 
 148   0.0000       0.412699        11.2301 
 149   0.0000       0.418223        11.3804 
 150   0.0000       0.424819        11.5599 
 151   0.0000       0.434152        11.8139 
 152   0.0000       0.436212        11.8699 
 153   0.0000       0.443625        12.0717 
 154   0.0000       0.447942        12.1891 
 155   0.0000       0.448807        12.2127 
 156   0.0000       0.455196        12.3865 
 157   0.0000       0.456602        12.4248 
 158   0.0000       0.457005        12.4357 
 159   0.0000       0.468820        12.7572 
 160   0.0000       0.472242        12.8504 
 161   0.0000       0.473196        12.8763 
 162   0.0000       0.482022        13.1165 
 163   0.0000       0.484711        13.1897 
 164   0.0000       0.486265        13.2319 
 165   0.0000       0.493423        13.4267 
 166   0.0000       0.500567        13.6211 
 167   0.0000       0.503554        13.7024 
 168   0.0000       0.508212        13.8292 
 169   0.0000       0.508977        13.8500 
 170   0.0000       0.514090        13.9891 
 171   0.0000       0.515985        14.0407 
 172   0.0000       0.519477        14.1357 
 173   0.0000       0.520989        14.1768 
 174   0.0000       0.525760        14.3067 
 175   0.0000       0.531884        14.4733 
 176   0.0000       0.532165        14.4810 
 177   0.0000       0.536684        14.6039 
 178   0.0000       0.539302        14.6752 
 179   0.0000       0.545448        14.8424 
 180   0.0000       0.548976        14.9384 
 181   0.0000       0.553856        15.0712 
 182   0.0000       0.557727        15.1765 
 183   0.0000       0.567934        15.4543 
 184   0.0000       0.570123        15.5138 
 185   0.0000       0.574943        15.6450 
 186   0.0000       0.578349        15.7377 
 187   0.0000       0.587229        15.9793 
 188   0.0000       0.588448        16.0125 
 189   0.0000       0.592937        16.1346 
 190   0.0000       0.607255        16.5242 
 191   0.0000       0.609362        16.5816 
 192   0.0000       0.611275        16.6337 
 193   0.0000       0.617162        16.7938 
 194   0.0000       0.619082        16.8461 
 195   0.0000       0.624845        17.0029 
 196   0.0000       0.625946        17.0328 
 197   0.0000       0.632343        17.2069 
 198   0.0000       0.633329        17.2338 
 199   0.0000       0.636890        17.3306 
 200   0.0000       0.641512        17.4564 
 201   0.0000       0.646182        17.5835 
 202   0.0000       0.652416        17.7531 
 203   0.0000       0.659426        17.9439 
 204   0.0000       0.671050        18.2602 
 205   0.0000       0.683636        18.6027 
 206   0.0000       0.685548        18.6547 
 207   0.0000       0.688912        18.7463 
 208   0.0000       0.696319        18.9478 
 209   0.0000       0.705369        19.1941 
 210   0.0000       0.718914        19.5626 
 211   0.0000       0.723306        19.6821 
 212   0.0000       0.729585        19.8530 
 213   0.0000       0.739220        20.1152 
 214   0.0000       0.752211        20.4687 
 215   0.0000       0.756546        20.5867 
 216   0.0000       0.759640        20.6708 
 217   0.0000       0.764648        20.8071 
 218   0.0000       0.770663        20.9708 
 219   0.0000       0.774215        21.0675 
 220   0.0000       0.778950        21.1963 
 221   0.0000       0.779882        21.2217 
 222   0.0000       0.791281        21.5318 
 223   0.0000       0.798039        21.7157 
 224   0.0000       0.798933        21.7401 
 225   0.0000       0.802101        21.8263 
 226   0.0000       0.804609        21.8945 
 227   0.0000       0.804755        21.8985 
 228   0.0000       0.813729        22.1427 
 229   0.0000       0.820260        22.3204 
 230   0.0000       0.824008        22.4224 
 231   0.0000       0.826290        22.4845 
 232   0.0000       0.835259        22.7285 
 233   0.0000       0.844386        22.9769 
 234   0.0000       0.847613        23.0647 
 235   0.0000       0.850484        23.1428 
 236   0.0000       0.855592        23.2818 
 237   0.0000       0.858349        23.3569 
 238   0.0000       0.862273        23.4637 
 239   0.0000       0.864392        23.5213 
 240   0.0000       0.868373        23.6296 
 241   0.0000       0.874195        23.7881 
 242   0.0000       0.876554        23.8522 
 243   0.0000       0.887444        24.1486 
 244   0.0000       0.889007        24.1911 
 245   0.0000       0.894623        24.3439 
 246   0.0000       0.895271        24.3616 
 247   0.0000       0.905869        24.6500 
 248   0.0000       0.908282        24.7156 
 249   0.0000       0.915600        24.9147 
 250   0.0000       0.923775        25.1372 
 251   0.0000       0.927633        25.2422 
 252   0.0000       0.930138        25.3103 
 253   0.0000       0.936671        25.4881 
 254   0.0000       0.940215        25.5846 
 255   0.0000       0.943227        25.6665 
 256   0.0000       0.949207        25.8292 
 257   0.0000       0.959488        26.1090 
 258   0.0000       0.966164        26.2906 
 259   0.0000       0.974297        26.5120 
 260   0.0000       0.983140        26.7526 
 261   0.0000       0.984938        26.8015 
 262   0.0000       0.992731        27.0136 
 263   0.0000       0.996563        27.1178 
 264   0.0000       1.000161        27.2158 
 265   0.0000       1.003447        27.3052 
 266   0.0000       1.009282        27.4639 
 267   0.0000       1.010946        27.5092 
 268   0.0000       1.014964        27.6186 
 269   0.0000       1.021372        27.7929 
 270   0.0000       1.035176        28.1686 
 271   0.0000       1.039100        28.2754 
 272   0.0000       1.044994        28.4357 
 273   0.0000       1.047900        28.5148 
 274   0.0000       1.051393        28.6099 
 275   0.0000       1.058387        28.8002 
 276   0.0000       1.072172        29.1753 
 277   0.0000       1.078161        29.3383 
 278   0.0000       1.091248        29.6944 
 279   0.0000       1.092971        29.7413 
 280   0.0000       1.100241        29.9391 
 281   0.0000       1.102439        29.9989 
 282   0.0000       1.125690        30.6316 
 283   0.0000       1.139703        31.0129 
 284   0.0000       1.142444        31.0875 
 285   0.0000       1.148808        31.2607 
 286   0.0000       1.159971        31.5644 
 287   0.0000       1.168177        31.7877 
 288   0.0000       1.169436        31.8220 
 289   0.0000       1.182637        32.1812 
 290   0.0000       1.184238        32.2247 
 291   0.0000       1.198185        32.6043 
 292   0.0000       1.214081        33.0368 
 293   0.0000       1.222071        33.2542 
 294   0.0000       1.229502        33.4564 
 295   0.0000       1.232283        33.5321 
 296   0.0000       1.243226        33.8299 
 297   0.0000       1.253333        34.1049 
 298   0.0000       1.270385        34.5689 
 299   0.0000       1.275914        34.7194 
 300   0.0000       1.281027        34.8585 
 301   0.0000       1.283291        34.9201 
 302   0.0000       1.285902        34.9912 
 303   0.0000       1.293540        35.1990 
 304   0.0000       1.307442        35.5773 
 305   0.0000       1.309505        35.6335 
 306   0.0000       1.324647        36.0455 
 307   0.0000       1.333242        36.2794 
 308   0.0000       1.336403        36.3654 
 309   0.0000       1.346615        36.6433 
 310   0.0000       1.351153        36.7668 
 311   0.0000       1.356200        36.9041 
 312   0.0000       1.374550        37.4034 
 313   0.0000       1.380526        37.5660 
 314   0.0000       1.384795        37.6822 
 315   0.0000       1.390149        37.8279 
 316   0.0000       1.392363        37.8881 
 317   0.0000       1.400754        38.1165 
 318   0.0000       1.406540        38.2739 
 319   0.0000       1.414891        38.5011 
 320   0.0000       1.417584        38.5744 
 321   0.0000       1.424945        38.7747 
 322   0.0000       1.426813        38.8256 
 323   0.0000       1.437051        39.1042 
 324   0.0000       1.444136        39.2969 
 325   0.0000       1.452223        39.5170 
 326   0.0000       1.465749        39.8851 
 327   0.0000       1.469060        39.9752 
 328   0.0000       1.470538        40.0154 
 329   0.0000       1.489566        40.5331 
 330   0.0000       1.495188        40.6861 
 331   0.0000       1.501509        40.8581 
 332   0.0000       1.510289        41.0971 
 333   0.0000       1.523853        41.4662 
 334   0.0000       1.527085        41.5541 
 335   0.0000       1.541997        41.9599 
 336   0.0000       1.543981        42.0139 
 337   0.0000       1.556429        42.3526 
 338   0.0000       1.567720        42.6598 
 339   0.0000       1.571794        42.7707 
 340   0.0000       1.591497        43.3068 
 341   0.0000       1.595853        43.4254 
 342   0.0000       1.596616        43.4461 
 343   0.0000       1.600235        43.5446 
 344   0.0000       1.606884        43.7255 
 345   0.0000       1.616831        43.9962 
 346   0.0000       1.619323        44.0640 
 347   0.0000       1.631921        44.4068 
 348   0.0000       1.638739        44.5924 
 349   0.0000       1.641350        44.6634 
 350   0.0000       1.657182        45.0942 
 351   0.0000       1.659099        45.1464 
 352   0.0000       1.661592        45.2142 
 353   0.0000       1.673034        45.5256 
 354   0.0000       1.680396        45.7259 
 355   0.0000       1.682150        45.7736 
 356   0.0000       1.687905        45.9302 
 357   0.0000       1.694826        46.1186 
 358   0.0000       1.698773        46.2260 
 359   0.0000       1.701285        46.2943 
 360   0.0000       1.711929        46.5840 
 361   0.0000       1.718492        46.7626 
 362   0.0000       1.719591        46.7925 
 363   0.0000       1.721930        46.8561 
 364   0.0000       1.738663        47.3114 
 365   0.0000       1.747820        47.5606 
 366   0.0000       1.752833        47.6970 
 367   0.0000       1.768065        48.1115 
 368   0.0000       1.770862        48.1876 
 369   0.0000       1.773610        48.2624 
 370   0.0000       1.789589        48.6972 
 371   0.0000       1.794146        48.8212 
 372   0.0000       1.797111        48.9019 
 373   0.0000       1.800579        48.9962 
 374   0.0000       1.804634        49.1066 
 375   0.0000       1.817162        49.4475 
 376   0.0000       1.833744        49.8987 
 377   0.0000       1.841733        50.1161 
 378   0.0000       1.843462        50.1631 
 379   0.0000       1.854389        50.4605 
 380   0.0000       1.857262        50.5387 
 381   0.0000       1.868771        50.8518 
 382   0.0000       1.874161        50.9985 
 383   0.0000       1.875799        51.0431 
 384   0.0000       1.880304        51.1657 
 385   0.0000       1.886906        51.3453 
 386   0.0000       1.893813        51.5333 
 387   0.0000       1.895964        51.5918 
 388   0.0000       1.902324        51.7649 
 389   0.0000       1.906769        51.8858 
 390   0.0000       1.915608        52.1264 
 391   0.0000       1.922586        52.3162 
 392   0.0000       1.928263        52.4707 
 393   0.0000       1.928475        52.4765 
 394   0.0000       1.934069        52.6287 
 395   0.0000       1.946250        52.9602 
 396   0.0000       1.952783        53.1379 
 397   0.0000       1.954806        53.1930 
 398   0.0000       1.955976        53.2248 
 399   0.0000       1.967473        53.5377 
 400   0.0000       1.973651        53.7058 
 401   0.0000       1.997738        54.3612 
 402   0.0000       2.007324        54.6221 
 403   0.0000       2.019244        54.9464 
 404   0.0000       2.026385        55.1407 
 405   0.0000       2.043711        55.6122 
 406   0.0000       2.050154        55.7875 
 407   0.0000       2.052065        55.8395 
 408   0.0000       2.065454        56.2039 
 409   0.0000       2.073387        56.4197 
 410   0.0000       2.085497        56.7493 
 411   0.0000       2.098476        57.1024 
 412   0.0000       2.110236        57.4224 
 413   0.0000       2.114213        57.5306 
 414   0.0000       2.125868        57.8478 
 415   0.0000       2.137206        58.1563 
 416   0.0000       2.140525        58.2466 
 417   0.0000       2.150313        58.5130 
 418   0.0000       2.168200        58.9997 
 419   0.0000       2.171294        59.0839 
 420   0.0000       2.180822        59.3432 
 421   0.0000       2.191932        59.6455 
 422   0.0000       2.195974        59.7555 
 423   0.0000       2.206841        60.0512 
 424   0.0000       2.214098        60.2487 
 425   0.0000       2.228901        60.6515 
 426   0.0000       2.235071        60.8194 
 427   0.0000       2.248065        61.1730 
 428   0.0000       2.257187        61.4212 
 429   0.0000       2.276229        61.9394 
 430   0.0000       2.287312        62.2409 
 431   0.0000       2.304798        62.7167 
 432   0.0000       2.306996        62.7765 
 433   0.0000       2.313840        62.9628 
 434   0.0000       2.315905        63.0190 
 435   0.0000       2.323426        63.2236 
 436   0.0000       2.330581        63.4183 
 437   0.0000       2.342335        63.7382 
 438   0.0000       2.350602        63.9631 
 439   0.0000       2.358474        64.1773 
 440   0.0000       2.363152        64.3046 
 441   0.0000       2.367669        64.4275 
 442   0.0000       2.368479        64.4496 
 443   0.0000       2.377492        64.6949 
 444   0.0000       2.385172        64.9038 
 445   0.0000       2.401751        65.3550 
 446   0.0000       2.406433        65.4824 
 447   0.0000       2.411795        65.6283 
 448   0.0000       2.418903        65.8217 
 449   0.0000       2.429519        66.1106 
 450   0.0000       2.433640        66.2227 
 451   0.0000       2.446692        66.5779 
 452   0.0000       2.458864        66.9091 
 453   0.0000       2.463403        67.0326 
 454   0.0000       2.471913        67.2642 
 455   0.0000       2.477690        67.4214 
 456   0.0000       2.491661        67.8015 
 457   0.0000       2.501591        68.0718 
 458   0.0000       2.507656        68.2368 
 459   0.0000       2.513887        68.4063 
 460   0.0000       2.529176        68.8224 
 461   0.0000       2.548054        69.3361 
 462   0.0000       2.553441        69.4826 
 463   0.0000       2.562572        69.7311 
 464   0.0000       2.576465        70.1092 
 465   0.0000       2.582284        70.2675 
 466   0.0000       2.585408        70.3525 
 467   0.0000       2.597931        70.6933 
 468   0.0000       2.630976        71.5925 
 469   0.0000       2.634547        71.6897 
 470   0.0000       2.637086        71.7588 
 471   0.0000       2.666483        72.5587 
 472   0.0000       2.677663        72.8629 
 473   0.0000       2.684826        73.0578 
 474   0.0000       2.695572        73.3503 
 475   0.0000       2.701526        73.5123 
 476   0.0000       2.714889        73.8759 
 477   0.0000       2.716249        73.9129 
 478   0.0000       2.730883        74.3111 
 479   0.0000       2.737282        74.4852 
 480   0.0000       2.740599        74.5755 
 481   0.0000       2.750694        74.8502 
 482   0.0000       2.753977        74.9395 
 483   0.0000       2.766722        75.2863 
 484   0.0000       2.778020        75.5938 
 485   0.0000       2.791613        75.9637 
 486   0.0000       2.796537        76.0976 
 487   0.0000       2.801518        76.2332 
 488   0.0000       2.814298        76.5810 
 489   0.0000       2.827983        76.9533 
 490   0.0000       2.830079        77.0104 
 491   0.0000       2.832667        77.0808 
 492   0.0000       2.839445        77.2652 
 493   0.0000       2.846613        77.4603 
 494   0.0000       2.855150        77.6926 
 495   0.0000       2.857933        77.7683 
 496   0.0000       2.860094        77.8271 
 497   0.0000       2.869909        78.0942 
 498   0.0000       2.873910        78.2031 
 499   0.0000       2.877931        78.3125 
 500   0.0000       2.883975        78.4770 
 501   0.0000       2.885845        78.5278 
 502   0.0000       2.889543        78.6285 
 503   0.0000       2.896997        78.8313 
 504   0.0000       2.899560        78.9010 
 505   0.0000       2.911867        79.2359 
 506   0.0000       2.915269        79.3285 
 507   0.0000       2.919050        79.4314 
 508   0.0000       2.920240        79.4638 
 509   0.0000       2.926938        79.6460 
 510   0.0000       2.936954        79.9186 
 511   0.0000       2.938815        79.9692 
 512   0.0000       2.946632        80.1819 
 513   0.0000       2.947112        80.1950 
 514   0.0000       2.958031        80.4921 
 515   0.0000       2.959944        80.5442 
 516   0.0000       2.971579        80.8608 
 517   0.0000       2.974094        80.9292 
 518   0.0000       2.976885        81.0052 
 519   0.0000       2.980883        81.1140 
 520   0.0000       2.992391        81.4271 
 521   0.0000       3.001737        81.6814 
 522   0.0000       3.004984        81.7698 
 523   0.0000       3.006878        81.8213 
 524   0.0000       3.008192        81.8571 
 525   0.0000       3.020002        82.1784 
 526   0.0000       3.023618        82.2768 
 527   0.0000       3.026022        82.3422 
 528   0.0000       3.033241        82.5387 
 529   0.0000       3.043519        82.8184 
 530   0.0000       3.044656        82.8493 
 531   0.0000       3.054229        83.1098 
 532   0.0000       3.059007        83.2398 
 533   0.0000       3.064774        83.3967 
 534   0.0000       3.065933        83.4283 
 535   0.0000       3.075148        83.6790 
 536   0.0000       3.076128        83.7057 
 537   0.0000       3.084134        83.9236 
 538   0.0000       3.092258        84.1446 
 539   0.0000       3.094720        84.2116 
 540   0.0000       3.100809        84.3773 
 541   0.0000       3.110366        84.6374 
 542   0.0000       3.111132        84.6582 
 543   0.0000       3.120767        84.9204 
 544   0.0000       3.122798        84.9757 
 545   0.0000       3.131932        85.2242 
 546   0.0000       3.138892        85.4136 
 547   0.0000       3.143272        85.5328 
 548   0.0000       3.146551        85.6220 
 549   0.0000       3.150103        85.7187 
 550   0.0000       3.161699        86.0342 
 551   0.0000       3.171298        86.2954 
 552   0.0000       3.175623        86.4131 
 553   0.0000       3.184125        86.6444 
 554   0.0000       3.187608        86.7392 
 555   0.0000       3.191932        86.8569 
 556   0.0000       3.193962        86.9121 
 557   0.0000       3.203978        87.1847 
 558   0.0000       3.216859        87.5352 
 559   0.0000       3.225596        87.7729 
 560   0.0000       3.234898        88.0261 
 561   0.0000       3.237338        88.0925 
 562   0.0000       3.238917        88.1354 
 563   0.0000       3.249258        88.4168 
 564   0.0000       3.259700        88.7010 
 565   0.0000       3.268278        88.9344 
 566   0.0000       3.270013        88.9816 
 567   0.0000       3.281552        89.2956 
 568   0.0000       3.296093        89.6912 
 569   0.0000       3.302396        89.8628 
 570   0.0000       3.305235        89.9400 
 571   0.0000       3.306145        89.9648 
 572   0.0000       3.316040        90.2340 
 573   0.0000       3.319236        90.3210 
 574   0.0000       3.326915        90.5300 
 575   0.0000       3.334010        90.7230 
 576   0.0000       3.336719        90.7968 
 577   0.0000       3.341395        90.9240 
 578   0.0000       3.353587        91.2557 
 579   0.0000       3.360659        91.4482 
 580   0.0000       3.362110        91.4877 
 581   0.0000       3.364225        91.5452 
 582   0.0000       3.367485        91.6339 
 583   0.0000       3.370407        91.7135 
 584   0.0000       3.381447        92.0139 
 585   0.0000       3.385287        92.1184 
 586   0.0000       3.393851        92.3514 
 587   0.0000       3.401361        92.5557 
 588   0.0000       3.402314        92.5817 
 589   0.0000       3.413309        92.8809 
 590   0.0000       3.417427        92.9929 
 591   0.0000       3.423189        93.1497 
 592   0.0000       3.428926        93.3058 
 593   0.0000       3.433174        93.4214 
 594   0.0000       3.435931        93.4964 
 595   0.0000       3.446385        93.7809 
 596   0.0000       3.453653        93.9787 
 597   0.0000       3.456906        94.0672 
 598   0.0000       3.466664        94.3327 
 599   0.0000       3.468474        94.3820 
 600   0.0000       3.485131        94.8352 
 601   0.0000       3.493002        95.0494 
 602   0.0000       3.500530        95.2543 
 603   0.0000       3.503539        95.3361 
 604   0.0000       3.507235        95.4367 
 605   0.0000       3.509980        95.5114 
 606   0.0000       3.516523        95.6895 
 607   0.0000       3.518776        95.7508 
 608   0.0000       3.533389        96.1484 
 609   0.0000       3.534042        96.1662 
 610   0.0000       3.539128        96.3046 
 611   0.0000       3.544023        96.4378 
 612   0.0000       3.550511        96.6143 
 613   0.0000       3.555272        96.7439 
 614   0.0000       3.559331        96.8543 
 615   0.0000       3.567363        97.0729 
 616   0.0000       3.569045        97.1186 
 617   0.0000       3.574643        97.2710 
 618   0.0000       3.583281        97.5060 
 619   0.0000       3.595316        97.8335 
 620   0.0000       3.598630        97.9237 
 621   0.0000       3.601283        97.9959 
 622   0.0000       3.606411        98.1354 
 623   0.0000       3.613569        98.3302 
 624   0.0000       3.627131        98.6992 
 625   0.0000       3.631515        98.8186 
 626   0.0000       3.632023        98.8324 
 627   0.0000       3.637603        98.9842 
 628   0.0000       3.642521        99.1180 
 629   0.0000       3.651681        99.3673 
 630   0.0000       3.653775        99.4243 
 631   0.0000       3.661987        99.6477 
 632   0.0000       3.666005        99.7571 
 633   0.0000       3.671644        99.9105 
 634   0.0000       3.681366       100.1751 
 635   0.0000       3.685861       100.2974 
 636   0.0000       3.690407       100.4211 
 637   0.0000       3.692778       100.4856 
 638   0.0000       3.694529       100.5332 
 639   0.0000       3.708064       100.9015 
 640   0.0000       3.712722       101.0283 
 641   0.0000       3.715286       101.0981 
 642   0.0000       3.723104       101.3108 
 643   0.0000       3.727716       101.4363 
 644   0.0000       3.733276       101.5876 
 645   0.0000       3.741682       101.8163 
 646   0.0000       3.744018       101.8799 
 647   0.0000       3.756494       102.2194 
 648   0.0000       3.760802       102.3366 
[...]
    77a ->  85a  :     0.161008 
    77a ->  89a  :     0.011894 
    78a ->  84a  :     0.072890 
    78a ->  85a  :     0.110349 
    78a ->  90a  :     0.019075 
    79a ->  84a  :     0.073742 
    79a ->  90a  :     0.010112 
    80a ->  84a  :     0.075174 
    80a ->  85a  :     0.019096 
    80a ->  86a  :     0.041501 
    80a ->  88a  :     0.013260 
    80a ->  90a  :     0.012689 
    81a ->  85a  :     0.017943 
    81a ->  87a  :     0.010734 
    82a ->  86a  :     0.041446 
    82a ->  88a  :     0.011579 
    82a ->  89a  :     0.058298 
    82a ->  90a  :     0.026606 
    82a ->  93a  :     0.018166 
    83a ->  86a  :     0.020463 
    83a ->  88a  :     0.014449 
    83a ->  89a  :     0.016025 
    83a ->  93a  :     0.020444 

STATE 16:  E=   0.218908 au      5.957 eV    48044.7 cm**-1 <S**2> =   0.000000
    76a ->  84a  :     0.036811 
    77a ->  84a  :     0.015517 
    79a ->  87a  :     0.229442 
    80a ->  87a  :     0.038152 
    81a ->  85a  :     0.466673 
    81a ->  86a  :     0.047034 
    81a ->  88a  :     0.016693 
    82a ->  87a  :     0.012207 

STATE 17:  E=   0.223639 au      6.086 eV    49083.0 cm**-1 <S**2> =   0.000000
    77a ->  84a  :     0.267306 
    77a ->  85a  :     0.026698 
    78a ->  85a  :     0.018871 
    78a ->  86a  :     0.010993 
    78a ->  90a  :     0.022984 
    79a ->  85a  :     0.010286 
    79a ->  86a  :     0.021034 
    79a ->  88a  :     0.060766 
    80a ->  84a  :     0.019644 
    80a ->  85a  :     0.015132 
    80a ->  86a  :     0.032401 
    80a ->  89a  :     0.022849 
    81a ->  85a  :     0.014975 
    81a ->  87a  :     0.049232 
    82a ->  89a  :     0.032263 
    83a ->  86a  :     0.033480 
    83a ->  88a  :     0.106756 
    83a ->  89a  :     0.108472 
    83a ->  90a  :     0.011883 

STATE 18:  E=   0.224432 au      6.107 eV    49257.0 cm**-1 <S**2> =   0.000000
    77a ->  84a  :     0.012203 
    78a ->  84a  :     0.291683 
    78a ->  85a  :     0.098856 
    79a ->  85a  :     0.053875 
    79a ->  86a  :     0.021318 
    79a ->  88a  :     0.066422 
    80a ->  84a  :     0.010310 
    80a ->  86a  :     0.072114 
    80a ->  88a  :     0.022034 
    80a ->  89a  :     0.017652 
    81a ->  87a  :     0.062133 
    83a ->  84a  :     0.014092 
    83a ->  86a  :     0.021933 
    83a ->  87a  :     0.021807 
    83a ->  89a  :     0.021470 
    83a ->  90a  :     0.081366 

STATE 19:  E=   0.226926 au      6.175 eV    49804.5 cm**-1 <S**2> =   0.000000
    77a ->  87a  :     0.046459 
    78a ->  84a  :     0.010176 
    81a ->  85a  :     0.043616 
    81a ->  88a  :     0.016614 
    82a ->  87a  :     0.061322 
    83a ->  87a  :     0.702614 

STATE 20:  E=   0.240307 au      6.539 eV    52741.4 cm**-1 <S**2> =   0.000000
    77a ->  84a  :     0.016272 
    77a ->  85a  :     0.060162 
    78a ->  85a  :     0.122816 
    79a ->  85a  :     0.076731 
    79a ->  86a  :     0.063545 
    79a ->  87a  :     0.042630 
    79a ->  89a  :     0.014788 
    80a ->  84a  :     0.014185 
    80a ->  87a  :     0.011296 
    80a ->  88a  :     0.121127 
    81a ->  85a  :     0.046921 
    81a ->  86a  :     0.016017 
    81a ->  87a  :     0.119056 
    81a ->  88a  :     0.034630 
    81a ->  89a  :     0.013035 
    82a ->  86a  :     0.073273 
    82a ->  93a  :     0.010295 
    83a ->  87a  :     0.010038 
    83a ->  90a  :     0.022111 

STATE 21:  E=   0.235581 au      6.410 eV    51704.1 cm**-1 <S**2> =   0.000000
    76a ->  84a  :     0.014713 
    77a ->  85a  :     0.012428 
    78a ->  85a  :     0.018964 
    79a ->  85a  :     0.030823 
    79a ->  86a  :     0.013942 
    79a ->  87a  :     0.172028 
    80a ->  87a  :     0.030641 
    80a ->  88a  :     0.029860 
    81a ->  85a  :     0.181552 
    81a ->  86a  :     0.101722 
    81a ->  87a  :     0.040153 
    81a ->  88a  :     0.114032 
    81a ->  89a  :     0.043029 
    81a ->  90a  :     0.010923 
    83a ->  87a  :     0.055547 

STATE 22:  E=   0.235941 au      6.420 eV    51783.0 cm**-1 <S**2> =   0.000000
    74a ->  84a  :     0.015716 
    77a ->  84a  :     0.130418 
    77a ->  85a  :     0.171983 
    78a ->  84a  :     0.179239 
    78a ->  85a  :     0.032605 
    79a ->  86a  :     0.052746 
    79a ->  88a  :     0.025497 
    80a ->  84a  :     0.029059 
    80a ->  85a  :     0.031693 
    81a ->  87a  :     0.076301 
    82a ->  86a  :     0.053665 
    82a ->  93a  :     0.035900 
    83a ->  86a  :     0.014580 
    83a ->  93a  :     0.017912 

STATE 23:  E=   0.235491 au      6.408 eV    51684.2 cm**-1 <S**2> =   0.000000
    77a ->  85a  :     0.029859 
    77a ->  86a  :     0.017452 
    78a ->  85a  :     0.033881 
    78a ->  86a  :     0.011015 
    80a ->  84a  :     0.015356 
    82a ->  86a  :     0.024267 
    82a ->  89a  :     0.012649 
    83a ->  86a  :     0.119232 
    83a ->  88a  :     0.135470 
    83a ->  89a  :     0.419963 
    83a ->  90a  :     0.042452 
    83a ->  93a  :     0.027710 

STATE 24:  E=   0.233191 au      6.345 eV    51179.6 cm**-1 <S**2> =   0.000000
    75a ->  84a  :     0.028598 
    77a ->  84a  :     0.075227 
    78a ->  85a  :     0.110637 
    78a ->  89a  :     0.022777 
    82a ->  85a  :     0.020665 
    83a ->  86a  :     0.107243 
    83a ->  88a  :     0.089437 
    83a ->  90a  :     0.393850 
    83a ->  93a  :     0.034251 

STATE 25:  E=   0.237239 au      6.456 eV    52068.0 cm**-1 <S**2> =   0.000000
    65a ->  84a  :     0.016800 
    69a ->  84a  :     0.021850 
    71a ->  84a  :     0.037736 
    71a ->  89a  :     0.011019 
    75a ->  84a  :     0.689158 
    76a ->  84a  :     0.042265 
    83a ->  90a  :     0.012158 

STATE 26:  E=   0.235791 au      6.416 eV    51750.1 cm**-1 <S**2> =   0.000000
    79a ->  84a  :     0.025592 
    79a ->  85a  :     0.556294 
    79a ->  86a  :     0.028443 
    79a ->  88a  :     0.046675 
    79a ->  89a  :     0.061510 
    80a ->  85a  :     0.082865 
    80a ->  88a  :     0.017863 
    80a ->  90a  :     0.010080 
    81a ->  87a  :     0.019235 
    82a ->  85a  :     0.022444 
    82a ->  86a  :     0.023669 
    82a ->  89a  :     0.014835 

STATE 27:  E=   0.274497 au      7.469 eV    60245.1 cm**-1 <S**2> =   0.000000
    83a ->  91a  :     0.605789 
    83a ->  95a  :     0.143181 
    83a ->  96a  :     0.032226 
    83a -> 101a  :     0.047311 

STATE 28:  E=   0.253138 au      6.888 eV    55557.4 cm**-1 <S**2> =   0.000000
    74a ->  84a  :     0.030333 
    77a ->  84a  :     0.051905 
    77a ->  85a  :     0.050260 
    77a ->  88a  :     0.011742 
    78a ->  84a  :     0.029543 
    78a ->  86a  :     0.041245 
    78a ->  89a  :     0.040529 
    79a ->  88a  :     0.010723 
    80a ->  84a  :     0.012619 
    80a ->  85a  :     0.012555 
    80a ->  89a  :     0.019260 
    82a ->  87a  :     0.015628 
    82a ->  88a  :     0.142535 
    82a ->  89a  :     0.069298 
    82a ->  90a  :     0.132137 
    83a ->  88a  :     0.046490 
    83a ->  89a  :     0.019458 
    83a ->  90a  :     0.015192 
    83a ->  93a  :     0.108453 

STATE 29:  E=   0.251106 au      6.833 eV    55111.4 cm**-1 <S**2> =   0.000000
    67a ->  84a  :     0.038397 
    67a ->  89a  :     0.010538 
    68a ->  84a  :     0.023326 
    69a ->  84a  :     0.100273 
    69a ->  89a  :     0.019395 
    71a ->  84a  :     0.052738 
    72a ->  84a  :     0.317002 
    72a ->  85a  :     0.019067 
    75a ->  84a  :     0.018508 
    75a ->  85a  :     0.046148 
    76a ->  84a  :     0.116472 
    76a ->  85a  :     0.061731 

STATE 30:  E=   0.249451 au      6.788 eV    54748.2 cm**-1 <S**2> =   0.000000
    77a ->  84a  :     0.011832 
    77a ->  85a  :     0.229481 
    77a ->  86a  :     0.013882 
    77a ->  88a  :     0.020676 
    77a ->  90a  :     0.025692 
    78a ->  85a  :     0.035345 
    78a ->  88a  :     0.018935 
    79a ->  85a  :     0.051487 
    80a ->  90a  :     0.021133 
    82a ->  86a  :     0.112932 
    82a ->  88a  :     0.013578 
    82a ->  89a  :     0.066016 
    82a ->  90a  :     0.022369 
    83a ->  88a  :     0.082803 
    83a ->  90a  :     0.041735 
    83a ->  93a  :     0.103438 


-------------------------
TD-DFT-EXCITATION SPECTRA
-------------------------

Center of mass = ( -0.0281, -0.0368, -0.0012)
Calculating the Dipole integrals                  ... done
Transforming integrals                            ... done
Calculating the Linear Momentum integrals         ... done
Transforming integrals                            ... done
Calculating angular momentum integrals            ... done
Transforming integrals                            ... done

-----------------------------------------------------------------------------
         ABSORPTION SPECTRUM VIA TRANSITION ELECTRIC DIPOLE MOMENTS
-----------------------------------------------------------------------------
State   Energy    Wavelength  fosc         T2        TX        TY        TZ  
        (cm-1)      (nm)                 (au**2)    (au)      (au)      (au) 
-----------------------------------------------------------------------------
   1   30585.8    326.9   0.088171777   0.94904   0.52113  -0.82306   0.00586
   2   32556.2    307.2   0.262577874   2.65522   1.45030   0.74285  -0.00531
   3   37514.4    266.6   1.125469445   9.87669   2.65455   1.68219   0.01732
   4   35749.2    279.7   0.001513363   0.01394  -0.03404  -0.11192   0.01587
   5   38568.5    259.3   0.131695595   1.12412  -0.83226  -0.65683  -0.00638
   6   41369.1    241.7   0.509069360   4.05113  -0.71976   1.87964   0.00587
   7   41542.5    240.7   0.001713609   0.01358  -0.06211   0.05444   0.08221
   8   46919.5    213.1   0.310999666   2.18214  -1.24211  -0.79944  -0.01374
   9   47871.9    208.9   0.151367519   1.04094   0.80554   0.62578  -0.02121
  10   43926.7    227.7   0.038372811   0.28759   0.46429  -0.24852  -0.10130
  11   43890.2    227.8   0.124289918   0.93227   0.65839  -0.70592   0.02191
  12   46499.5    215.1   0.140523572   0.99489   0.79494   0.60169  -0.03064
  13   45894.5    217.9   0.146679242   1.05216  -0.95947   0.35107  -0.09127
  14   46808.8    213.6   0.457005049   3.21417   0.30098  -1.76633  -0.06043
  15   47323.1    211.3   0.036879903   0.25656  -0.48260  -0.05075   0.14519
  16   48044.7    208.1   0.211185966   1.44709   0.25198  -0.06222   1.17462
  17   49083.0    203.7   0.386901878   2.59505  -1.50066   0.54045   0.22581
  18   49257.0    203.0   0.338584056   2.26294   1.18839  -0.92122   0.04517
  19   49804.5    200.8   0.016778803   0.11091  -0.06172   0.12968  -0.30047
  20   52741.4    189.6   0.175640857   1.09635   0.01921  -0.76003   0.71996
  21   51704.1    193.4   0.254364396   1.61960  -0.23133   0.35889   1.19887
  22   51783.0    193.1   0.164647577   1.04675   0.99644  -0.18899   0.13468
  23   51684.2    193.5   0.014701051   0.09364   0.22089  -0.20027   0.06885
  24   51179.6    195.4   0.009566988   0.06154  -0.17314  -0.17596   0.02453
  25   52068.0    192.1   0.006048762   0.03824  -0.04320  -0.04421   0.18554
  26   51750.1    193.2   0.115609617   0.73546  -0.61667   0.59549  -0.02397
  27   60245.1    166.0   0.002185067   0.01194  -0.07760   0.02921   0.07118
  28   55557.4    180.0   0.180431044   1.06917  -0.98313   0.31985   0.01789
  29   55111.4    181.5   0.002365643   0.01413  -0.01918   0.01437  -0.11643
  30   54748.2    182.7   0.002846836   0.01712  -0.12597   0.03508   0.00433

-----------------------------------------------------------------------------
         ABSORPTION SPECTRUM VIA TRANSITION VELOCITY DIPOLE MOMENTS
-----------------------------------------------------------------------------
State   Energy    Wavelength   fosc        P2         PX        PY        PZ  
        (cm-1)      (nm)                 (au**2)     (au)      (au)      (au) 
-----------------------------------------------------------------------------
   1   30585.8    326.9   0.105810438   0.02212  -0.08014   0.12528  -0.00086
   2   32556.2    307.2   0.301762538   0.06714  -0.23031  -0.11874   0.00083
   3   37514.4    266.6   1.315481190   0.33728  -0.49127  -0.30971  -0.00314
   4   35749.2    279.7   0.002053931   0.00050   0.00679   0.02134  -0.00068
   5   38568.5    259.3   0.160309789   0.04226   0.16154   0.12712   0.00126
   6   41369.1    241.7   0.611731397   0.17296   0.14841  -0.38850  -0.00110
   7   41542.5    240.7   0.002209114   0.00063   0.01302  -0.01144  -0.01808
   8   46919.5    213.1   0.322547663   0.10343   0.27066   0.17368   0.00332
   9   47871.9    208.9   0.153080640   0.05009  -0.17739  -0.13635   0.00499
  10   43926.7    227.7   0.050406558   0.01513  -0.10595   0.05713   0.02538
  11   43890.2    227.8   0.163596474   0.04907  -0.15103   0.16193  -0.00644
  12   46499.5    215.1   0.167898989   0.05336  -0.18405  -0.13940   0.00703
  13   45894.5    217.9   0.187243368   0.05873   0.22630  -0.08397   0.02169
  14   46808.8    213.6   0.578114604   0.18495  -0.07593   0.42304   0.01468
  15   47323.1    211.3   0.048129988   0.01557   0.11881   0.01295  -0.03581
  16   48044.7    208.1   0.275605113   0.09050  -0.06268   0.01538  -0.29382
  17   49083.0    203.7   0.485541931   0.16288   0.37608  -0.13495  -0.05682
  18   49257.0    203.0   0.430853396   0.14505  -0.30098   0.23309  -0.01120
  19   49804.5    200.8   0.022877684   0.00779   0.01617  -0.03369   0.07994
  20   52741.4    189.6   0.206946180   0.07460  -0.00526   0.19781  -0.18825
  21   51704.1    193.4   0.316346400   0.11179   0.06083  -0.09407  -0.31502
  22   51783.0    193.1   0.209619775   0.07419  -0.26488   0.05214  -0.03614
  23   51684.2    193.5   0.021059943   0.00744  -0.06267   0.05623  -0.01872
  24   51179.6    195.4   0.013296432   0.00465   0.04839   0.04761  -0.00649
  25   52068.0    192.1   0.008313853   0.00296   0.01185   0.01209  -0.05169
  26   51750.1    193.2   0.161915073   0.05727   0.17205  -0.16619   0.00677
  27   60245.1    166.0   0.002366930   0.00097   0.02177  -0.00814  -0.02084
  28   55557.4    180.0   0.225295578   0.08555   0.27844  -0.08939  -0.00495
  29   55111.4    181.5   0.002991720   0.00113   0.00532  -0.00420   0.03288
  30   54748.2    182.7   0.003692099   0.00138   0.03531  -0.01153  -0.00141

-------------------------------------------------------------------
                             CD SPECTRUM
-------------------------------------------------------------------
State  Energy     Wavelength     R         MX        MY        MZ   
       (cm-1)       (nm)     (1e40*cgs)   (au)      (au)      (au)  
-------------------------------------------------------------------
   1   30585.8    326.9      0.50835   0.00218  -0.00251  -0.36195
   2   32556.2    307.2      0.45158   0.00050  -0.00212  -0.34022
   3   37514.4    266.6     -9.30907   0.00112  -0.00618  -0.71179
   4   35749.2    279.7     -3.01321  -0.10128   0.09268   0.03356
   5   38568.5    259.3      1.74767  -0.00624   0.00416  -0.19497
   6   41369.1    241.7     10.09660   0.00187   0.01072   0.44656
   7   41542.5    240.7     -1.20656  -0.05246  -0.12800   0.01399
   8   46919.5    213.1      2.02150  -0.02662   0.04025  -0.24717
   9   47871.9    208.9      3.32196  -0.01483   0.03486   0.13280
  10   43926.7    227.7    -85.81372  -0.16281   0.24493   0.44973
  11   43890.2    227.8     95.20556   0.12045  -0.14835   0.81757
  12   46499.5    215.1     36.29698   0.02761   0.02680  -1.27021
  13   45894.5    217.9    -14.43998   0.03887   0.08462   0.25243
  14   46808.8    213.6    -72.53168   0.02586   0.04881   1.24804
  15   47323.1    211.3     68.17863  -0.07770  -0.11582   0.69727
  16   48044.7    208.1    -183.32295  -0.63551  -0.95354  -0.24522
  17   49083.0    203.7    107.25771  -0.11307  -0.18686   0.70327
  18   49257.0    203.0     26.68753  -0.00726  -0.05953   0.23007
  19   49804.5    200.8     15.87711   0.29669   0.22237  -0.07706
  20   52741.4    189.6     32.08809  -0.31267  -0.64042  -0.57318
  21   51704.1    193.4    -30.00036  -0.54438  -1.13026   0.18023
  22   51783.0    193.1    -10.26199  -0.06624  -0.13118   0.14435
  23   51684.2    193.5      1.24023  -0.02615  -0.06478  -0.06634
  24   51179.6    195.4      2.54343   0.02767  -0.03666   0.15228
  25   52068.0    192.1      7.57169  -0.23365  -0.08460   0.01200
  26   51750.1    193.2     -0.98835   0.01884   0.01824   0.05578
  27   60245.1    166.0      4.14347  -0.11019   0.05110  -0.01762
  28   55557.4    180.0     -2.24957   0.00082  -0.01068  -0.03055
  29   55111.4    181.5      0.08250   0.04302   0.06811  -0.00018
  30   54748.2    182.7      0.26458  -0.00757  -0.00643  -0.03846

Total run time:    13474.689 sec

           *** ORCA-CIS/TD-DFT FINISHED WITHOUT ERROR ***

Maximum memory used throughout the entire CIS-calculation: 4131.2 MB

-----------------------
CIS/TD-DFT TOTAL ENERGY
-----------------------

    E(SCF)  =  -1032.858073422 Eh
    DE(CIS) =      0.139359127 Eh (Root  1)
    ----------------------------- ---------
    E(tot)  =  -1032.718714295 Eh


-------------------------   --------------------
FINAL SINGLE POINT ENERGY     -1032.718714295230
-------------------------   --------------------


                            ***************************************
                            *     ORCA property calculations      *
                            ***************************************


  WARNING: The energy has been calculated at the MP2 level but the densities
           used in the property calculations are still SCF densities
           MP2 response densities have not been calculated 
           use %mp2 Density relaxed end
           or  %mp2 Density unrelaxed end

                                    ---------------------
                                    Active property flags
                                    ---------------------
   (+) Dipole Moment


------------------------------------------------------------------------------
                       ORCA ELECTRIC PROPERTIES CALCULATION
------------------------------------------------------------------------------

Dipole Moment Calculation                       ... on
Quadrupole Moment Calculation                   ... off
Polarizability Calculation                      ... off
GBWName                                         ... NCE_1_M06L_def2TZVP_coords.gbw
Electron density                                ... NCE_1_M06L_def2TZVP_coords.scfp
The origin for moment calculation is the CENTER OF MASS  = (-0.028125, -0.036766 -0.001229)

-------------
DIPOLE MOMENT
-------------
                                X             Y             Z
Electronic contribution:     -5.28059      -3.62766      -0.14906
Nuclear contribution   :      4.72501       6.17663       0.20653
                        -----------------------------------------
Total Dipole Moment    :     -0.55559       2.54897       0.05747
                        -----------------------------------------
Magnitude (a.u.)       :      2.60945
Magnitude (Debye)      :      6.63269



--------------------
Rotational spectrum 
--------------------
 
Rotational constants in cm-1:     0.011605     0.006121     0.004181 
Rotational constants in MHz :   347.917303   183.508149   125.354082 

 Dipole components along the rotational axes: 
x,y,z [a.u.] :    -0.528691     2.554712     0.056124 
x,y,z [Debye]:    -1.343827     6.493561     0.142656 

 

Timings for individual modules:

Sum of individual times         ...    15137.623 sec (= 252.294 min)
GTO integral calculation        ...        3.528 sec (=   0.059 min)   0.0 %
SCF iterations                  ...     1126.322 sec (=  18.772 min)   7.4 %
MP2 module                      ...      528.517 sec (=   8.809 min)   3.5 %
CIS module                      ...    13479.256 sec (= 224.654 min)  89.0 %
                             ****ORCA TERMINATED NORMALLY****
TOTAL RUN TIME: 0 days 4 hours 12 minutes 27 seconds 335 msec
