 Entering Gaussian System, Link 0=g09
 Input=/home/png4rjv/fotokatalizis/benchmark/OPCs/RESTART_2/NCE_1_M06L_def2TZVP.gjf
 Output=/home/png4rjv/fotokatalizis/benchmark/OPCs/RESTART_2/NCE_1_M06L_def2TZVP.log
 Initial command:
 /opt/nce/packages/global/g09/l1.exe "/home/png4rjv/fotokatalizis/benchmark/OPCs/RESTART_2/NCE_1_M06L_def2TZVP/Gau-3242.inp" -scrdir="/home/png4rjv/fotokatalizis/benchmark/OPCs/RESTART_2/NCE_1_M06L_def2TZVP/"
 Default is to use a total of  12 processors:
                               12 via shared-memory
                                1 via Linda
 Entering Link 1 = /opt/nce/packages/global/g09/l1.exe PID=      3248.
  
 Copyright (c) 1988,1990,1992,1993,1995,1998,2003,2009,2015,
            Gaussian, Inc.  All Rights Reserved.
  
 This is part of the Gaussian(R) 09 program.  It is based on
 the Gaussian(R) 03 system (copyright 2003, Gaussian, Inc.),
 the Gaussian(R) 98 system (copyright 1998, Gaussian, Inc.),
 the Gaussian(R) 94 system (copyright 1995, Gaussian, Inc.),
 the Gaussian 92(TM) system (copyright 1992, Gaussian, Inc.),
 the Gaussian 90(TM) system (copyright 1990, Gaussian, Inc.),
 the Gaussian 88(TM) system (copyright 1988, Gaussian, Inc.),
 the Gaussian 86(TM) system (copyright 1986, Carnegie Mellon
 University), and the Gaussian 82(TM) system (copyright 1983,
 Carnegie Mellon University). Gaussian is a federally registered
 trademark of Gaussian, Inc.
  
 This software contains proprietary and confidential information,
 including trade secrets, belonging to Gaussian, Inc.
  
 This software is provided under written license and may be
 used, copied, transmitted, or stored only in accord with that
 written license.
  
 The following legend is applicable only to US Government
 contracts under FAR:
  
                    RESTRICTED RIGHTS LEGEND
  
 Use, reproduction and disclosure by the US Government is
 subject to restrictions as set forth in subparagraphs (a)
 and (c) of the Commercial Computer Software - Restricted
 Rights clause in FAR 52.227-19.
  
 Gaussian, Inc.
 340 Quinnipiac St., Bldg. 40, Wallingford CT 06492
  
  
 ---------------------------------------------------------------
 Warning -- This program may not be used in any manner that
 competes with the business of Gaussian, Inc. or will provide
 assistance to any competitor of Gaussian, Inc.  The licensee
 of this program is prohibited from giving any competitor of
 Gaussian, Inc. access to this program.  By using this program,
 the user acknowledges that Gaussian, Inc. is engaged in the
 business of creating and licensing software in the field of
 computational chemistry and represents and warrants to the
 licensee that it is not a competitor of Gaussian, Inc. and that
 it will not use this program in any manner prohibited above.
 ---------------------------------------------------------------
  

 Cite this work as:
 Gaussian 09, Revision E.01,
 M. J. Frisch, G. W. Trucks, H. B. Schlegel, G. E. Scuseria, 
 M. A. Robb, J. R. Cheeseman, G. Scalmani, V. Barone, B. Mennucci, 
 G. A. Petersson, H. Nakatsuji, M. Caricato, X. Li, H. P. Hratchian, 
 A. F. Izmaylov, J. Bloino, G. Zheng, J. L. Sonnenberg, M. Hada, 
 M. Ehara, K. Toyota, R. Fukuda, J. Hasegawa, M. Ishida, T. Nakajima, 
 Y. Honda, O. Kitao, H. Nakai, T. Vreven, J. A. Montgomery, Jr., 
 J. E. Peralta, F. Ogliaro, M. Bearpark, J. J. Heyd, E. Brothers, 
 K. N. Kudin, V. N. Staroverov, T. Keith, R. Kobayashi, J. Normand, 
 K. Raghavachari, A. Rendell, J. C. Burant, S. S. Iyengar, J. Tomasi, 
 M. Cossi, N. Rega, J. M. Millam, M. Klene, J. E. Knox, J. B. Cross, 
 V. Bakken, C. Adamo, J. Jaramillo, R. Gomperts, R. E. Stratmann, 
 O. Yazyev, A. J. Austin, R. Cammi, C. Pomelli, J. W. Ochterski, 
 R. L. Martin, K. Morokuma, V. G. Zakrzewski, G. A. Voth, 
 P. Salvador, J. J. Dannenberg, S. Dapprich, A. D. Daniels, 
 O. Farkas, J. B. Foresman, J. V. Ortiz, J. Cioslowski, 
 and D. J. Fox, Gaussian, Inc., Wallingford CT, 2013.
 
 ******************************************
 Gaussian 09:  ES64L-G09RevE.01 30-Nov-2015
                23-Nov-2021 
 ******************************************
 %chk=cp.chk
 Default route:  MaxDisk=500GB
 ----------------------------------------------------------------------
 #p m06l/def2TZVP opt=tight freq=noraman nosymm int=ultrafine scrf=(SMD
 ,solvent=Acetonitrile)
 ----------------------------------------------------------------------
 1/7=10,14=-1,18=20,19=15,26=4,38=1/1,3;
 2/9=110,12=2,15=1,17=6,18=5,40=1/2;
 3/5=44,7=101,11=2,16=1,25=1,30=1,70=32201,71=1,72=2,74=-53,75=-5/1,2,3;
 4//1;
 5/5=2,38=5,53=2/2;
 6/7=2,8=2,9=2,10=2,28=1/1;
 7/30=1/1,2,3,16;
 1/7=10,14=-1,18=20,19=15,26=4/3(2);
 2/9=110,15=1/2;
 99//99;
 2/9=110,15=1/2;
 3/5=44,7=101,11=2,16=1,25=1,30=1,70=32205,71=1,72=2,74=-53,75=-5/1,2,3;
 4/5=5,16=3,69=1/1;
 5/5=2,38=5,53=2/2;
 7/30=1/1,2,3,16;
 1/7=10,14=-1,18=20,19=15,26=4/3(-5);
 2/9=110,15=1/2;
 6/7=2,8=2,9=2,10=2,19=2,28=1/1;
 99/9=1/99;
 Leave Link    1 at Tue Nov 23 00:55:14 2021, MaxMem=           0 cpu:         1.8
 (Enter /opt/nce/packages/global/g09/l101.exe)
 -----
 Title
 -----
 Symbolic Z-matrix:
 Charge =  0 Multiplicity = 1
 C                     1.89449   4.20742  -0.00015 
 C                     0.59055   3.79841  -0.00018 
 C                     0.26263   2.42289  -0.00015 
 C                     1.3125    1.45559  -0.0001 
 C                     2.65108   1.91893  -0.00003 
 C                     2.93352   3.25751  -0.00006 
 C                    -1.06953   1.99276  -0.00012 
 C                     0.98557   0.0746   -0.00011 
 C                    -0.35206  -0.31737  -0.00015 
 C                    -1.39976   0.65632  -0.00009 
 C                    -2.78118   0.2024    0.00002 
 C                    -3.03241  -1.16802   0.0001 
 C                    -0.68977  -1.74611  -0.00036 
 H                    -1.84338   2.74886  -0.0001 
 H                     2.13324   5.26344  -0.00017 
 H                    -0.21757   4.52002  -0.00022 
 H                     3.45926   1.19961   0.00005 
 H                     3.96335   3.5909   -0.00001 
 C                     2.11305  -0.89312   0.00002 
 C                     2.674    -1.32227  -1.19987 
 C                     2.67277  -1.32336   1.20008 
 C                     3.75539  -2.19011  -1.19926 
 H                     2.25215  -0.97951  -2.13748 
 C                     3.75418  -2.19118   1.1998 
 H                     2.24994  -0.98147   2.13758 
 C                     4.29669  -2.6312    0.00034 
 H                     4.17783  -2.52109  -2.14002 
 H                     4.17567  -2.52299   2.14069 
 H                     5.14133  -3.30863   0.00047 
 O                     0.08159  -2.67261  -0.00081 
 O                    -2.01788  -2.0824   -0.00004 
 C                    -3.89544   1.05184   0.0001 
 C                    -4.31811  -1.6896    0.00028 
 C                    -5.39534  -0.8257    0.00037 
 H                    -6.40227  -1.2223    0.00051 
 C                    -5.18102   0.54995   0.00027 
 H                    -6.02244   1.23025   0.00033 
 H                    -3.74904   2.12338   0.00003 
 H                    -4.44954  -2.76351   0.00034 
 
 NAtoms=     39 NQM=       39 NQMF=       0 NMMI=      0 NMMIF=      0
                NMic=       0 NMicF=      0.
                    Isotopes and Nuclear Properties:
 (Nuclear quadrupole moments (NQMom) in fm**2, nuclear magnetic moments (NMagM)
  in nuclear magnetons)

  Atom         1           2           3           4           5           6           7           8           9          10
 IAtWgt=          12          12          12          12          12          12          12          12          12          12
 AtmWgt=  12.0000000  12.0000000  12.0000000  12.0000000  12.0000000  12.0000000  12.0000000  12.0000000  12.0000000  12.0000000
 NucSpn=           0           0           0           0           0           0           0           0           0           0
 AtZEff=   0.0000000   0.0000000   0.0000000   0.0000000   0.0000000   0.0000000   0.0000000   0.0000000   0.0000000   0.0000000
 NQMom=    0.0000000   0.0000000   0.0000000   0.0000000   0.0000000   0.0000000   0.0000000   0.0000000   0.0000000   0.0000000
 NMagM=    0.0000000   0.0000000   0.0000000   0.0000000   0.0000000   0.0000000   0.0000000   0.0000000   0.0000000   0.0000000
 AtZNuc=   6.0000000   6.0000000   6.0000000   6.0000000   6.0000000   6.0000000   6.0000000   6.0000000   6.0000000   6.0000000

  Atom        11          12          13          14          15          16          17          18          19          20
 IAtWgt=          12          12          12           1           1           1           1           1          12          12
 AtmWgt=  12.0000000  12.0000000  12.0000000   1.0078250   1.0078250   1.0078250   1.0078250   1.0078250  12.0000000  12.0000000
 NucSpn=           0           0           0           1           1           1           1           1           0           0
 AtZEff=   0.0000000   0.0000000   0.0000000   0.0000000   0.0000000   0.0000000   0.0000000   0.0000000   0.0000000   0.0000000
 NQMom=    0.0000000   0.0000000   0.0000000   0.0000000   0.0000000   0.0000000   0.0000000   0.0000000   0.0000000   0.0000000
 NMagM=    0.0000000   0.0000000   0.0000000   2.7928460   2.7928460   2.7928460   2.7928460   2.7928460   0.0000000   0.0000000
 AtZNuc=   6.0000000   6.0000000   6.0000000   1.0000000   1.0000000   1.0000000   1.0000000   1.0000000   6.0000000   6.0000000

  Atom        21          22          23          24          25          26          27          28          29          30
 IAtWgt=          12          12           1          12           1          12           1           1           1          16
 AtmWgt=  12.0000000  12.0000000   1.0078250  12.0000000   1.0078250  12.0000000   1.0078250   1.0078250   1.0078250  15.9949146
 NucSpn=           0           0           1           0           1           0           1           1           1           0
 AtZEff=   0.0000000   0.0000000   0.0000000   0.0000000   0.0000000   0.0000000   0.0000000   0.0000000   0.0000000   0.0000000
 NQMom=    0.0000000   0.0000000   0.0000000   0.0000000   0.0000000   0.0000000   0.0000000   0.0000000   0.0000000   0.0000000
 NMagM=    0.0000000   0.0000000   2.7928460   0.0000000   2.7928460   0.0000000   2.7928460   2.7928460   2.7928460   0.0000000
 AtZNuc=   6.0000000   6.0000000   1.0000000   6.0000000   1.0000000   6.0000000   1.0000000   1.0000000   1.0000000   8.0000000

  Atom        31          32          33          34          35          36          37          38          39
 IAtWgt=          16          12          12          12           1          12           1           1           1
 AtmWgt=  15.9949146  12.0000000  12.0000000  12.0000000   1.0078250  12.0000000   1.0078250   1.0078250   1.0078250
 NucSpn=           0           0           0           0           1           0           1           1           1
 AtZEff=   0.0000000   0.0000000   0.0000000   0.0000000   0.0000000   0.0000000   0.0000000   0.0000000   0.0000000
 NQMom=    0.0000000   0.0000000   0.0000000   0.0000000   0.0000000   0.0000000   0.0000000   0.0000000   0.0000000
 NMagM=    0.0000000   0.0000000   0.0000000   0.0000000   2.7928460   0.0000000   2.7928460   2.7928460   2.7928460
 AtZNuc=   8.0000000   6.0000000   6.0000000   6.0000000   1.0000000   6.0000000   1.0000000   1.0000000   1.0000000
 Leave Link  101 at Tue Nov 23 00:55:15 2021, MaxMem=  5242880000 cpu:         7.1
 (Enter /opt/nce/packages/global/g09/l103.exe)

 GradGradGradGradGradGradGradGradGradGradGradGradGradGradGradGradGradGrad
 Berny optimization.
 Initialization pass.
                           ----------------------------
                           !    Initial Parameters    !
                           ! (Angstroms and Degrees)  !
 --------------------------                            --------------------------
 ! Name  Definition              Value          Derivative Info.                !
 --------------------------------------------------------------------------------
 ! R1    R(1,2)                  1.3666         estimate D2E/DX2                !
 ! R2    R(1,6)                  1.4078         estimate D2E/DX2                !
 ! R3    R(1,15)                 1.0827         estimate D2E/DX2                !
 ! R4    R(2,3)                  1.4141         estimate D2E/DX2                !
 ! R5    R(2,16)                 1.0834         estimate D2E/DX2                !
 ! R6    R(3,4)                  1.4275         estimate D2E/DX2                !
 ! R7    R(3,7)                  1.3999         estimate D2E/DX2                !
 ! R8    R(4,5)                  1.4165         estimate D2E/DX2                !
 ! R9    R(4,8)                  1.4192         estimate D2E/DX2                !
 ! R10   R(5,6)                  1.3681         estimate D2E/DX2                !
 ! R11   R(5,17)                 1.0819         estimate D2E/DX2                !
 ! R12   R(6,18)                 1.0825         estimate D2E/DX2                !
 ! R13   R(7,10)                 1.3766         estimate D2E/DX2                !
 ! R14   R(7,14)                 1.0819         estimate D2E/DX2                !
 ! R15   R(8,9)                  1.3939         estimate D2E/DX2                !
 ! R16   R(8,19)                 1.4858         estimate D2E/DX2                !
 ! R17   R(9,10)                 1.4303         estimate D2E/DX2                !
 ! R18   R(9,13)                 1.4681         estimate D2E/DX2                !
 ! R19   R(10,11)                1.4541         estimate D2E/DX2                !
 ! R20   R(11,12)                1.3933         estimate D2E/DX2                !
 ! R21   R(11,32)                1.4011         estimate D2E/DX2                !
 ! R22   R(12,31)                1.3658         estimate D2E/DX2                !
 ! R23   R(12,33)                1.3875         estimate D2E/DX2                !
 ! R24   R(13,30)                1.2056         estimate D2E/DX2                !
 ! R25   R(13,31)                1.37           estimate D2E/DX2                !
 ! R26   R(19,20)                1.3923         estimate D2E/DX2                !
 ! R27   R(19,21)                1.3923         estimate D2E/DX2                !
 ! R28   R(20,22)                1.3866         estimate D2E/DX2                !
 ! R29   R(20,23)                1.0838         estimate D2E/DX2                !
 ! R30   R(21,24)                1.3866         estimate D2E/DX2                !
 ! R31   R(21,25)                1.0838         estimate D2E/DX2                !
 ! R32   R(22,26)                1.388          estimate D2E/DX2                !
 ! R33   R(22,27)                1.0831         estimate D2E/DX2                !
 ! R34   R(24,26)                1.388          estimate D2E/DX2                !
 ! R35   R(24,28)                1.0831         estimate D2E/DX2                !
 ! R36   R(26,29)                1.0827         estimate D2E/DX2                !
 ! R37   R(32,36)                1.3801         estimate D2E/DX2                !
 ! R38   R(32,38)                1.0815         estimate D2E/DX2                !
 ! R39   R(33,34)                1.3809         estimate D2E/DX2                !
 ! R40   R(33,39)                1.0819         estimate D2E/DX2                !
 ! R41   R(34,35)                1.0822         estimate D2E/DX2                !
 ! R42   R(34,36)                1.3922         estimate D2E/DX2                !
 ! R43   R(36,37)                1.082          estimate D2E/DX2                !
 ! A1    A(2,1,6)              120.1503         estimate D2E/DX2                !
 ! A2    A(2,1,15)             120.1546         estimate D2E/DX2                !
 ! A3    A(6,1,15)             119.6951         estimate D2E/DX2                !
 ! A4    A(1,2,3)              120.8239         estimate D2E/DX2                !
 ! A5    A(1,2,16)             120.8217         estimate D2E/DX2                !
 ! A6    A(3,2,16)             118.3545         estimate D2E/DX2                !
 ! A7    A(2,3,4)              119.2475         estimate D2E/DX2                !
 ! A8    A(2,3,7)              121.303          estimate D2E/DX2                !
 ! A9    A(4,3,7)              119.4495         estimate D2E/DX2                !
 ! A10   A(3,4,5)              118.2507         estimate D2E/DX2                !
 ! A11   A(3,4,8)              119.3375         estimate D2E/DX2                !
 ! A12   A(5,4,8)              122.4117         estimate D2E/DX2                !
 ! A13   A(4,5,6)              121.0076         estimate D2E/DX2                !
 ! A14   A(4,5,17)             119.2366         estimate D2E/DX2                !
 ! A15   A(6,5,17)             119.7557         estimate D2E/DX2                !
 ! A16   A(1,6,5)              120.5199         estimate D2E/DX2                !
 ! A17   A(1,6,18)             119.6268         estimate D2E/DX2                !
 ! A18   A(5,6,18)             119.8533         estimate D2E/DX2                !
 ! A19   A(3,7,10)             121.774          estimate D2E/DX2                !
 ! A20   A(3,7,14)             117.7709         estimate D2E/DX2                !
 ! A21   A(10,7,14)            120.4551         estimate D2E/DX2                !
 ! A22   A(4,8,9)              119.6512         estimate D2E/DX2                !
 ! A23   A(4,8,19)             117.3209         estimate D2E/DX2                !
 ! A24   A(9,8,19)             123.0279         estimate D2E/DX2                !
 ! A25   A(8,9,10)             120.7648         estimate D2E/DX2                !
 ! A26   A(8,9,13)             119.6313         estimate D2E/DX2                !
 ! A27   A(10,9,13)            119.6039         estimate D2E/DX2                !
 ! A28   A(7,10,9)             119.023          estimate D2E/DX2                !
 ! A29   A(7,10,11)            122.0695         estimate D2E/DX2                !
 ! A30   A(9,10,11)            118.9075         estimate D2E/DX2                !
 ! A31   A(10,11,12)           118.5781         estimate D2E/DX2                !
 ! A32   A(10,11,32)           124.4907         estimate D2E/DX2                !
 ! A33   A(12,11,32)           116.9311         estimate D2E/DX2                !
 ! A34   A(11,12,31)           121.6393         estimate D2E/DX2                !
 ! A35   A(11,12,33)           122.4697         estimate D2E/DX2                !
 ! A36   A(31,12,33)           115.891          estimate D2E/DX2                !
 ! A37   A(9,13,30)            126.9218         estimate D2E/DX2                !
 ! A38   A(9,13,31)            117.5079         estimate D2E/DX2                !
 ! A39   A(30,13,31)           115.5703         estimate D2E/DX2                !
 ! A40   A(8,19,20)            120.4237         estimate D2E/DX2                !
 ! A41   A(8,19,21)            120.4231         estimate D2E/DX2                !
 ! A42   A(20,19,21)           119.0509         estimate D2E/DX2                !
 ! A43   A(19,20,22)           120.448          estimate D2E/DX2                !
 ! A44   A(19,20,23)           119.4238         estimate D2E/DX2                !
 ! A45   A(22,20,23)           120.1257         estimate D2E/DX2                !
 ! A46   A(19,21,24)           120.448          estimate D2E/DX2                !
 ! A47   A(19,21,25)           119.4236         estimate D2E/DX2                !
 ! A48   A(24,21,25)           120.1259         estimate D2E/DX2                !
 ! A49   A(20,22,26)           120.2265         estimate D2E/DX2                !
 ! A50   A(20,22,27)           119.6757         estimate D2E/DX2                !
 ! A51   A(26,22,27)           120.0977         estimate D2E/DX2                !
 ! A52   A(21,24,26)           120.2266         estimate D2E/DX2                !
 ! A53   A(21,24,28)           119.6755         estimate D2E/DX2                !
 ! A54   A(26,24,28)           120.0978         estimate D2E/DX2                !
 ! A55   A(22,26,24)           119.5823         estimate D2E/DX2                !
 ! A56   A(22,26,29)           120.2081         estimate D2E/DX2                !
 ! A57   A(24,26,29)           120.2081         estimate D2E/DX2                !
 ! A58   A(12,31,13)           123.7634         estimate D2E/DX2                !
 ! A59   A(11,32,36)           121.355          estimate D2E/DX2                !
 ! A60   A(11,32,38)           119.5398         estimate D2E/DX2                !
 ! A61   A(36,32,38)           119.1053         estimate D2E/DX2                !
 ! A62   A(12,33,34)           119.19           estimate D2E/DX2                !
 ! A63   A(12,33,39)           119.0588         estimate D2E/DX2                !
 ! A64   A(34,33,39)           121.7512         estimate D2E/DX2                !
 ! A65   A(33,34,35)           119.7732         estimate D2E/DX2                !
 ! A66   A(33,34,36)           119.8735         estimate D2E/DX2                !
 ! A67   A(35,34,36)           120.3533         estimate D2E/DX2                !
 ! A68   A(32,36,34)           120.1807         estimate D2E/DX2                !
 ! A69   A(32,36,37)           119.7189         estimate D2E/DX2                !
 ! A70   A(34,36,37)           120.1004         estimate D2E/DX2                !
 ! D1    D(6,1,2,3)             -0.001          estimate D2E/DX2                !
 ! D2    D(6,1,2,16)           179.9986         estimate D2E/DX2                !
 ! D3    D(15,1,2,3)           180.0            estimate D2E/DX2                !
 ! D4    D(15,1,2,16)           -0.0005         estimate D2E/DX2                !
 ! D5    D(2,1,6,5)              0.001          estimate D2E/DX2                !
 ! D6    D(2,1,6,18)          -179.9984         estimate D2E/DX2                !
 ! D7    D(15,1,6,5)          -179.9999         estimate D2E/DX2                !
 ! D8    D(15,1,6,18)            0.0007         estimate D2E/DX2                !
 ! D9    D(1,2,3,4)             -0.001          estimate D2E/DX2                !
 ! D10   D(1,2,3,7)            179.9968         estimate D2E/DX2                !
 ! D11   D(16,2,3,4)           179.9994         estimate D2E/DX2                !
 ! D12   D(16,2,3,7)            -0.0027         estimate D2E/DX2                !
 ! D13   D(2,3,4,5)              0.0029         estimate D2E/DX2                !
 ! D14   D(2,3,4,8)           -179.9982         estimate D2E/DX2                !
 ! D15   D(7,3,4,5)           -179.995          estimate D2E/DX2                !
 ! D16   D(7,3,4,8)              0.0039         estimate D2E/DX2                !
 ! D17   D(2,3,7,10)           179.9997         estimate D2E/DX2                !
 ! D18   D(2,3,7,14)            -0.0012         estimate D2E/DX2                !
 ! D19   D(4,3,7,10)            -0.0024         estimate D2E/DX2                !
 ! D20   D(4,3,7,14)           179.9967         estimate D2E/DX2                !
 ! D21   D(3,4,5,6)             -0.0029         estimate D2E/DX2                !
 ! D22   D(3,4,5,17)           179.9973         estimate D2E/DX2                !
 ! D23   D(8,4,5,6)            179.9983         estimate D2E/DX2                !
 ! D24   D(8,4,5,17)            -0.0016         estimate D2E/DX2                !
 ! D25   D(3,4,8,9)             -0.0005         estimate D2E/DX2                !
 ! D26   D(3,4,8,19)          -179.9965         estimate D2E/DX2                !
 ! D27   D(5,4,8,9)            179.9983         estimate D2E/DX2                !
 ! D28   D(5,4,8,19)             0.0024         estimate D2E/DX2                !
 ! D29   D(4,5,6,1)              0.0009         estimate D2E/DX2                !
 ! D30   D(4,5,6,18)          -179.9997         estimate D2E/DX2                !
 ! D31   D(17,5,6,1)          -179.9992         estimate D2E/DX2                !
 ! D32   D(17,5,6,18)            0.0002         estimate D2E/DX2                !
 ! D33   D(3,7,10,9)            -0.0023         estimate D2E/DX2                !
 ! D34   D(3,7,10,11)          179.9965         estimate D2E/DX2                !
 ! D35   D(14,7,10,9)          179.9986         estimate D2E/DX2                !
 ! D36   D(14,7,10,11)          -0.0026         estimate D2E/DX2                !
 ! D37   D(4,8,9,10)            -0.0043         estimate D2E/DX2                !
 ! D38   D(4,8,9,13)           179.9909         estimate D2E/DX2                !
 ! D39   D(19,8,9,10)          179.9914         estimate D2E/DX2                !
 ! D40   D(19,8,9,13)           -0.0134         estimate D2E/DX2                !
 ! D41   D(4,8,19,20)          -88.108          estimate D2E/DX2                !
 ! D42   D(4,8,19,21)           88.1796         estimate D2E/DX2                !
 ! D43   D(9,8,19,20)           91.8962         estimate D2E/DX2                !
 ! D44   D(9,8,19,21)          -91.8162         estimate D2E/DX2                !
 ! D45   D(8,9,10,7)             0.0058         estimate D2E/DX2                !
 ! D46   D(8,9,10,11)         -179.9931         estimate D2E/DX2                !
 ! D47   D(13,9,10,7)         -179.9894         estimate D2E/DX2                !
 ! D48   D(13,9,10,11)           0.0117         estimate D2E/DX2                !
 ! D49   D(8,9,13,30)           -0.0177         estimate D2E/DX2                !
 ! D50   D(8,9,13,31)          179.9831         estimate D2E/DX2                !
 ! D51   D(10,9,13,30)         179.9775         estimate D2E/DX2                !
 ! D52   D(10,9,13,31)          -0.0217         estimate D2E/DX2                !
 ! D53   D(7,10,11,12)        -179.997          estimate D2E/DX2                !
 ! D54   D(7,10,11,32)           0.0004         estimate D2E/DX2                !
 ! D55   D(9,10,11,12)           0.0018         estimate D2E/DX2                !
 ! D56   D(9,10,11,32)         179.9993         estimate D2E/DX2                !
 ! D57   D(10,11,12,31)         -0.0056         estimate D2E/DX2                !
 ! D58   D(10,11,12,33)        179.9963         estimate D2E/DX2                !
 ! D59   D(32,11,12,31)        179.9968         estimate D2E/DX2                !
 ! D60   D(32,11,12,33)         -0.0013         estimate D2E/DX2                !
 ! D61   D(10,11,32,36)       -179.9965         estimate D2E/DX2                !
 ! D62   D(10,11,32,38)          0.003          estimate D2E/DX2                !
 ! D63   D(12,11,32,36)          0.0009         estimate D2E/DX2                !
 ! D64   D(12,11,32,38)       -179.9995         estimate D2E/DX2                !
 ! D65   D(11,12,31,13)         -0.0054         estimate D2E/DX2                !
 ! D66   D(33,12,31,13)        179.9929         estimate D2E/DX2                !
 ! D67   D(11,12,33,34)          0.0007         estimate D2E/DX2                !
 ! D68   D(11,12,33,39)       -179.9998         estimate D2E/DX2                !
 ! D69   D(31,12,33,34)       -179.9975         estimate D2E/DX2                !
 ! D70   D(31,12,33,39)          0.0019         estimate D2E/DX2                !
 ! D71   D(9,13,31,12)           0.0189         estimate D2E/DX2                !
 ! D72   D(30,13,31,12)       -179.9804         estimate D2E/DX2                !
 ! D73   D(8,19,20,22)         177.806          estimate D2E/DX2                !
 ! D74   D(8,19,20,23)          -2.7718         estimate D2E/DX2                !
 ! D75   D(21,19,20,22)          1.4679         estimate D2E/DX2                !
 ! D76   D(21,19,20,23)       -179.11           estimate D2E/DX2                !
 ! D77   D(8,19,21,24)        -177.805          estimate D2E/DX2                !
 ! D78   D(8,19,21,25)           2.7737         estimate D2E/DX2                !
 ! D79   D(20,19,21,24)         -1.4668         estimate D2E/DX2                !
 ! D80   D(20,19,21,25)        179.1119         estimate D2E/DX2                !
 ! D81   D(19,20,22,26)         -0.5339         estimate D2E/DX2                !
 ! D82   D(19,20,22,27)        179.5994         estimate D2E/DX2                !
 ! D83   D(23,20,22,26)       -179.952          estimate D2E/DX2                !
 ! D84   D(23,20,22,27)          0.1813         estimate D2E/DX2                !
 ! D85   D(19,21,24,26)          0.5317         estimate D2E/DX2                !
 ! D86   D(19,21,24,28)       -179.6006         estimate D2E/DX2                !
 ! D87   D(25,21,24,26)        179.949          estimate D2E/DX2                !
 ! D88   D(25,21,24,28)         -0.1833         estimate D2E/DX2                !
 ! D89   D(20,22,26,24)         -0.4194         estimate D2E/DX2                !
 ! D90   D(20,22,26,29)       -179.9799         estimate D2E/DX2                !
 ! D91   D(27,22,26,24)        179.4467         estimate D2E/DX2                !
 ! D92   D(27,22,26,29)         -0.1137         estimate D2E/DX2                !
 ! D93   D(21,24,26,22)          0.4205         estimate D2E/DX2                !
 ! D94   D(21,24,26,29)        179.9809         estimate D2E/DX2                !
 ! D95   D(28,24,26,22)       -179.4466         estimate D2E/DX2                !
 ! D96   D(28,24,26,29)          0.1138         estimate D2E/DX2                !
 ! D97   D(11,32,36,34)          0.0001         estimate D2E/DX2                !
 ! D98   D(11,32,36,37)        179.9999         estimate D2E/DX2                !
 ! D99   D(38,32,36,34)       -179.9995         estimate D2E/DX2                !
 ! D100  D(38,32,36,37)          0.0003         estimate D2E/DX2                !
 ! D101  D(12,33,34,35)        179.9999         estimate D2E/DX2                !
 ! D102  D(12,33,34,36)          0.0004         estimate D2E/DX2                !
 ! D103  D(39,33,34,35)          0.0004         estimate D2E/DX2                !
 ! D104  D(39,33,34,36)       -179.9991         estimate D2E/DX2                !
 ! D105  D(33,34,36,32)         -0.0008         estimate D2E/DX2                !
 ! D106  D(33,34,36,37)        179.9994         estimate D2E/DX2                !
 ! D107  D(35,34,36,32)        179.9997         estimate D2E/DX2                !
 ! D108  D(35,34,36,37)          0.0            estimate D2E/DX2                !
 --------------------------------------------------------------------------------
 Trust Radius=3.00D-01 FncErr=1.00D-07 GrdErr=1.00D-06
 Number of steps in this run=    231 maximum allowed number of steps=    234.
 GradGradGradGradGradGradGradGradGradGradGradGradGradGradGradGradGradGrad

 Leave Link  103 at Tue Nov 23 00:55:15 2021, MaxMem=  5242880000 cpu:         0.3
 (Enter /opt/nce/packages/global/g09/l202.exe)
                          Input orientation:                          
 ---------------------------------------------------------------------
 Center     Atomic      Atomic             Coordinates (Angstroms)
 Number     Number       Type             X           Y           Z
 ---------------------------------------------------------------------
      1          6           0        1.894488    4.207419   -0.000146
      2          6           0        0.590551    3.798412   -0.000180
      3          6           0        0.262633    2.422888   -0.000149
      4          6           0        1.312495    1.455586   -0.000104
      5          6           0        2.651076    1.918928   -0.000029
      6          6           0        2.933516    3.257506   -0.000059
      7          6           0       -1.069526    1.992761   -0.000117
      8          6           0        0.985567    0.074602   -0.000112
      9          6           0       -0.352056   -0.317368   -0.000152
     10          6           0       -1.399762    0.656315   -0.000093
     11          6           0       -2.781180    0.202401    0.000015
     12          6           0       -3.032412   -1.168023    0.000096
     13          6           0       -0.689768   -1.746112   -0.000364
     14          1           0       -1.843383    2.748856   -0.000097
     15          1           0        2.133238    5.263441   -0.000171
     16          1           0       -0.217572    4.520024   -0.000224
     17          1           0        3.459259    1.199612    0.000051
     18          1           0        3.963345    3.590899   -0.000006
     19          6           0        2.113051   -0.893123    0.000017
     20          6           0        2.673997   -1.322268   -1.199866
     21          6           0        2.672773   -1.323356    1.200083
     22          6           0        3.755387   -2.190113   -1.199264
     23          1           0        2.252147   -0.979505   -2.137481
     24          6           0        3.754176   -2.191182    1.199797
     25          1           0        2.249944   -0.981465    2.137576
     26          6           0        4.296686   -2.631204    0.000343
     27          1           0        4.177833   -2.521086   -2.140023
     28          1           0        4.175672   -2.522991    2.140686
     29          1           0        5.141330   -3.308630    0.000467
     30          8           0        0.081592   -2.672608   -0.000814
     31          8           0       -2.017881   -2.082398   -0.000037
     32          6           0       -3.895440    1.051839    0.000096
     33          6           0       -4.318108   -1.689603    0.000277
     34          6           0       -5.395335   -0.825696    0.000367
     35          1           0       -6.402272   -1.222301    0.000506
     36          6           0       -5.181017    0.549953    0.000268
     37          1           0       -6.022441    1.230245    0.000329
     38          1           0       -3.749044    2.123375    0.000030
     39          1           0       -4.449538   -2.763511    0.000335
 ---------------------------------------------------------------------
                    Distance matrix (angstroms):
                    1          2          3          4          5
     1  C    0.000000
     2  C    1.366579   0.000000
     3  C    2.418161   1.414071   0.000000
     4  C    2.812703   2.451538   1.427545   0.000000
     5  C    2.410315   2.788947   2.441032   1.416504   0.000000
     6  C    1.407805   2.404592   2.798250   2.423763   1.368051
     7  C    3.700012   2.452801   1.399877   2.441840   3.721335
     8  C    4.231585   3.744703   2.457047   1.419154   2.485047
     9  C    5.051797   4.222340   2.808353   2.431891   3.744305
    10  C    4.843803   3.719425   2.425765   2.827574   4.243051
    11  C    6.156463   4.929489   3.767673   4.281197   5.697005
    12  C    7.291757   6.147466   4.873599   5.075583   6.467712
    13  C    6.490217   5.690427   4.276404   3.776232   4.959209
    14  H    4.012367   2.650585   2.131093   3.410588   4.570442
    15  H    1.082674   2.127485   3.401162   3.895302   3.384365
    16  H    2.135069   1.083414   2.151413   3.425184   3.872317
    17  H    3.390488   3.870820   3.422692   2.161971   1.081931
    18  H    2.158765   3.379172   3.880660   3.403905   2.125450
    19  C    5.105223   4.932394   3.797364   2.481396   2.863058
    20  C    5.711777   5.656974   4.613046   3.318070   3.456224
    21  C    5.712771   5.657631   4.613423   3.318633   3.457332
    22  C    6.769730   6.878693   5.909060   4.549377   4.420620
    23  H    5.621415   5.491580   4.483596   3.373573   3.623363
    24  C    6.770554   6.879223   5.909347   4.549779   4.421472
    25  H    5.623231   5.492796   4.484294   3.374567   3.625264
    26  C    7.248263   7.421280   6.466640   5.060361   4.838567
    27  H    7.420614   7.575195   6.659634   5.348209   5.159873
    28  H    7.421953   7.576050   6.660088   5.348817   5.161172
    29  H    8.187367   8.439173   7.526751   6.112097   5.790400
    30  O    7.114869   6.491005   5.098711   4.307796   5.261602
    31  O    7.407323   6.433338   5.049589   4.858882   6.148965
    32  C    6.594009   5.260017   4.378281   5.223562   6.603690
    33  C    8.565700   7.362964   6.155954   6.449489   7.847995
    34  C    8.858542   7.563941   6.524255   7.085142   8.501629
    35  H    9.915548   8.608550   7.596602   8.166316   9.582820
    36  C    7.964912   6.622951   5.756840   6.556361   7.950835
    37  H    8.458211   7.094163   6.397230   7.338397   8.700815
    38  H    6.016036   4.651648   4.022842   5.105401   6.403385
    39  H    9.425526   8.274136   7.007374   7.141555   8.505525
                    6          7          8          9         10
     6  C    0.000000
     7  C    4.198086   0.000000
     8  C    3.731673   2.811181   0.000000
     9  C    4.855379   2.418979   1.393871   0.000000
    10  C    5.054057   1.376642   2.455236   1.430296   0.000000
    11  C    6.480078   2.476923   3.768914   2.484110   1.454082
    12  C    7.428163   3.720682   4.205743   2.812103   2.448215
    13  C    6.177733   3.758110   2.474216   1.468114   2.505144
    14  H    4.803904   1.081912   3.892890   3.409661   2.139048
    15  H    2.159681   4.577668   5.314245   6.109183   5.805833
    16  H    3.394600   2.666999   4.605358   4.839261   4.040522
    17  H    2.123990   4.597715   2.717499   4.102115   4.889300
    18  H    1.082450   5.280515   4.607766   5.822133   6.113485
    19  C    4.230944   4.296175   1.485837   2.531451   3.839351
    20  C    4.741436   5.142254   2.498290   3.406778   4.685057
    21  C    4.742639   5.142170   2.498283   3.406195   4.684556
    22  C    5.638273   6.497244   3.773434   4.670774   6.009636
    23  H    4.794278   4.943299   2.698835   3.433435   4.536604
    24  C    5.639268   6.497174   3.773427   4.670353   6.009247
    25  H    4.796418   4.943140   2.698821   3.432391   4.535670
    26  C    6.044430   7.083593   4.276084   5.192749   6.577028
    27  H    6.286485   7.244915   4.637605   5.473145   6.766442
    28  H    6.288075   7.244802   4.637594   5.472502   6.765825
    29  H    6.927379   8.165750   5.358790   6.254993   7.648966
    30  O    6.580253   4.805283   2.892116   2.394829   3.643644
    31  O    7.282232   4.184053   3.697749   2.426995   2.807600
    32  C    7.176323   2.978443   4.977873   3.798723   2.526826
    33  C    8.778379   4.910508   5.589400   4.196737   3.744339
    34  C    9.275899   5.162976   6.444102   5.068832   4.261568
    35  H   10.354980   6.226942   7.500808   6.117517   5.343623
    36  C    8.554326   4.357299   6.184878   4.906232   3.782751
    37  H    9.182535   5.011267   7.102654   5.877786   4.658171
    38  H    6.778116   2.682700   5.158877   4.182912   2.769728
    39  H    9.526916   5.834947   6.131497   4.772104   4.582177
                   11         12         13         14         15
    11  C    0.000000
    12  C    1.393262   0.000000
    13  C    2.858445   2.412917   0.000000
    14  H    2.713650   4.093376   4.640643   0.000000
    15  H    7.054476   8.249101   7.556666   4.704960   0.000000
    16  H    5.021350   6.346432   6.283902   2.404225   2.465558
    17  H    6.319613   6.909956   5.088390   5.524325   4.274697
    18  H    7.547883   8.460967   7.080618   5.867463   2.479252
    19  C    5.015343   5.152801   2.929741   5.377488   6.156597
    20  C    5.789930   5.833250   3.596299   6.198404   6.715895
    21  C    5.789102   5.832087   3.595341   6.198307   6.716964
    22  C    7.063222   6.968310   4.625354   7.561590   7.721701
    23  H    5.594656   5.703625   3.716157   5.936535   6.599743
    24  C    7.062549   6.967346   4.624620   7.561507   7.722614
    25  H    5.593113   5.701483   3.714482   5.936351   6.601699
    26  C    7.624008   7.473726   5.064396   8.163669   8.185715
    27  H    7.773352   7.641893   5.373292   8.282911   8.328157
    28  H    7.772260   7.640323   5.372164   8.282774   8.329666
    29  H    8.665651   8.449394   6.036818   9.245504   9.084548
    30  O    4.057233   3.458439   1.205567   5.753069   8.196958
    31  O    2.408928   1.365780   1.370026   4.834404   8.437603
    32  C    1.401114   2.381723   4.254981   2.662856   7.354084
    33  C    2.437586   1.387465   3.628780   5.081750   9.484972
    34  C    2.809055   2.387591   4.794740   5.039225   9.682820
    35  H    3.891283   3.370297   5.736469   6.045954  10.720064
    36  C    2.424873   2.750990   5.044129   3.996871   8.701454
    37  H    3.400329   3.833010   6.107054   4.446426   9.098449
    38  H    2.151023   3.368510   4.932758   2.005685   6.667927
    39  H    3.402948   2.133970   3.894993   6.097396  10.380987
                   16         17         18         19         20
    16  H    0.000000
    17  H    4.954213   0.000000
    18  H    4.282913   2.443840   0.000000
    19  C    5.893553   2.488336   4.850777   0.000000
    20  C    6.628174   2.901089   5.219319   1.392316   0.000000
    21  C    6.628719   2.902414   5.220698   1.392317   2.399950
    22  C    7.889743   3.607809   5.907755   2.411996   1.386564
    23  H    6.396264   3.282486   5.327813   2.143760   1.083774
    24  C    7.890191   3.608857   5.908954   2.411995   2.771314
    25  H    6.397281   3.284593   5.330245   2.143759   3.381492
    26  C    8.456866   3.921280   6.231026   2.790912   2.405605
    27  H    8.571788   4.351995   6.479355   3.390186   2.140697
    28  H    8.572523   4.353543   6.481304   3.390183   3.854355
    29  H    9.487131   4.811820   6.999368   3.873648   3.387354
    30  O    7.198851   5.138358   7.368821   2.700628   3.159384
    31  O    6.843471   6.385190   8.243868   4.298718   4.902153
    32  C    5.055197   7.356183   8.258773   6.315445   7.087580
    33  C    7.441362   8.296686   9.821719   6.480292   7.103859
    34  C    7.442174   9.083265  10.348488   7.508689   8.173204
    35  H    8.439479  10.154578  11.428601   8.521683   9.155848
    36  C    6.355883   8.664665   9.636737   7.435449   8.163748
    37  H    6.672267   9.481749  10.261024   8.408027   9.142419
    38  H    4.267929   7.267253   7.850769   6.592679   7.386993
    39  H    8.423741   8.846209  10.543013   6.823923   7.366303
                   21         22         23         24         25
    21  C    0.000000
    22  C    2.771315   0.000000
    23  H    3.381493   2.146055   0.000000
    24  C    1.386562   2.399062   3.855085   0.000000
    25  H    1.083774   3.855086   4.275058   2.146057   0.000000
    26  C    2.405605   1.388028   3.388000   1.388030   3.388002
    27  H    3.854357   1.083066   2.466728   3.382709   4.938121
    28  H    2.140692   3.382708   4.938118   1.083064   2.466727
    29  H    3.387354   2.147387   4.282876   2.147389   4.282878
    30  O    3.158616   3.894336   3.484717   3.893727   3.483450
    31  O    4.900884   5.897489   4.900835   5.896446   4.898548
    32  C    7.086815   8.395467   6.818242   8.394825   6.816809
    33  C    7.102541   8.177453   6.945682   8.176319   6.943257
    34  C    8.171986   9.329333   7.942168   9.328276   7.939913
    35  H    9.154542  10.273955   8.917898  10.272802   8.915487
    36  C    8.162773   9.423702   7.884234   9.422864   7.882418
    37  H    9.141501  10.428029   8.827346  10.427230   8.825635
    38  H    7.386462   8.738476   7.085980   8.738029   7.084984
    39  H    7.364832   8.311956   7.257101   8.310667   7.254416
                   26         27         28         29         30
    26  C    0.000000
    27  H    2.146490   0.000000
    28  H    2.146491   4.280710   0.000000
    29  H    1.082742   2.475934   2.475936   0.000000
    30  O    4.215298   4.623674   4.622759   5.099556   0.000000
    31  O    6.338371   6.569540   6.567870   7.263467   2.180857
    32  C    8.981967   9.084252   9.083192  10.033788   5.448696
    33  C    8.666100   8.800753   8.798874   9.596990   4.508177
    34  C    9.858759   9.954957   9.953188  10.825261   5.779949
    35  H   10.791326  10.872319  10.870376  11.730623   6.644086
    36  C    9.997330  10.079692  10.078294  11.019960   6.170896
    37  H   11.017948  11.076966  11.075623  12.051190   7.245101
    38  H    9.345576   9.433251   9.432510  10.418514   6.138015
    39  H    8.747225   8.892212   8.890062   9.606347   4.532042
                   31         32         33         34         35
    31  O    0.000000
    32  C    3.653583   0.000000
    33  C    2.333524   2.773834   0.000000
    34  C    3.603678   2.403086   1.380852   0.000000
    35  H    4.467958   3.384659   2.135910   1.082228   0.000000
    36  C    4.115179   1.380072   2.400046   1.392244   2.152289
    37  H    5.197125   2.134470   3.380867   2.149455   2.481784
    38  H    4.548126   1.081490   3.855209   3.377469   4.270031
    39  H    2.525247   3.855376   1.081921   2.156307   2.487669
                   36         37         38         39
    36  C    0.000000
    37  H    1.082031   0.000000
    38  H    2.127488   2.442543   0.000000
    39  H    3.393244   4.292332   4.936836   0.000000
 Symmetry turned off by external request.
 Stoichiometry    C23H14O2
 Framework group  C1[X(C23H14O2)]
 Deg. of freedom   111
 Full point group                 C1      NOp   1
 Rotational constants (GHZ):      0.3480003      0.1837311      0.1254723
 Leave Link  202 at Tue Nov 23 00:55:16 2021, MaxMem=  5242880000 cpu:         1.2
 (Enter /opt/nce/packages/global/g09/l301.exe)
 Standard basis: def2TZVP (5D, 7F)
 Ernie: Thresh=  0.10000D-02 Tol=  0.10000D-05 Strict=F.
   859 basis functions,  1387 primitive gaussians,   984 cartesian basis functions
    84 alpha electrons       84 beta electrons
       nuclear repulsion energy      1988.9672194214 Hartrees.
 IExCor= 4134 DFT=T Ex+Corr=M06L ExCW=0 ScaHFX=  0.000000
 ScaDFX=  1.000000  1.000000  1.000000  1.000000 ScalE2=  1.000000  1.000000
 IRadAn=      5 IRanWt=     -1 IRanGd=            0 ICorTp=0 IEmpDi=  4
 NAtoms=   39 NActive=   39 NUniq=   39 SFac= 1.00D+00 NAtFMM=   60 NAOKFM=F Big=F
 Integral buffers will be    131072 words long.
 Raffenetti 2 integral format.
 Two-electron integral symmetry is turned off.
 ------------------------------------------------------------------------------
 Polarizable Continuum Model (PCM)
 =================================
 Model                : PCM (using non-symmetric T matrix).
 Atomic radii         : SMD-Coulomb.
 Polarization charges : Total charges.
 Charge compensation  : None.
 Solution method      : On-the-fly selection.
 Cavity type          : VdW (van der Waals Surface) (Alpha=1.000).
 Cavity algorithm     : GePol (No added spheres)
                        Default sphere list used, NSphG=   39.
                        Lebedev-Laikov grids with approx.  5.0 points / Ang**2.
                        Smoothing algorithm: York/Karplus (Gamma=1.0000).
                        Polarization charges: spherical gaussians, with
                                              point-specific exponents (IZeta= 3).
                        Self-potential: point-specific (ISelfS= 7).
                        Self-field    : sphere-specific E.n sum rule (ISelfD= 2).
 1st derivatives      : Analytical E(r).r(x)/FMM algorithm (CHGder, D1EAlg=3).
                        Cavity 1st derivative terms included.
 Solvent              : Acetonitrile, Eps=  35.688000 Eps(inf)=   1.806874
 ------------------------------------------------------------------------------
 GePol: Number of generator spheres                  =      39
 GePol: Total number of spheres                      =      39
 GePol: Number of exposed spheres                    =      39 (100.00%)
 GePol: Number of points                             =    3021
 GePol: Average weight of points                     =       0.11
 GePol: Minimum weight of points                     =   0.65D-10
 GePol: Maximum weight of points                     =    0.21559
 GePol: Number of points with low weight             =     160
 GePol: Fraction of low-weight points (<1% of avg)   =       5.30%
 GePol: Cavity surface area                          =    332.861 Ang**2
 GePol: Cavity volume                                =    337.740 Ang**3
 ------------------------------------------------------------------------------
 Atomic radii for non-electrostatic terms: SMD-CDS.
 ------------------------------------------------------------------------------
 PCM non-electrostatic energy =        -0.0090726788 Hartrees.
 Nuclear repulsion after PCM non-electrostatic terms =     1988.9581467426 Hartrees.
 Leave Link  301 at Tue Nov 23 00:55:16 2021, MaxMem=  5242880000 cpu:         3.1
 (Enter /opt/nce/packages/global/g09/l302.exe)
 NPDir=0 NMtPBC=     1 NCelOv=     1 NCel=       1 NClECP=     1 NCelD=      1
         NCelK=      1 NCelE2=     1 NClLst=     1 CellRange=     0.0.
 One-electron integrals computed using PRISM.
   1 Symmetry operations used in ECPInt.
 ECPInt:  NShTT=   54946 NPrTT=  171412 LenC2=   47125 LenP2D=  103111.
 LDataN:  DoStor=T MaxTD1= 6 Len=  172
 NBasis=   859 RedAO= T EigKep=  2.64D-06  NBF=   859
 NBsUse=   859 1.00D-06 EigRej= -1.00D+00 NBFU=   859
 Precomputing XC quadrature grid using
 IXCGrd= 4 IRadAn=           5 IRanWt=          -1 IRanGd=           0 AccXCQ= 0.00D+00.
 Generated NRdTot=       0 NPtTot=           0 NUsed=           0 NTot=          32
 NSgBfM=   967   967   967   967   967 MxSgAt=    39 MxSgA2=    39.
 Leave Link  302 at Tue Nov 23 00:55:18 2021, MaxMem=  5242880000 cpu:        19.4
 (Enter /opt/nce/packages/global/g09/l303.exe)
 DipDrv:  MaxL=1.
 Leave Link  303 at Tue Nov 23 00:55:18 2021, MaxMem=  5242880000 cpu:         2.2
 (Enter /opt/nce/packages/global/g09/l401.exe)
 ExpMin= 9.52D-02 ExpMax= 2.70D+04 ExpMxC= 9.22D+02 IAcc=3 IRadAn=         5 AccDes= 0.00D+00
 Harris functional with IExCor= 1009 and IRadAn=       5 diagonalized for initial guess.
 HarFok:  IExCor= 1009 AccDes= 0.00D+00 IRadAn=         5 IDoV= 1 UseB2=F ITyADJ=14
 ICtDFT=  3500011 ScaDFX=  1.000000  1.000000  1.000000  1.000000
 FoFCou: FMM=F IPFlag=           0 FMFlag=      100000 FMFlg1=           0
         NFxFlg=           0 DoJE=T BraDBF=F KetDBF=T FulRan=T
         wScrn=  0.000000 ICntrl=     500 IOpCl=  0 I1Cent=   200000004 NGrid=           0
         NMat0=    1 NMatS0=      1 NMatT0=    0 NMatD0=    1 NMtDS0=    0 NMtDT0=    0
 Symmetry not used in FoFCou.
 Harris En= -1034.86358027092    
 JPrj=0 DoOrth=F DoCkMO=F.
 Leave Link  401 at Tue Nov 23 00:55:25 2021, MaxMem=  5242880000 cpu:        88.8
 (Enter /opt/nce/packages/global/g09/l502.exe)
 Closed shell SCF:
 Using DIIS extrapolation, IDIIS=  1040.
 Two-electron integral symmetry not used.
 IVT=     2941108 IEndB=     2941108 NGot=  5242880000 MDV=  5240924773
 LenX=  5240924773 LenY=  5239955533
 Requested convergence on RMS density matrix=1.00D-08 within 128 cycles.
 Requested convergence on MAX density matrix=1.00D-06.
 Requested convergence on             energy=1.00D-06.
 No special actions if energy rises.
 Fock matrices will be formed incrementally for  20 cycles.

 Cycle   1  Pass 1  IDiag  1:
 FoFJK:  IHMeth= 1 ICntrl=     500 DoSepK=F KAlg= 0 I1Cent=   0 FoldK=F
 IRaf= 760000000 NMat=   1 IRICut=       1 DoRegI=T DoRafI=F ISym2E= 0.
 FoFCou: FMM=F IPFlag=           0 FMFlag=      100000 FMFlg1=           0
         NFxFlg=           0 DoJE=T BraDBF=F KetDBF=F FulRan=T
         wScrn=  0.000000 ICntrl=     500 IOpCl=  0 I1Cent=           0 NGrid=           0
         NMat0=    1 NMatS0=      1 NMatT0=    0 NMatD0=    1 NMtDS0=    0 NMtDT0=    0
 Symmetry not used in FoFCou.
 Inv3:  Mode=1 IEnd=    27379323.
 Iteration    1 A*A^-1 deviation from unit magnitude is 5.44D-15 for   3017.
 Iteration    1 A*A^-1 deviation from orthogonality  is 3.00D-15 for   1670   1318.
 Iteration    1 A^-1*A deviation from unit magnitude is 5.55D-15 for   3017.
 Iteration    1 A^-1*A deviation from orthogonality  is 2.05D-11 for   1369   1327.
 E= -1035.12118233560    
 DIIS: error= 2.18D-02 at cycle   1 NSaved=   1.
 NSaved= 1 IEnMin= 1 EnMin= -1035.12118233560     IErMin= 1 ErrMin= 2.18D-02
 ErrMax= 2.18D-02  0.00D+00 EMaxC= 1.00D-01 BMatC= 6.17D-01 BMatP= 6.17D-01
 IDIUse=3 WtCom= 7.82D-01 WtEn= 2.18D-01
 Coeff-Com:  0.100D+01
 Coeff-En:   0.100D+01
 Coeff:      0.100D+01
 Gap=     0.112 Goal=   None    Shift=    0.000
 GapD=    0.112 DampG=1.000 DampE=0.500 DampFc=0.5000 IDamp=-1.
 Damping current iteration by 5.00D-01
 RMSDP=5.02D-03 MaxDP=4.60D-01              OVMax= 2.49D-01

 Cycle   2  Pass 1  IDiag  1:
 RMSU=  2.51D-03    CP:  1.02D+00
 E= -1035.26604291144     Delta-E=       -0.144860575839 Rises=F Damp=T
 DIIS: error= 9.17D-03 at cycle   2 NSaved=   2.
 NSaved= 2 IEnMin= 2 EnMin= -1035.26604291144     IErMin= 2 ErrMin= 9.17D-03
 ErrMax= 9.17D-03  0.00D+00 EMaxC= 1.00D-01 BMatC= 1.16D-01 BMatP= 6.17D-01
 IDIUse=3 WtCom= 9.08D-01 WtEn= 9.17D-02
 Coeff-Com:  0.155D+00 0.845D+00
 Coeff-En:   0.314D+00 0.686D+00
 Coeff:      0.169D+00 0.831D+00
 Gap=     0.135 Goal=   None    Shift=    0.000
 RMSDP=2.02D-03 MaxDP=1.46D-01 DE=-1.45D-01 OVMax= 2.51D-01

 Cycle   3  Pass 1  IDiag  1:
 RMSU=  1.99D-03    CP:  9.86D-01  1.10D+00
 E= -1035.47380020326     Delta-E=       -0.207757291815 Rises=F Damp=F
 DIIS: error= 1.41D-02 at cycle   3 NSaved=   3.
 NSaved= 3 IEnMin= 3 EnMin= -1035.47380020326     IErMin= 2 ErrMin= 9.17D-03
 ErrMax= 1.41D-02  0.00D+00 EMaxC= 1.00D-01 BMatC= 1.71D-01 BMatP= 1.16D-01
 IDIUse=2 WtCom= 0.00D+00 WtEn= 1.00D+00
 Coeff-En:   0.000D+00 0.136D+00 0.864D+00
 Coeff:      0.000D+00 0.136D+00 0.864D+00
 Gap=     0.113 Goal=   None    Shift=    0.000
 RMSDP=2.17D-03 MaxDP=1.68D-01 DE=-2.08D-01 OVMax= 3.38D-01

 Cycle   4  Pass 1  IDiag  1:
 RMSU=  1.75D-03    CP:  1.01D+00  1.37D+00  4.58D-01
 E= -1034.88929939979     Delta-E=        0.584500803469 Rises=F Damp=F
 DIIS: error= 3.05D-02 at cycle   4 NSaved=   4.
 NSaved= 4 IEnMin= 3 EnMin= -1035.47380020326     IErMin= 2 ErrMin= 9.17D-03
 ErrMax= 3.05D-02  0.00D+00 EMaxC= 1.00D-01 BMatC= 8.63D-01 BMatP= 1.16D-01
 IDIUse=2 WtCom= 0.00D+00 WtEn= 1.00D+00
 Coeff-En:   0.000D+00 0.000D+00 0.761D+00 0.239D+00
 Coeff:      0.000D+00 0.000D+00 0.761D+00 0.239D+00
 Gap=     0.125 Goal=   None    Shift=    0.000
 RMSDP=1.39D-03 MaxDP=1.27D-01 DE= 5.85D-01 OVMax= 1.69D-01

 Cycle   5  Pass 1  IDiag  1:
 RMSU=  4.48D-04    CP:  9.88D-01  1.12D+00  8.18D-01  4.88D-01
 E= -1035.57495931172     Delta-E=       -0.685659911935 Rises=F Damp=F
 DIIS: error= 8.20D-03 at cycle   5 NSaved=   5.
 NSaved= 5 IEnMin= 5 EnMin= -1035.57495931172     IErMin= 5 ErrMin= 8.20D-03
 ErrMax= 8.20D-03  0.00D+00 EMaxC= 1.00D-01 BMatC= 5.40D-02 BMatP= 1.16D-01
 IDIUse=3 WtCom= 9.18D-01 WtEn= 8.20D-02
 Coeff-Com:  0.110D-02 0.978D-02 0.321D+00-0.357D-01 0.703D+00
 Coeff-En:   0.000D+00 0.000D+00 0.303D+00 0.000D+00 0.697D+00
 Coeff:      0.101D-02 0.898D-02 0.320D+00-0.327D-01 0.703D+00
 Gap=     0.109 Goal=   None    Shift=    0.000
 RMSDP=3.80D-04 MaxDP=2.94D-02 DE=-6.86D-01 OVMax= 6.95D-02

 Cycle   6  Pass 1  IDiag  1:
 RMSU=  1.69D-04    CP:  9.90D-01  1.12D+00  8.65D-01  3.34D-01  5.82D-01
 E= -1035.62005062802     Delta-E=       -0.045091316295 Rises=F Damp=F
 DIIS: error= 1.65D-03 at cycle   6 NSaved=   6.
 NSaved= 6 IEnMin= 6 EnMin= -1035.62005062802     IErMin= 6 ErrMin= 1.65D-03
 ErrMax= 1.65D-03  0.00D+00 EMaxC= 1.00D-01 BMatC= 2.72D-03 BMatP= 5.40D-02
 IDIUse=3 WtCom= 9.83D-01 WtEn= 1.65D-02
 Coeff-Com: -0.315D-02 0.607D-02 0.163D+00-0.534D-01 0.493D+00 0.395D+00
 Coeff-En:   0.000D+00 0.000D+00 0.000D+00 0.000D+00 0.000D+00 0.100D+01
 Coeff:     -0.310D-02 0.597D-02 0.160D+00-0.525D-01 0.484D+00 0.405D+00
 Gap=     0.107 Goal=   None    Shift=    0.000
 RMSDP=1.05D-04 MaxDP=1.15D-02 DE=-4.51D-02 OVMax= 1.89D-02

 Cycle   7  Pass 1  IDiag  1:
 RMSU=  5.27D-05    CP:  9.88D-01  1.12D+00  8.72D-01  3.40D-01  7.29D-01
                    CP:  6.61D-01
 E= -1035.62276715533     Delta-E=       -0.002716527312 Rises=F Damp=F
 DIIS: error= 3.15D-04 at cycle   7 NSaved=   7.
 NSaved= 7 IEnMin= 7 EnMin= -1035.62276715533     IErMin= 7 ErrMin= 3.15D-04
 ErrMax= 3.15D-04  0.00D+00 EMaxC= 1.00D-01 BMatC= 9.02D-05 BMatP= 2.72D-03
 IDIUse=3 WtCom= 9.97D-01 WtEn= 3.15D-03
 Coeff-Com: -0.667D-03 0.144D-02 0.515D-01-0.188D-01 0.143D+00 0.147D+00
 Coeff-Com:  0.676D+00
 Coeff-En:   0.000D+00 0.000D+00 0.000D+00 0.000D+00 0.000D+00 0.000D+00
 Coeff-En:   0.100D+01
 Coeff:     -0.665D-03 0.144D-02 0.513D-01-0.188D-01 0.143D+00 0.147D+00
 Coeff:      0.677D+00
 Gap=     0.107 Goal=   None    Shift=    0.000
 RMSDP=2.20D-05 MaxDP=2.11D-03 DE=-2.72D-03 OVMax= 5.18D-03

 Cycle   8  Pass 1  IDiag  1:
 RMSU=  1.96D-05    CP:  9.87D-01  1.12D+00  8.71D-01  3.37D-01  7.28D-01
                    CP:  7.02D-01  1.04D+00
 E= -1035.62281862236     Delta-E=       -0.000051467032 Rises=F Damp=F
 DIIS: error= 1.79D-04 at cycle   8 NSaved=   8.
 NSaved= 8 IEnMin= 8 EnMin= -1035.62281862236     IErMin= 8 ErrMin= 1.79D-04
 ErrMax= 1.79D-04  0.00D+00 EMaxC= 1.00D-01 BMatC= 3.95D-05 BMatP= 9.02D-05
 IDIUse=3 WtCom= 9.98D-01 WtEn= 1.79D-03
 Coeff-Com:  0.151D-03-0.337D-03 0.854D-02-0.351D-02 0.103D-01 0.253D-01
 Coeff-Com:  0.489D+00 0.470D+00
 Coeff-En:   0.000D+00 0.000D+00 0.000D+00 0.000D+00 0.000D+00 0.000D+00
 Coeff-En:   0.286D+00 0.714D+00
 Coeff:      0.151D-03-0.337D-03 0.852D-02-0.351D-02 0.103D-01 0.253D-01
 Coeff:      0.489D+00 0.471D+00
 Gap=     0.107 Goal=   None    Shift=    0.000
 RMSDP=1.05D-05 MaxDP=8.17D-04 DE=-5.15D-05 OVMax= 2.98D-03

 Cycle   9  Pass 1  IDiag  1:
 RMSU=  8.71D-06    CP:  9.87D-01  1.12D+00  8.72D-01  3.37D-01  7.21D-01
                    CP:  7.12D-01  1.09D+00  8.39D-01
 E= -1035.62285558191     Delta-E=       -0.000036959544 Rises=F Damp=F
 DIIS: error= 5.21D-05 at cycle   9 NSaved=   9.
 NSaved= 9 IEnMin= 9 EnMin= -1035.62285558191     IErMin= 9 ErrMin= 5.21D-05
 ErrMax= 5.21D-05  0.00D+00 EMaxC= 1.00D-01 BMatC= 2.38D-06 BMatP= 3.95D-05
 IDIUse=1 WtCom= 1.00D+00 WtEn= 0.00D+00
 Coeff-Com:  0.236D-03-0.786D-03 0.178D-02-0.394D-03-0.434D-02 0.339D-02
 Coeff-Com:  0.235D+00 0.284D+00 0.481D+00
 Coeff:      0.236D-03-0.786D-03 0.178D-02-0.394D-03-0.434D-02 0.339D-02
 Coeff:      0.235D+00 0.284D+00 0.481D+00
 Gap=     0.107 Goal=   None    Shift=    0.000
 RMSDP=4.12D-06 MaxDP=3.46D-04 DE=-3.70D-05 OVMax= 8.85D-04

 Cycle  10  Pass 1  IDiag  1:
 RMSU=  3.02D-06    CP:  9.87D-01  1.12D+00  8.72D-01  3.37D-01  7.18D-01
                    CP:  7.23D-01  1.10D+00  9.11D-01  9.79D-01
 E= -1035.62285780550     Delta-E=       -0.000002223590 Rises=F Damp=F
 DIIS: error= 2.15D-05 at cycle  10 NSaved=  10.
 NSaved=10 IEnMin=10 EnMin= -1035.62285780550     IErMin=10 ErrMin= 2.15D-05
 ErrMax= 2.15D-05  0.00D+00 EMaxC= 1.00D-01 BMatC= 3.27D-07 BMatP= 2.38D-06
 IDIUse=1 WtCom= 1.00D+00 WtEn= 0.00D+00
 Coeff-Com:  0.939D-04-0.339D-03-0.262D-04 0.223D-03-0.356D-02-0.115D-02
 Coeff-Com:  0.651D-01 0.972D-01 0.302D+00 0.540D+00
 Coeff:      0.939D-04-0.339D-03-0.262D-04 0.223D-03-0.356D-02-0.115D-02
 Coeff:      0.651D-01 0.972D-01 0.302D+00 0.540D+00
 Gap=     0.107 Goal=   None    Shift=    0.000
 RMSDP=1.71D-06 MaxDP=1.03D-04 DE=-2.22D-06 OVMax= 2.82D-04

 Cycle  11  Pass 1  IDiag  1:
 RMSU=  1.19D-06    CP:  9.87D-01  1.12D+00  8.72D-01  3.37D-01  7.17D-01
                    CP:  7.27D-01  1.11D+00  9.29D-01  1.05D+00  1.09D+00
 E= -1035.62285812327     Delta-E=       -0.000000317775 Rises=F Damp=F
 DIIS: error= 7.07D-06 at cycle  11 NSaved=  11.
 NSaved=11 IEnMin=11 EnMin= -1035.62285812327     IErMin=11 ErrMin= 7.07D-06
 ErrMax= 7.07D-06  0.00D+00 EMaxC= 1.00D-01 BMatC= 4.11D-08 BMatP= 3.27D-07
 IDIUse=1 WtCom= 1.00D+00 WtEn= 0.00D+00
 Coeff-Com:  0.110D-04-0.460D-04-0.364D-03 0.205D-03-0.186D-02-0.121D-02
 Coeff-Com:  0.844D-02 0.211D-01 0.119D+00 0.322D+00 0.533D+00
 Coeff:      0.110D-04-0.460D-04-0.364D-03 0.205D-03-0.186D-02-0.121D-02
 Coeff:      0.844D-02 0.211D-01 0.119D+00 0.322D+00 0.533D+00
 Gap=     0.107 Goal=   None    Shift=    0.000
 RMSDP=8.37D-07 MaxDP=5.93D-05 DE=-3.18D-07 OVMax= 6.83D-05

 Cycle  12  Pass 1  IDiag  1:
 RMSU=  4.32D-07    CP:  9.87D-01  1.12D+00  8.72D-01  3.37D-01  7.17D-01
                    CP:  7.28D-01  1.11D+00  9.45D-01  1.07D+00  1.19D+00
                    CP:  1.16D+00
 E= -1035.62285816271     Delta-E=       -0.000000039437 Rises=F Damp=F
 DIIS: error= 1.76D-06 at cycle  12 NSaved=  12.
 NSaved=12 IEnMin=12 EnMin= -1035.62285816271     IErMin=12 ErrMin= 1.76D-06
 ErrMax= 1.76D-06  0.00D+00 EMaxC= 1.00D-01 BMatC= 4.52D-09 BMatP= 4.11D-08
 IDIUse=1 WtCom= 1.00D+00 WtEn= 0.00D+00
 Coeff-Com: -0.130D-04 0.294D-04-0.188D-03 0.659D-04-0.343D-03-0.342D-03
 Coeff-Com: -0.566D-02-0.426D-02 0.153D-01 0.848D-01 0.286D+00 0.624D+00
 Coeff:     -0.130D-04 0.294D-04-0.188D-03 0.659D-04-0.343D-03-0.342D-03
 Coeff:     -0.566D-02-0.426D-02 0.153D-01 0.848D-01 0.286D+00 0.624D+00
 Gap=     0.107 Goal=   None    Shift=    0.000
 RMSDP=4.61D-07 MaxDP=3.18D-05 DE=-3.94D-08 OVMax= 2.44D-05

 Cycle  13  Pass 1  IDiag  1:
 RMSU=  1.40D-07    CP:  9.87D-01  1.12D+00  8.72D-01  3.37D-01  7.17D-01
                    CP:  7.29D-01  1.11D+00  9.54D-01  1.09D+00  1.24D+00
                    CP:  1.30D+00  1.07D+00
 E= -1035.62285816629     Delta-E=       -0.000000003580 Rises=F Damp=F
 DIIS: error= 7.97D-07 at cycle  13 NSaved=  13.
 NSaved=13 IEnMin=13 EnMin= -1035.62285816629     IErMin=13 ErrMin= 7.97D-07
 ErrMax= 7.97D-07  0.00D+00 EMaxC= 1.00D-01 BMatC= 9.00D-10 BMatP= 4.52D-09
 IDIUse=1 WtCom= 1.00D+00 WtEn= 0.00D+00
 Coeff-Com: -0.106D-04 0.239D-04-0.610D-04 0.106D-04 0.567D-04-0.359D-04
 Coeff-Com: -0.444D-02-0.535D-02-0.671D-02 0.700D-02 0.102D+00 0.383D+00
 Coeff-Com:  0.524D+00
 Coeff:     -0.106D-04 0.239D-04-0.610D-04 0.106D-04 0.567D-04-0.359D-04
 Coeff:     -0.444D-02-0.535D-02-0.671D-02 0.700D-02 0.102D+00 0.383D+00
 Coeff:      0.524D+00
 Gap=     0.107 Goal=   None    Shift=    0.000
 RMSDP=1.49D-07 MaxDP=1.02D-05 DE=-3.58D-09 OVMax= 1.10D-05

 Cycle  14  Pass 1  IDiag  1:
 RMSU=  4.93D-08    CP:  9.87D-01  1.12D+00  8.72D-01  3.37D-01  7.17D-01
                    CP:  7.30D-01  1.11D+00  9.56D-01  1.10D+00  1.26D+00
                    CP:  1.34D+00  1.14D+00  1.04D+00
 E= -1035.62285816717     Delta-E=       -0.000000000882 Rises=F Damp=F
 DIIS: error= 2.35D-07 at cycle  14 NSaved=  14.
 NSaved=14 IEnMin=14 EnMin= -1035.62285816717     IErMin=14 ErrMin= 2.35D-07
 ErrMax= 2.35D-07  0.00D+00 EMaxC= 1.00D-01 BMatC= 6.96D-11 BMatP= 9.00D-10
 IDIUse=1 WtCom= 1.00D+00 WtEn= 0.00D+00
 Coeff-Com: -0.363D-05 0.727D-05-0.620D-05-0.280D-05 0.624D-04 0.100D-05
 Coeff-Com: -0.136D-02-0.188D-02-0.491D-02-0.715D-02 0.125D-01 0.106D+00
 Coeff-Com:  0.259D+00 0.638D+00
 Coeff:     -0.363D-05 0.727D-05-0.620D-05-0.280D-05 0.624D-04 0.100D-05
 Coeff:     -0.136D-02-0.188D-02-0.491D-02-0.715D-02 0.125D-01 0.106D+00
 Coeff:      0.259D+00 0.638D+00
 Gap=     0.107 Goal=   None    Shift=    0.000
 RMSDP=6.26D-08 MaxDP=5.16D-06 DE=-8.82D-10 OVMax= 3.70D-06

 Cycle  15  Pass 1  IDiag  1:
 RMSU=  2.01D-08    CP:  9.87D-01  1.12D+00  8.72D-01  3.37D-01  7.17D-01
                    CP:  7.30D-01  1.11D+00  9.57D-01  1.10D+00  1.27D+00
                    CP:  1.36D+00  1.16D+00  1.13D+00  1.00D+00
 E= -1035.62285816725     Delta-E=       -0.000000000081 Rises=F Damp=F
 DIIS: error= 1.12D-07 at cycle  15 NSaved=  15.
 NSaved=15 IEnMin=15 EnMin= -1035.62285816725     IErMin=15 ErrMin= 1.12D-07
 ErrMax= 1.12D-07  0.00D+00 EMaxC= 1.00D-01 BMatC= 1.91D-11 BMatP= 6.96D-11
 IDIUse=1 WtCom= 1.00D+00 WtEn= 0.00D+00
 Coeff-Com: -0.608D-06 0.103D-05 0.358D-05-0.198D-05 0.181D-04-0.993D-05
 Coeff-Com: -0.157D-03-0.294D-03-0.190D-02-0.538D-02-0.866D-02 0.526D-02
 Coeff-Com:  0.777D-01 0.397D+00 0.536D+00
 Coeff:     -0.608D-06 0.103D-05 0.358D-05-0.198D-05 0.181D-04-0.993D-05
 Coeff:     -0.157D-03-0.294D-03-0.190D-02-0.538D-02-0.866D-02 0.526D-02
 Coeff:      0.777D-01 0.397D+00 0.536D+00
 Gap=     0.107 Goal=   None    Shift=    0.000
 RMSDP=2.20D-08 MaxDP=2.06D-06 DE=-8.09D-11 OVMax= 1.82D-06

 Cycle  16  Pass 1  IDiag  1:
 RMSU=  7.31D-09    CP:  9.87D-01  1.12D+00  8.72D-01  3.37D-01  7.17D-01
                    CP:  7.30D-01  1.11D+00  9.58D-01  1.10D+00  1.27D+00
                    CP:  1.37D+00  1.17D+00  1.16D+00  1.08D+00  1.15D+00
 E= -1035.62285816726     Delta-E=       -0.000000000007 Rises=F Damp=F
 DIIS: error= 3.03D-08 at cycle  16 NSaved=  16.
 NSaved=16 IEnMin=16 EnMin= -1035.62285816726     IErMin=16 ErrMin= 3.03D-08
 ErrMax= 3.03D-08  0.00D+00 EMaxC= 1.00D-01 BMatC= 9.12D-13 BMatP= 1.91D-11
 IDIUse=1 WtCom= 1.00D+00 WtEn= 0.00D+00
 Coeff-Com:  0.141D-07-0.112D-06 0.213D-05-0.539D-06 0.129D-05-0.557D-05
 Coeff-Com:  0.526D-04 0.491D-04-0.392D-03-0.171D-02-0.506D-02-0.825D-02
 Coeff-Com:  0.844D-02 0.113D+00 0.247D+00 0.647D+00
 Coeff:      0.141D-07-0.112D-06 0.213D-05-0.539D-06 0.129D-05-0.557D-05
 Coeff:      0.526D-04 0.491D-04-0.392D-03-0.171D-02-0.506D-02-0.825D-02
 Coeff:      0.844D-02 0.113D+00 0.247D+00 0.647D+00
 Gap=     0.107 Goal=   None    Shift=    0.000
 RMSDP=6.87D-09 MaxDP=6.20D-07 DE=-7.28D-12 OVMax= 3.79D-07

 Error on total polarization charges =  0.05082
 SCF Done:  E(RM06L) =  -1035.62285817     A.U. after   16 cycles
            NFock= 16  Conv=0.69D-08     -V/T= 2.0041
 KE= 1.031398293562D+03 PE=-6.388151672513D+03 EE= 2.332172374042D+03
 SMD-CDS (non-electrostatic) energy       (kcal/mol) =      -5.69
 (included in total energy above)
 Leave Link  502 at Tue Nov 23 01:06:58 2021, MaxMem=  5242880000 cpu:      8249.7
 (Enter /opt/nce/packages/global/g09/l601.exe)
 Copying SCF densities to generalized density rwf, IOpCl= 0 IROHF=0.

 **********************************************************************

            Population analysis using the SCF density.

 **********************************************************************

 Alpha  occ. eigenvalues --  -19.02548 -18.94809 -10.17856 -10.11896 -10.08037
 Alpha  occ. eigenvalues --  -10.07673 -10.07601 -10.06830 -10.06828 -10.06795
 Alpha  occ. eigenvalues --  -10.06082 -10.05525 -10.05446 -10.05440 -10.05385
 Alpha  occ. eigenvalues --  -10.05353 -10.05255 -10.05236 -10.05231 -10.04895
 Alpha  occ. eigenvalues --  -10.04667 -10.04662 -10.04558 -10.04558 -10.04477
 Alpha  occ. eigenvalues --   -1.08953  -1.00177  -0.85880  -0.83251  -0.82195
 Alpha  occ. eigenvalues --   -0.80353  -0.76641  -0.74228  -0.72502  -0.71689
 Alpha  occ. eigenvalues --   -0.71231  -0.70992  -0.68225  -0.63800  -0.61187
 Alpha  occ. eigenvalues --   -0.60034  -0.58184  -0.57267  -0.56805  -0.53801
 Alpha  occ. eigenvalues --   -0.53180  -0.51890  -0.48798  -0.48262  -0.46534
 Alpha  occ. eigenvalues --   -0.44524  -0.44198  -0.43979  -0.42717  -0.42227
 Alpha  occ. eigenvalues --   -0.41823  -0.41019  -0.40559  -0.39813  -0.39584
 Alpha  occ. eigenvalues --   -0.38612  -0.38175  -0.38032  -0.37107  -0.36154
 Alpha  occ. eigenvalues --   -0.35780  -0.34972  -0.33712  -0.33140  -0.32725
 Alpha  occ. eigenvalues --   -0.32316  -0.31843  -0.30762  -0.30369  -0.30163
 Alpha  occ. eigenvalues --   -0.29370  -0.27222  -0.25793  -0.25690  -0.23461
 Alpha  occ. eigenvalues --   -0.22953  -0.22221  -0.21866  -0.19802
 Alpha virt. eigenvalues --   -0.09119  -0.07390  -0.03488  -0.02951  -0.02919
 Alpha virt. eigenvalues --   -0.02242  -0.00363   0.01767   0.05984   0.06097
 Alpha virt. eigenvalues --    0.06540   0.07864   0.07995   0.08895   0.09519
 Alpha virt. eigenvalues --    0.09824   0.10351   0.11016   0.11509   0.12095
 Alpha virt. eigenvalues --    0.12335   0.12589   0.12678   0.13335   0.13398
 Alpha virt. eigenvalues --    0.14090   0.14627   0.16192   0.17022   0.17691
 Alpha virt. eigenvalues --    0.17924   0.18707   0.19027   0.19759   0.20285
 Alpha virt. eigenvalues --    0.20306   0.20573   0.21790   0.21881   0.21936
 Alpha virt. eigenvalues --    0.22799   0.22906   0.23104   0.23297   0.23645
 Alpha virt. eigenvalues --    0.24227   0.24241   0.24758   0.24850   0.25217
 Alpha virt. eigenvalues --    0.25535   0.25734   0.26118   0.26394   0.26743
 Alpha virt. eigenvalues --    0.27332   0.27599   0.28467   0.28694   0.28826
 Alpha virt. eigenvalues --    0.29314   0.29548   0.30485   0.30564   0.30682
 Alpha virt. eigenvalues --    0.31342   0.32388   0.32490   0.32916   0.33503
 Alpha virt. eigenvalues --    0.33570   0.34006   0.34673   0.34791   0.34840
 Alpha virt. eigenvalues --    0.34959   0.35768   0.35779   0.35930   0.36459
 Alpha virt. eigenvalues --    0.37146   0.37335   0.37575   0.38303   0.38398
 Alpha virt. eigenvalues --    0.38507   0.38739   0.39266   0.39993   0.40115
 Alpha virt. eigenvalues --    0.40855   0.41053   0.41361   0.41520   0.41891
 Alpha virt. eigenvalues --    0.42120   0.42766   0.43551   0.44175   0.44442
 Alpha virt. eigenvalues --    0.44957   0.45566   0.45694   0.46586   0.47110
 Alpha virt. eigenvalues --    0.47179   0.47348   0.47968   0.48357   0.48971
 Alpha virt. eigenvalues --    0.49410   0.50123   0.50167   0.50668   0.51170
 Alpha virt. eigenvalues --    0.51693   0.51891   0.52160   0.52261   0.53818
 Alpha virt. eigenvalues --    0.54465   0.55422   0.56005   0.56628   0.57415
 Alpha virt. eigenvalues --    0.58228   0.58550   0.59256   0.60587   0.60713
 Alpha virt. eigenvalues --    0.61454   0.62911   0.63226   0.63912   0.64534
 Alpha virt. eigenvalues --    0.64583   0.64970   0.65244   0.65479   0.65843
 Alpha virt. eigenvalues --    0.66784   0.66987   0.67045   0.67275   0.68541
 Alpha virt. eigenvalues --    0.68589   0.68697   0.69560   0.69609   0.69977
 Alpha virt. eigenvalues --    0.70118   0.71100   0.71384   0.71974   0.72286
 Alpha virt. eigenvalues --    0.72541   0.73188   0.73801   0.73960   0.74903
 Alpha virt. eigenvalues --    0.75063   0.75228   0.75753   0.76400   0.77041
 Alpha virt. eigenvalues --    0.78112   0.78437   0.79265   0.79508   0.80131
 Alpha virt. eigenvalues --    0.80278   0.81391   0.81608   0.82017   0.82678
 Alpha virt. eigenvalues --    0.83596   0.84280   0.85198   0.85387   0.85850
 Alpha virt. eigenvalues --    0.86127   0.86297   0.86820   0.86839   0.87035
 Alpha virt. eigenvalues --    0.88534   0.89438   0.90231   0.90319   0.91248
 Alpha virt. eigenvalues --    0.91477   0.92995   0.93518   0.94224   0.95322
 Alpha virt. eigenvalues --    0.95440   0.95803   0.97150   0.99373   1.00104
 Alpha virt. eigenvalues --    1.01326   1.02004   1.02751   1.03506   1.03787
 Alpha virt. eigenvalues --    1.04145   1.05336   1.06738   1.07020   1.07799
 Alpha virt. eigenvalues --    1.08620   1.08814   1.10141   1.11606   1.12843
 Alpha virt. eigenvalues --    1.12954   1.13281   1.13843   1.14611   1.15543
 Alpha virt. eigenvalues --    1.16211   1.16356   1.18070   1.19482   1.19552
 Alpha virt. eigenvalues --    1.20384   1.20770   1.21606   1.23331   1.23400
 Alpha virt. eigenvalues --    1.24070   1.24368   1.24683   1.25296   1.26426
 Alpha virt. eigenvalues --    1.26620   1.26947   1.26958   1.27386   1.29179
 Alpha virt. eigenvalues --    1.29395   1.30407   1.31570   1.32200   1.32913
 Alpha virt. eigenvalues --    1.34227   1.34670   1.34872   1.36164   1.37603
 Alpha virt. eigenvalues --    1.38211   1.38218   1.39465   1.39524   1.40703
 Alpha virt. eigenvalues --    1.41754   1.41993   1.42818   1.43562   1.44282
 Alpha virt. eigenvalues --    1.45248   1.45332   1.46085   1.46635   1.48081
 Alpha virt. eigenvalues --    1.48561   1.48874   1.49613   1.49705   1.50720
 Alpha virt. eigenvalues --    1.51339   1.52218   1.52667   1.53084   1.53257
 Alpha virt. eigenvalues --    1.54284   1.54314   1.54866   1.55549   1.55885
 Alpha virt. eigenvalues --    1.56696   1.58128   1.59279   1.60365   1.60744
 Alpha virt. eigenvalues --    1.61334   1.63125   1.63744   1.64081   1.64308
 Alpha virt. eigenvalues --    1.65069   1.66380   1.67010   1.67477   1.67818
 Alpha virt. eigenvalues --    1.68741   1.69394   1.69916   1.70101   1.70608
 Alpha virt. eigenvalues --    1.70700   1.71054   1.72029   1.72195   1.72559
 Alpha virt. eigenvalues --    1.73497   1.73727   1.74124   1.74797   1.75751
 Alpha virt. eigenvalues --    1.76780   1.77761   1.78164   1.79004   1.79815
 Alpha virt. eigenvalues --    1.80511   1.81036   1.83202   1.84142   1.86529
 Alpha virt. eigenvalues --    1.86584   1.87875   1.87928   1.88902   1.90046
 Alpha virt. eigenvalues --    1.90910   1.91978   1.93594   1.94109   1.95215
 Alpha virt. eigenvalues --    1.95989   1.97793   1.97918   1.98626   2.00570
 Alpha virt. eigenvalues --    2.00834   2.01824   2.03268   2.03541   2.03853
 Alpha virt. eigenvalues --    2.04811   2.06314   2.07630   2.08237   2.09068
 Alpha virt. eigenvalues --    2.11327   2.12126   2.13124   2.13178   2.13823
 Alpha virt. eigenvalues --    2.14819   2.14855   2.15325   2.16752   2.17887
 Alpha virt. eigenvalues --    2.18505   2.18946   2.19860   2.20588   2.20723
 Alpha virt. eigenvalues --    2.21055   2.22462   2.23216   2.23314   2.23479
 Alpha virt. eigenvalues --    2.24245   2.24637   2.26029   2.26596   2.26624
 Alpha virt. eigenvalues --    2.29113   2.29453   2.30682   2.31110   2.34001
 Alpha virt. eigenvalues --    2.34454   2.36433   2.36678   2.38123   2.39340
 Alpha virt. eigenvalues --    2.40019   2.40729   2.41821   2.44942   2.46165
 Alpha virt. eigenvalues --    2.47113   2.47148   2.50555   2.51276   2.53100
 Alpha virt. eigenvalues --    2.53301   2.54380   2.54776   2.55449   2.56541
 Alpha virt. eigenvalues --    2.56829   2.57326   2.57507   2.57723   2.59784
 Alpha virt. eigenvalues --    2.60569   2.60974   2.61749   2.63714   2.64389
 Alpha virt. eigenvalues --    2.65443   2.66848   2.67075   2.67787   2.68568
 Alpha virt. eigenvalues --    2.69187   2.69789   2.70865   2.71042   2.71169
 Alpha virt. eigenvalues --    2.71566   2.71806   2.71919   2.71993   2.73517
 Alpha virt. eigenvalues --    2.74483   2.74790   2.75297   2.75933   2.76121
 Alpha virt. eigenvalues --    2.76748   2.77370   2.77922   2.78563   2.78970
 Alpha virt. eigenvalues --    2.79616   2.80784   2.80939   2.81622   2.81697
 Alpha virt. eigenvalues --    2.81944   2.83452   2.83909   2.83997   2.85024
 Alpha virt. eigenvalues --    2.85276   2.85438   2.85730   2.87027   2.87488
 Alpha virt. eigenvalues --    2.88430   2.88712   2.89388   2.89491   2.90582
 Alpha virt. eigenvalues --    2.91512   2.91683   2.92892   2.92973   2.93731
 Alpha virt. eigenvalues --    2.93810   2.94789   2.94908   2.94994   2.95767
 Alpha virt. eigenvalues --    2.96137   2.96617   2.97485   2.97947   2.97961
 Alpha virt. eigenvalues --    2.98737   3.00217   3.00304   3.00542   3.01906
 Alpha virt. eigenvalues --    3.02253   3.02515   3.02966   3.03279   3.05060
 Alpha virt. eigenvalues --    3.05990   3.06367   3.07503   3.08237   3.08797
 Alpha virt. eigenvalues --    3.09127   3.10233   3.10904   3.11811   3.12446
 Alpha virt. eigenvalues --    3.13314   3.14016   3.14600   3.14852   3.15283
 Alpha virt. eigenvalues --    3.15605   3.17229   3.17546   3.17614   3.18780
 Alpha virt. eigenvalues --    3.19545   3.19589   3.19725   3.20202   3.20351
 Alpha virt. eigenvalues --    3.21628   3.21877   3.22364   3.23158   3.23724
 Alpha virt. eigenvalues --    3.24283   3.24821   3.25597   3.26073   3.26296
 Alpha virt. eigenvalues --    3.26966   3.27528   3.28300   3.29183   3.29592
 Alpha virt. eigenvalues --    3.29803   3.31568   3.32074   3.33079   3.33556
 Alpha virt. eigenvalues --    3.34560   3.34869   3.35063   3.35448   3.36460
 Alpha virt. eigenvalues --    3.37157   3.37695   3.37744   3.37972   3.38433
 Alpha virt. eigenvalues --    3.39098   3.40122   3.40394   3.40775   3.41111
 Alpha virt. eigenvalues --    3.42447   3.42919   3.43172   3.44215   3.44851
 Alpha virt. eigenvalues --    3.46362   3.46370   3.46414   3.47320   3.48098
 Alpha virt. eigenvalues --    3.48390   3.49327   3.49616   3.50403   3.51349
 Alpha virt. eigenvalues --    3.51495   3.52188   3.53051   3.53070   3.53430
 Alpha virt. eigenvalues --    3.54786   3.55118   3.55155   3.56560   3.57010
 Alpha virt. eigenvalues --    3.57120   3.58155   3.59015   3.59358   3.59752
 Alpha virt. eigenvalues --    3.60731   3.61156   3.61328   3.62115   3.62631
 Alpha virt. eigenvalues --    3.62954   3.63782   3.64970   3.65589   3.67091
 Alpha virt. eigenvalues --    3.68133   3.68537   3.69040   3.69237   3.71160
 Alpha virt. eigenvalues --    3.71464   3.72326   3.74464   3.74655   3.75705
 Alpha virt. eigenvalues --    3.76047   3.77411   3.77887   3.78753   3.81326
 Alpha virt. eigenvalues --    3.81909   3.82046   3.85383   3.85544   3.86420
 Alpha virt. eigenvalues --    3.86505   3.87148   3.87363   3.89791   3.91588
 Alpha virt. eigenvalues --    3.92112   3.93974   3.94708   3.96711   3.96925
 Alpha virt. eigenvalues --    3.97063   3.98527   3.99206   3.99397   4.01354
 Alpha virt. eigenvalues --    4.02452   4.04285   4.04298   4.05027   4.05378
 Alpha virt. eigenvalues --    4.05823   4.08353   4.09643   4.11586   4.12577
 Alpha virt. eigenvalues --    4.14385   4.15493   4.16739   4.18291   4.18966
 Alpha virt. eigenvalues --    4.19196   4.20936   4.22648   4.24376   4.25481
 Alpha virt. eigenvalues --    4.25861   4.27868   4.28410   4.29103   4.30126
 Alpha virt. eigenvalues --    4.31250   4.31765   4.32350   4.32863   4.33031
 Alpha virt. eigenvalues --    4.33102   4.34980   4.35385   4.36092   4.36155
 Alpha virt. eigenvalues --    4.36927   4.37634   4.39349   4.39987   4.40526
 Alpha virt. eigenvalues --    4.40779   4.41328   4.42053   4.42530   4.43779
 Alpha virt. eigenvalues --    4.46577   4.47934   4.48631   4.49998   4.52679
 Alpha virt. eigenvalues --    4.54741   4.55245   4.56878   4.59172   4.60959
 Alpha virt. eigenvalues --    4.63207   4.64359   4.64666   4.67304   4.67390
 Alpha virt. eigenvalues --    4.68243   4.70346   4.72415   4.76566   4.77439
 Alpha virt. eigenvalues --    4.79257   4.79550   4.79880   4.80702   4.82574
 Alpha virt. eigenvalues --    4.85073   4.85414   4.86424   4.87786   4.89107
 Alpha virt. eigenvalues --    4.92036   4.92887   4.94725   4.98725   4.98993
 Alpha virt. eigenvalues --    5.00336   5.01546   5.02796   5.05658   5.08951
 Alpha virt. eigenvalues --    5.11581   5.12486   5.15202   5.18217   5.20617
 Alpha virt. eigenvalues --    5.22651   5.25975   5.27580   5.28024   5.30101
 Alpha virt. eigenvalues --    5.30276   5.32389   5.34080   5.34114   5.35810
 Alpha virt. eigenvalues --    5.38549   5.40050   5.44840   5.46420   5.52865
 Alpha virt. eigenvalues --    5.55990   5.56967   5.57847   5.62321   5.64396
 Alpha virt. eigenvalues --    5.65336   5.67414   5.72174   5.72830   5.76843
 Alpha virt. eigenvalues --    5.78138   5.84852   5.90546   5.98403   6.00115
 Alpha virt. eigenvalues --    6.00323   6.04949   6.11970   6.20621   6.30265
 Alpha virt. eigenvalues --    6.34606   6.49760   6.55544   6.61489   6.68844
 Alpha virt. eigenvalues --    6.75349   6.79815   6.99152   7.02423   7.05366
 Alpha virt. eigenvalues --    7.17573   7.27682   7.46221   7.59107   7.68176
 Alpha virt. eigenvalues --   22.27138  22.37463  22.57100  22.72513  22.74400
 Alpha virt. eigenvalues --   22.77035  22.78012  22.79384  22.82514  22.85483
 Alpha virt. eigenvalues --   22.87589  22.98549  23.02830  23.05714  23.07940
 Alpha virt. eigenvalues --   23.16600  23.23430  23.37076  23.37911  23.47697
 Alpha virt. eigenvalues --   23.60930  23.70602  24.11659  44.26465  44.70381
          Condensed to atoms (all electrons):
               1          2          3          4          5          6
     1  C    5.042729   0.319762   0.089504  -0.134149   0.114114   0.242156
     2  C    0.319762   5.101186   0.375006   0.107457  -0.130113   0.101322
     3  C    0.089504   0.375006   5.593362  -0.415340   0.020234  -0.052159
     4  C   -0.134149   0.107457  -0.415340   6.451280   0.228384   0.050061
     5  C    0.114114  -0.130113   0.020234   0.228384   5.398981   0.328977
     6  C    0.242156   0.101322  -0.052159   0.050061   0.328977   5.059819
     7  C    0.031057  -0.184800   0.154087   0.120883   0.073036  -0.014054
     8  C   -0.015502   0.008205   0.281639  -0.194484  -0.150325   0.009731
     9  C    0.000245   0.011184  -0.373870   0.485353   0.065100  -0.004558
[...]
     1  C   -0.000099  -0.002001   0.480865  -0.065253   0.005309  -0.067966
     2  C    0.000733   0.003948  -0.075495   0.430639  -0.001280   0.012188
     3  C   -0.011375   0.019286   0.008399  -0.041695   0.012599  -0.000656
     4  C    0.034750   0.029840  -0.000903   0.049283  -0.066804   0.009723
     5  C    0.001036  -0.001188   0.013729  -0.006984   0.425277  -0.065173
     6  C    0.000260   0.000403  -0.072002   0.010490  -0.010677   0.472795
     7  C    0.008521   0.313642  -0.001394  -0.034810  -0.000336   0.000157
     8  C   -0.060503  -0.002816   0.000378   0.000505  -0.002626  -0.001065
     9  C    0.159094   0.011419  -0.000021   0.000900  -0.002487  -0.000004
    10  C   -0.063346  -0.030758  -0.000007  -0.006648   0.000327   0.000009
    11  C   -0.031361  -0.016892   0.000001  -0.000064   0.000021  -0.000000
    12  C   -0.046054   0.002873   0.000000   0.000008  -0.000001  -0.000000
    13  C    4.412899   0.000261  -0.000000   0.000010  -0.000010   0.000001
    14  H    0.000261   0.510869  -0.000033   0.016286  -0.000000  -0.000003
    15  H   -0.000000  -0.000033   0.563945  -0.003620  -0.000132  -0.005530
    16  H    0.000010   0.016286  -0.003620   0.573905   0.000014  -0.000112
    17  H   -0.000010  -0.000000  -0.000132   0.000014   0.520602  -0.002610
    18  H    0.000001  -0.000003  -0.005530  -0.000112  -0.002610   0.558321
    19  C   -0.095801   0.000377   0.000000   0.000119   0.011380   0.000241
    20  C   -0.015574  -0.000013   0.000001  -0.000005  -0.015581   0.000070
    21  C   -0.020706  -0.000014   0.000001  -0.000004  -0.012720   0.000029
    22  C    0.000978   0.000000  -0.000000   0.000000   0.001367   0.000013
    23  H   -0.000683   0.000000   0.000000   0.000000  -0.000184   0.000004
    24  C    0.000473   0.000000  -0.000000   0.000000   0.001817   0.000007
    25  H   -0.000421   0.000000   0.000000   0.000000  -0.000139   0.000003
    26  C   -0.000688  -0.000000   0.000000  -0.000000  -0.001898   0.000003
    27  H    0.000029   0.000000   0.000000   0.000000  -0.000009   0.000000
    28  H    0.000033   0.000000   0.000000   0.000000  -0.000003   0.000000
    29  H   -0.000006  -0.000000   0.000000   0.000000  -0.000008  -0.000000
    30  O    0.547910   0.000005  -0.000000   0.000000   0.000006   0.000000
    31  O    0.377516  -0.000028  -0.000000   0.000000   0.000001   0.000000
    32  C    0.011334   0.011216  -0.000000  -0.000045   0.000000   0.000000
    33  C   -0.003469  -0.000119   0.000000  -0.000001  -0.000000  -0.000000
    34  C    0.000848   0.000070  -0.000000   0.000001   0.000000   0.000000
    35  H    0.000031  -0.000002  -0.000000   0.000000   0.000000   0.000000
    36  C   -0.001636  -0.001339  -0.000000  -0.000016   0.000000   0.000000
    37  H   -0.000008  -0.000009   0.000000  -0.000000  -0.000000  -0.000000
    38  H    0.000023   0.019698  -0.000000   0.000154   0.000000   0.000000
    39  H   -0.000925   0.000001   0.000000   0.000000  -0.000000  -0.000000
              19         20         21         22         23         24
     1  C   -0.003144  -0.000319  -0.000138  -0.000022  -0.000020  -0.000014
     2  C    0.001320   0.000288   0.000133   0.000017   0.000012   0.000007
     3  C    0.087483  -0.000009  -0.000288   0.000437  -0.000548   0.000393
     4  C   -0.395317   0.049422   0.043711  -0.006613   0.008440  -0.007163
     5  C   -0.118636  -0.046432  -0.042348   0.004149  -0.002362   0.004962
     6  C    0.005436   0.000333  -0.000996   0.000319  -0.000140   0.000214
     7  C   -0.038643   0.001102   0.001089  -0.000042   0.000036  -0.000037
     8  C    0.081303  -0.266553  -0.268560  -0.018083  -0.032909  -0.018994
     9  C   -0.307133   0.041201   0.044893  -0.007868   0.009738  -0.006970
    10  C    0.101868  -0.001485   0.000111   0.000347  -0.000266   0.000471
    11  C   -0.018120   0.000588   0.000619  -0.000050   0.000050  -0.000056
    12  C    0.002565  -0.000212  -0.000193   0.000023  -0.000015   0.000028
    13  C   -0.095801  -0.015574  -0.020706   0.000978  -0.000683   0.000473
    14  H    0.000377  -0.000013  -0.000014   0.000000   0.000000   0.000000
    15  H    0.000000   0.000001   0.000001  -0.000000   0.000000  -0.000000
    16  H    0.000119  -0.000005  -0.000004   0.000000   0.000000   0.000000
    17  H    0.011380  -0.015581  -0.012720   0.001367  -0.000184   0.001817
    18  H    0.000241   0.000070   0.000029   0.000013   0.000004   0.000007
    19  C    6.100250   0.276432   0.277195   0.110039  -0.076744   0.103216
    20  C    0.276432   5.456318   0.106061   0.270597   0.487258  -0.100242
    21  C    0.277195   0.106061   5.456097  -0.103180   0.018502   0.279373
    22  C    0.110039   0.270597  -0.103180   5.119017  -0.061772   0.092602
    23  H   -0.076744   0.487258   0.018502  -0.061772   0.551952  -0.006101
    24  C    0.103216  -0.100242   0.279373   0.092602  -0.006101   5.104931
    25  H   -0.076889   0.018113   0.486318  -0.005958   0.000071  -0.062045
    26  C   -0.156545   0.122673   0.122698   0.257598   0.013806   0.262136
    27  H    0.013075  -0.074030  -0.004832   0.479149  -0.004828   0.012493
    28  H    0.013389  -0.004891  -0.074662   0.012598   0.000024   0.479317
    29  H   -0.003045   0.010266   0.010167  -0.068176  -0.000065  -0.068052
    30  O   -0.003202  -0.015183  -0.017561   0.007372  -0.000623   0.007805
    31  O   -0.002693  -0.000444  -0.000590   0.000026   0.000002   0.000028
    32  C   -0.000024   0.000006   0.000006  -0.000000   0.000001  -0.000001
    33  C   -0.000068   0.000001   0.000003   0.000000  -0.000001   0.000001
    34  C    0.000004   0.000000   0.000001  -0.000000   0.000000  -0.000000
    35  H   -0.000000  -0.000000  -0.000000   0.000000   0.000000   0.000000
    36  C   -0.000004  -0.000000  -0.000000   0.000000  -0.000000   0.000000
    37  H    0.000000  -0.000000  -0.000000   0.000000   0.000000   0.000000
    38  H    0.000008  -0.000000  -0.000000  -0.000000   0.000000  -0.000000
    39  H    0.000005  -0.000000  -0.000001   0.000000  -0.000000   0.000000
              25         26         27         28         29         30
     1  C   -0.000015   0.000001  -0.000000  -0.000000   0.000000  -0.000002
     2  C    0.000018  -0.000002   0.000000   0.000000  -0.000000   0.000011
     3  C   -0.000539  -0.000027  -0.000007  -0.000006   0.000000  -0.000655
     4  C    0.008135   0.005258  -0.000167  -0.000151   0.000017   0.002720
     5  C   -0.001846  -0.004132   0.000124   0.000130  -0.000026   0.000206
     6  C   -0.000123  -0.000317   0.000002   0.000003  -0.000001   0.000011
     7  C    0.000063   0.000017  -0.000000  -0.000000  -0.000000   0.000598
     8  C   -0.031566  -0.011291   0.000062   0.000073   0.000004  -0.027880
     9  C    0.009528   0.003645  -0.000046  -0.000057   0.000000  -0.108263
    10  C   -0.000496  -0.000079  -0.000001  -0.000001   0.000000   0.007601
    11  C    0.000051   0.000007   0.000000   0.000000   0.000000  -0.003010
    12  C   -0.000020  -0.000005   0.000000   0.000000  -0.000000   0.003865
    13  C   -0.000421  -0.000688   0.000029   0.000033  -0.000006   0.547910
    14  H    0.000000  -0.000000   0.000000   0.000000  -0.000000   0.000005
    15  H    0.000000   0.000000   0.000000   0.000000   0.000000  -0.000000
    16  H    0.000000  -0.000000   0.000000   0.000000   0.000000   0.000000
    17  H   -0.000139  -0.001898  -0.000009  -0.000003  -0.000008   0.000006
    18  H    0.000003   0.000003   0.000000   0.000000  -0.000000   0.000000
    19  C   -0.076889  -0.156545   0.013075   0.013389  -0.003045  -0.003202
    20  C    0.018113   0.122673  -0.074030  -0.004891   0.010266  -0.015183
    21  C    0.486318   0.122698  -0.004832  -0.074662   0.010167  -0.017561
    22  C   -0.005958   0.257598   0.479149   0.012598  -0.068176   0.007372
    23  H    0.000071   0.013806  -0.004828   0.000024  -0.000065  -0.000623
    24  C   -0.062045   0.262136   0.012493   0.479317  -0.068052   0.007805
    25  H    0.554292   0.013545   0.000026  -0.004874  -0.000072  -0.000750
    26  C    0.013545   5.141918  -0.070444  -0.070872   0.474256  -0.003316
    27  H    0.000026  -0.070444   0.565328  -0.000038  -0.004997   0.000087
    28  H   -0.004874  -0.070872  -0.000038   0.565702  -0.005008   0.000087
    29  H   -0.000072   0.474256  -0.004997  -0.005008   0.561543  -0.000014
    30  O   -0.000750  -0.003316   0.000087   0.000087  -0.000014   8.299808
    31  O    0.000005  -0.000006   0.000000   0.000000  -0.000000  -0.104934
    32  C    0.000001   0.000000  -0.000000  -0.000000   0.000000   0.000220
    33  C   -0.000001  -0.000000   0.000000   0.000000  -0.000000  -0.000172
    34  C    0.000000   0.000000  -0.000000  -0.000000   0.000000   0.000008
    35  H   -0.000000   0.000000  -0.000000  -0.000000  -0.000000  -0.000001
    36  C    0.000000  -0.000000   0.000000   0.000000  -0.000000  -0.000013
    37  H    0.000000  -0.000000   0.000000   0.000000   0.000000   0.000000
    38  H    0.000000  -0.000000   0.000000   0.000000   0.000000   0.000001
    39  H   -0.000000  -0.000000   0.000000   0.000000   0.000000   0.000028
              31         32         33         34         35         36
     1  C   -0.000000  -0.000086   0.000000  -0.000000  -0.000000   0.000001
     2  C    0.000005   0.000554  -0.000014   0.000002   0.000000  -0.000034
     3  C   -0.000080   0.008421  -0.000500   0.000194   0.000000  -0.001415
     4  C    0.001028  -0.001090   0.000174  -0.000000  -0.000000  -0.000048
     5  C    0.000034  -0.000080   0.000001  -0.000000   0.000000   0.000002
     6  C    0.000001   0.000027  -0.000000   0.000000   0.000000  -0.000000
     7  C    0.000005  -0.054747   0.000284   0.000412  -0.000020  -0.004503
     8  C    0.003656  -0.003223  -0.000630  -0.000156   0.000000   0.000369
     9  C   -0.162238   0.043925   0.006542  -0.000900  -0.000004  -0.000673
    10  C    0.011180  -0.093544  -0.008801  -0.005018   0.000140  -0.001007
    11  C   -0.135933   0.240593   0.076309  -0.091793  -0.004999   0.070343
    12  C    0.214136   0.035836   0.315693   0.056722   0.015519  -0.074493
    13  C    0.377516   0.011334  -0.003469   0.000848   0.000031  -0.001636
    14  H   -0.000028   0.011216  -0.000119   0.000070  -0.000002  -0.001339
    15  H   -0.000000  -0.000000   0.000000  -0.000000  -0.000000  -0.000000
    16  H    0.000000  -0.000045  -0.000001   0.000001   0.000000  -0.000016
    17  H    0.000001   0.000000  -0.000000   0.000000   0.000000   0.000000
    18  H    0.000000   0.000000  -0.000000   0.000000   0.000000   0.000000
    19  C   -0.002693  -0.000024  -0.000068   0.000004  -0.000000  -0.000004
    20  C   -0.000444   0.000006   0.000001   0.000000  -0.000000  -0.000000
    21  C   -0.000590   0.000006   0.000003   0.000001  -0.000000  -0.000000
    22  C    0.000026  -0.000000   0.000000  -0.000000   0.000000   0.000000
    23  H    0.000002   0.000001  -0.000001   0.000000   0.000000  -0.000000
    24  C    0.000028  -0.000001   0.000001  -0.000000   0.000000   0.000000
    25  H    0.000005   0.000001  -0.000001   0.000000  -0.000000   0.000000
    26  C   -0.000006   0.000000  -0.000000   0.000000   0.000000  -0.000000
    27  H    0.000000  -0.000000   0.000000  -0.000000  -0.000000   0.000000
    28  H    0.000000  -0.000000   0.000000  -0.000000  -0.000000   0.000000
    29  H   -0.000000   0.000000  -0.000000   0.000000  -0.000000  -0.000000
    30  O   -0.104934   0.000220  -0.000172   0.000008  -0.000001  -0.000013
    31  O    8.274457   0.003085  -0.009554   0.001755  -0.000210   0.000759
    32  C    0.003085   5.306881  -0.130089   0.091386   0.015714   0.281094
    33  C   -0.009554  -0.130089   5.210212   0.331695  -0.076119   0.089187
    34  C    0.001755   0.091386   0.331695   4.953906   0.481471   0.298802
    35  H   -0.000210   0.015714  -0.076119   0.481471   0.561843  -0.078831
    36  C    0.000759   0.281094   0.089187   0.298802  -0.078831   5.105888
    37  H    0.000018  -0.075565   0.013241  -0.068184  -0.005445   0.482401
    38  H   -0.000075   0.400559  -0.001659   0.004810  -0.000092  -0.033142
    39  H    0.004632  -0.005535   0.467648  -0.053387  -0.005983   0.012019
              37         38         39
     1  C    0.000000  -0.000045   0.000000
     2  C    0.000001  -0.000069   0.000000
     3  C    0.000002   0.003149   0.000001
     4  C   -0.000000   0.000140  -0.000002
     5  C   -0.000000  -0.000021  -0.000000
     6  C   -0.000000   0.000007  -0.000000
     7  C    0.000077   0.006834   0.000061
     8  C   -0.000001  -0.000058   0.000010
     9  C   -0.000036   0.000825   0.001074
    10  C   -0.000135   0.000831  -0.000896
    11  C    0.013159  -0.042138   0.017150
    12  C   -0.004371   0.011016  -0.082567
    13  C   -0.000008   0.000023  -0.000925
    14  H   -0.000009   0.019698   0.000001
    15  H    0.000000  -0.000000   0.000000
    16  H   -0.000000   0.000154   0.000000
    17  H   -0.000000   0.000000  -0.000000
    18  H   -0.000000   0.000000  -0.000000
    19  C    0.000000   0.000008   0.000005
    20  C   -0.000000  -0.000000  -0.000000
    21  C   -0.000000  -0.000000  -0.000001
    22  C    0.000000  -0.000000   0.000000
    23  H    0.000000   0.000000  -0.000000
    24  C    0.000000  -0.000000   0.000000
    25  H    0.000000   0.000000  -0.000000
    26  C   -0.000000  -0.000000  -0.000000
    27  H    0.000000   0.000000   0.000000
    28  H    0.000000   0.000000   0.000000
    29  H    0.000000   0.000000   0.000000
    30  O    0.000000   0.000001   0.000028
    31  O    0.000018  -0.000075   0.004632
    32  C   -0.075565   0.400559  -0.005535
    33  C    0.013241  -0.001659   0.467648
    34  C   -0.068184   0.004810  -0.053387
    35  H   -0.005445  -0.000092  -0.005983
    36  C    0.482401  -0.033142   0.012019
    37  H    0.556741  -0.002053  -0.000005
    38  H   -0.002053   0.509167   0.000023
    39  H   -0.000005   0.000023   0.546797
 Mulliken charges:
               1
     1  C   -0.033300
     2  C   -0.072027
     3  C   -0.034375
     4  C   -0.129452
     5  C   -0.093094
     6  C   -0.128150
     7  C   -0.127291
     8  C    0.599271
     9  C   -0.290305
    10  C    0.059362
    11  C    0.067739
    12  C    0.334440
    13  C    0.795926
    14  H    0.115020
    15  H    0.091820
    16  H    0.076943
    17  H    0.138787
    18  H    0.089557
    19  C    0.110308
    20  C   -0.299756
    21  C   -0.300212
    22  C   -0.084886
    23  H    0.097364
    24  C   -0.080599
    25  H    0.095585
    26  C   -0.097940
    27  H    0.089024
    28  H    0.089207
    29  H    0.093215
    30  O   -0.592769
    31  O   -0.475544
    32  C   -0.086831
    33  C   -0.279792
    34  C   -0.002649
    35  H    0.096985
    36  C   -0.143712
    37  H    0.090171
    38  H    0.122106
    39  H    0.099852
 Sum of Mulliken charges =  -0.00000
 Mulliken charges with hydrogens summed into heavy atoms:
               1
     1  C    0.058520
     2  C    0.004917
     3  C   -0.034375
     4  C   -0.129452
     5  C    0.045693
     6  C   -0.038593
     7  C   -0.012271
     8  C    0.599271
     9  C   -0.290305
    10  C    0.059362
    11  C    0.067739
    12  C    0.334440
    13  C    0.795926
    19  C    0.110308
    20  C   -0.202392
    21  C   -0.204628
    22  C    0.004138
    24  C    0.008608
    26  C   -0.004724
    30  O   -0.592769
    31  O   -0.475544
    32  C    0.035275
    33  C   -0.179940
    34  C    0.094336
    36  C   -0.053540
 Electronic spatial extent (au):  <R**2>=           8257.5171
 Charge=              0.0000 electrons
 Dipole moment (field-independent basis, Debye):
    X=             -1.4109    Y=              5.8238    Z=              0.1293  Tot=              5.9936
 Quadrupole moment (field-independent basis, Debye-Ang):
   XX=           -116.5504   YY=           -137.0052   ZZ=           -140.4669
   XY=             -0.9568   XZ=             -0.2634   YZ=             -0.6562
 Traceless Quadrupole moment (field-independent basis, Debye-Ang):
   XX=             14.7904   YY=             -5.6643   ZZ=             -9.1261
   XY=             -0.9568   XZ=             -0.2634   YZ=             -0.6562
 Octapole moment (field-independent basis, Debye-Ang**2):
  XXX=            -70.9902  YYY=             91.4465  ZZZ=             -0.3967  XYY=              3.2025
  XXY=            -15.4987  XXZ=             -1.0374  XZZ=             18.2912  YZZ=            -24.0125
  YYZ=              2.5567  XYZ=             -0.6654
 Hexadecapole moment (field-independent basis, Debye-Ang**3):
 XXXX=          -6456.2486 YYYY=          -3500.5304 ZZZZ=           -377.6130 XXXY=             -6.7364
 XXXZ=            -13.0718 YYYX=             82.3514 YYYZ=             -5.5442 ZZZX=             -0.8752
 ZZZY=             -1.8784 XXYY=          -1565.0727 XXZZ=          -1315.9448 YYZZ=           -711.7269
 XXYZ=              0.8663 YYXZ=              4.5669 ZZXY=            -41.5864
 N-N= 1.988920645797D+03 E-N=-6.388075303881D+03  KE= 1.031397990941D+03
 Leave Link  601 at Tue Nov 23 14:57:33 2021, MaxMem=  5242880000 cpu:         4.5
 (Enter /opt/nce/packages/global/g09/l9999.exe)
 1\1\GINC-CN081\SP\RM06L TD-FC\Gen\C23H14O2\PNG4RJV\23-Nov-2021\0\\#p m
 06l chkbasis geom=allcheck Guess=Read int=ultrafine scrf=(SMD,solvent=
 Acetonitrile) td=(NStates=30)\\Title\\0,1\C,0,1.8934582869,4.206773777
 6,-0.0313779074\C,0,0.5895998449,3.7975392377,-0.0304818186\C,0,0.2619
 00162,2.421974532,-0.0229283456\C,0,1.3118343216,1.4547656587,-0.01836
 10481\C,0,2.6503440092,1.9184139284,-0.0160708381\C,0,2.9325840188,3.2
 570164573,-0.0230321879\C,0,-1.0702068236,1.9917607096,-0.0161525896\C
 ,0,0.9850240787,0.0736434399,-0.0142129123\C,0,-0.3526025442,-0.318381
 9049,-0.0133006113\C,0,-1.4002812404,0.6553169644,-0.0089666038\C,0,-2
 .7816738179,0.2015186738,0.0046870683\C,0,-3.0329840735,-1.1688484179,
 0.0105372046\C,0,-0.6907313368,-1.7471052098,-0.0273244319\H,0,-1.8441
 559701,2.7477578369,-0.0155340205\H,0,2.1320622325,5.2628109762,-0.037
 1281415\H,0,-0.2186415652,4.5190004547,-0.0347999968\H,0,3.45867547,1.
 1993386309,-0.0085413193\H,0,3.9623694234,3.5905375734,-0.0214220217\C
 ,0,2.1129037808,-0.8935414098,-0.0038799105\C,0,2.7185478016,-1.283957
 9623,-1.1951711609\C,0,2.6293019929,-1.360781209,1.2018355886\C,0,3.80
 1031311,-2.1505598673,-1.1822441474\H,0,2.3312911081,-0.911644609,-2.1
 364339331\C,0,3.7128339124,-2.2256697401,1.2140138419\H,0,2.1705163974
 ,-1.0501818496,2.1332976501\C,0,4.2999441679,-2.6272328935,0.022008797
 5\H,0,4.2581506957,-2.4516675204,-2.1168042375\H,0,4.1010197881,-2.585
 5523867,2.1589056397\H,0,5.1460339231,-3.3027762476,0.0319678801\O,0,0
 .0801500986,-2.6734323765,-0.0599380708\O,0,-2.0185422414,-2.083286106
 7,-0.0047568068\C,0,-3.895768987,1.0510770298,0.016678252\C,0,-4.31857
 90415,-1.6903430556,0.0287079956\C,0,-5.3956649472,-0.8263182042,0.040
 6695423\H,0,-6.402546378,-1.2228028068,0.0547731651\C,0,-5.181276956,0
 .5493086675,0.0341636961\H,0,-6.0225788305,1.2296879516,0.0432298465\H
 ,0,-3.7493017205,2.1226003336,0.0127914886\H,0,-4.450019352,-2.7642400
 563,0.0324464043\\Version=ES64L-G09RevE.01\State=1-A\HF=-1035.6228593\
 RMSD=6.604e-09\PG=C01 [X(C23H14O2)]\\@


 IT WAS A GAME, A VERY INTERESTING GAME ONE COULD
 PLAY.  WHENEVER ONE SOLVED ONE OF THE LITTLE PROBLEMS,
 ONE COULD WRITE A PAPER ABOUT IT.  IT WAS VERY EASY IN
 THOSE DAYS FOR ANY SECOND-RATE PHYSICIST TO DO
 FIRST-RATE WORK.  THERE HAS NOT BEEN SUCH A GLORIOUS
 TIME SINCE.  IT IS VERY DIFFICULT NOW FOR A FIRST-RATE
 PHYSICIST TO DO SECOND-RATE WORK.
     P.A.M. DIRAC, ON THE EARLY DAYS OF QUANTUM MECHANICS
                   DIRECTIONS IN PHYSICS, 1978, P. 7
 Job cpu time:       1 days 14 hours 11 minutes 44.1 seconds.
 File lengths (MBytes):  RWF=   2934 Int=      0 D2E=      0 Chk=    660 Scr=      1
 Normal termination of Gaussian 09 at Tue Nov 23 14:57:34 2021.
