 Entering Gaussian System, Link 0=g09
 Input=/home/png4rjv/fotokatalizis/benchmark/OPCs/NCE_1_wB97XD_def2TZVP.gjf
 Output=/home/png4rjv/fotokatalizis/benchmark/OPCs/NCE_1_wB97XD_def2TZVP.log
 Initial command:
 /opt/nce/packages/global/g09/l1.exe "/home/png4rjv/fotokatalizis/benchmark/OPCs/NCE_1_wB97XD_def2TZVP/Gau-12847.inp" -scrdir="/home/png4rjv/fotokatalizis/benchmark/OPCs/NCE_1_wB97XD_def2TZVP/"
 Default is to use a total of  12 processors:
                               12 via shared-memory
                                1 via Linda
 Entering Link 1 = /opt/nce/packages/global/g09/l1.exe PID=     12848.
  
 Copyright (c) 1988,1990,1992,1993,1995,1998,2003,2009,2015,
            Gaussian, Inc.  All Rights Reserved.
  
 This is part of the Gaussian(R) 09 program.  It is based on
 the Gaussian(R) 03 system (copyright 2003, Gaussian, Inc.),
 the Gaussian(R) 98 system (copyright 1998, Gaussian, Inc.),
 the Gaussian(R) 94 system (copyright 1995, Gaussian, Inc.),
 the Gaussian 92(TM) system (copyright 1992, Gaussian, Inc.),
 the Gaussian 90(TM) system (copyright 1990, Gaussian, Inc.),
 the Gaussian 88(TM) system (copyright 1988, Gaussian, Inc.),
 the Gaussian 86(TM) system (copyright 1986, Carnegie Mellon
 University), and the Gaussian 82(TM) system (copyright 1983,
 Carnegie Mellon University). Gaussian is a federally registered
 trademark of Gaussian, Inc.
  
 This software contains proprietary and confidential information,
 including trade secrets, belonging to Gaussian, Inc.
  
 This software is provided under written license and may be
 used, copied, transmitted, or stored only in accord with that
 written license.
  
 The following legend is applicable only to US Government
 contracts under FAR:
  
                    RESTRICTED RIGHTS LEGEND
  
 Use, reproduction and disclosure by the US Government is
 subject to restrictions as set forth in subparagraphs (a)
 and (c) of the Commercial Computer Software - Restricted
 Rights clause in FAR 52.227-19.
  
 Gaussian, Inc.
 340 Quinnipiac St., Bldg. 40, Wallingford CT 06492
  
  
 ---------------------------------------------------------------
 Warning -- This program may not be used in any manner that
 competes with the business of Gaussian, Inc. or will provide
 assistance to any competitor of Gaussian, Inc.  The licensee
 of this program is prohibited from giving any competitor of
 Gaussian, Inc. access to this program.  By using this program,
 the user acknowledges that Gaussian, Inc. is engaged in the
 business of creating and licensing software in the field of
 computational chemistry and represents and warrants to the
 licensee that it is not a competitor of Gaussian, Inc. and that
 it will not use this program in any manner prohibited above.
 ---------------------------------------------------------------
  

 Cite this work as:
 Gaussian 09, Revision E.01,
 M. J. Frisch, G. W. Trucks, H. B. Schlegel, G. E. Scuseria, 
 M. A. Robb, J. R. Cheeseman, G. Scalmani, V. Barone, B. Mennucci, 
 G. A. Petersson, H. Nakatsuji, M. Caricato, X. Li, H. P. Hratchian, 
 A. F. Izmaylov, J. Bloino, G. Zheng, J. L. Sonnenberg, M. Hada, 
 M. Ehara, K. Toyota, R. Fukuda, J. Hasegawa, M. Ishida, T. Nakajima, 
 Y. Honda, O. Kitao, H. Nakai, T. Vreven, J. A. Montgomery, Jr., 
 J. E. Peralta, F. Ogliaro, M. Bearpark, J. J. Heyd, E. Brothers, 
 K. N. Kudin, V. N. Staroverov, T. Keith, R. Kobayashi, J. Normand, 
 K. Raghavachari, A. Rendell, J. C. Burant, S. S. Iyengar, J. Tomasi, 
 M. Cossi, N. Rega, J. M. Millam, M. Klene, J. E. Knox, J. B. Cross, 
 V. Bakken, C. Adamo, J. Jaramillo, R. Gomperts, R. E. Stratmann, 
 O. Yazyev, A. J. Austin, R. Cammi, C. Pomelli, J. W. Ochterski, 
 R. L. Martin, K. Morokuma, V. G. Zakrzewski, G. A. Voth, 
 P. Salvador, J. J. Dannenberg, S. Dapprich, A. D. Daniels, 
 O. Farkas, J. B. Foresman, J. V. Ortiz, J. Cioslowski, 
 and D. J. Fox, Gaussian, Inc., Wallingford CT, 2013.
 
 ******************************************
 Gaussian 09:  ES64L-G09RevE.01 30-Nov-2015
                 1-Apr-2021 
 ******************************************
 %chk=cp.chk
 Default route:  MaxDisk=500GB
 ----------------------------------------------------------------------
 #p wB97XD/def2TZVP opt freq=noraman nosymm int=ultrafine scrf=(SMD,sol
 vent=Acetonitrile)
 ----------------------------------------------------------------------
 1/14=-1,18=20,19=15,26=4,38=1/1,3;
 2/9=110,12=2,15=1,17=6,18=5,40=1/2;
 3/5=44,7=101,11=2,16=1,25=1,30=1,70=32201,71=1,72=2,74=-58,75=-5/1,2,3;
 4//1;
 5/5=2,38=5,53=2/2;
 6/7=2,8=2,9=2,10=2,28=1/1;
 7/30=1/1,2,3,16;
 1/14=-1,18=20,19=15,26=4/3(2);
 2/9=110,15=1/2;
 99//99;
 2/9=110,15=1/2;
 3/5=44,7=101,11=2,16=1,25=1,30=1,70=32205,71=1,72=2,74=-58,75=-5/1,2,3;
 4/5=5,16=3,69=1/1;
 5/5=2,38=5,53=2/2;
 7/30=1/1,2,3,16;
 1/14=-1,18=20,19=15,26=4/3(-5);
 2/9=110,15=1/2;
 6/7=2,8=2,9=2,10=2,19=2,28=1/1;
 99/9=1/99;
 Leave Link    1 at Thu Apr  1 20:37:19 2021, MaxMem=           0 cpu:         1.0
 (Enter /opt/nce/packages/global/g09/l101.exe)
 -----
 Title
 -----
 Symbolic Z-matrix:
 Charge =  0 Multiplicity = 1
 C                     1.91323   4.23286   0.0001 
 C                     0.59884   3.82476   0.00002 
 C                     0.266     2.44011  -0.00003 
 C                     1.31922   1.46635  -0.00002 
 C                     2.66907   1.92603   0.0001 
 C                     2.9576    3.27292   0.00015 
 C                    -1.0763    2.00528  -0.00005 
 C                     0.98817   0.07506  -0.00009 
 C                    -0.35484  -0.318    -0.00014 
 C                    -1.40801   0.66112  -0.0001 
 C                    -2.80084   0.20022  -0.00006 
 C                    -3.04527  -1.18236   0.00016 
 C                    -0.69298  -1.76749  -0.00032 
 H                    -1.85804   2.76511  -0.00001 
 H                     2.15674   5.29794   0.00014 
 H                    -0.21154   4.55796  0. 
 H                     3.47497   1.1927    0.00015 
 H                     3.9978    3.60628   0.00024 
 C                     2.12069  -0.89925   0.00001 
 C                     2.68104  -1.33279  -1.20841 
 C                     2.68049  -1.33316   1.20854 
 C                     3.77461  -2.20018  -1.20809 
 H                     2.24931  -0.99232  -2.15232 
 C                     3.77407  -2.20054   1.20845 
 H                     2.24834  -0.99298   2.15236 
 C                     4.32312  -2.63833   0.00024 
 H                     4.19929  -2.53714  -2.15685 
 H                     4.19833  -2.53778   2.1573 
 H                     5.17785  -3.31887   0.00033 
 O                     0.08717  -2.68033  -0.00099 
 O                    -2.02948  -2.09101   0.0002 
 C                    -3.92156   1.05467  -0.00019 
 C                    -4.34318  -1.70406   0.00031 
 C                    -5.4297   -0.83601   0.00018 
 H                    -6.44544  -1.23746   0.00031 
 C                    -5.21705   0.55019  -0.00002 
 H                    -6.06662   1.23601   0. 
 H                    -3.7747    2.13504  -0.00026 
 H                    -4.46637  -2.788     0.00051 
 
 NAtoms=     39 NQM=       39 NQMF=       0 NMMI=      0 NMMIF=      0
                NMic=       0 NMicF=      0.
                    Isotopes and Nuclear Properties:
 (Nuclear quadrupole moments (NQMom) in fm**2, nuclear magnetic moments (NMagM)
  in nuclear magnetons)

  Atom         1           2           3           4           5           6           7           8           9          10
 IAtWgt=          12          12          12          12          12          12          12          12          12          12
 AtmWgt=  12.0000000  12.0000000  12.0000000  12.0000000  12.0000000  12.0000000  12.0000000  12.0000000  12.0000000  12.0000000
 NucSpn=           0           0           0           0           0           0           0           0           0           0
 AtZEff=   0.0000000   0.0000000   0.0000000   0.0000000   0.0000000   0.0000000   0.0000000   0.0000000   0.0000000   0.0000000
 NQMom=    0.0000000   0.0000000   0.0000000   0.0000000   0.0000000   0.0000000   0.0000000   0.0000000   0.0000000   0.0000000
 NMagM=    0.0000000   0.0000000   0.0000000   0.0000000   0.0000000   0.0000000   0.0000000   0.0000000   0.0000000   0.0000000
 AtZNuc=   6.0000000   6.0000000   6.0000000   6.0000000   6.0000000   6.0000000   6.0000000   6.0000000   6.0000000   6.0000000

  Atom        11          12          13          14          15          16          17          18          19          20
 IAtWgt=          12          12          12           1           1           1           1           1          12          12
 AtmWgt=  12.0000000  12.0000000  12.0000000   1.0078250   1.0078250   1.0078250   1.0078250   1.0078250  12.0000000  12.0000000
 NucSpn=           0           0           0           1           1           1           1           1           0           0
 AtZEff=   0.0000000   0.0000000   0.0000000   0.0000000   0.0000000   0.0000000   0.0000000   0.0000000   0.0000000   0.0000000
 NQMom=    0.0000000   0.0000000   0.0000000   0.0000000   0.0000000   0.0000000   0.0000000   0.0000000   0.0000000   0.0000000
 NMagM=    0.0000000   0.0000000   0.0000000   2.7928460   2.7928460   2.7928460   2.7928460   2.7928460   0.0000000   0.0000000
 AtZNuc=   6.0000000   6.0000000   6.0000000   1.0000000   1.0000000   1.0000000   1.0000000   1.0000000   6.0000000   6.0000000

  Atom        21          22          23          24          25          26          27          28          29          30
 IAtWgt=          12          12           1          12           1          12           1           1           1          16
 AtmWgt=  12.0000000  12.0000000   1.0078250  12.0000000   1.0078250  12.0000000   1.0078250   1.0078250   1.0078250  15.9949146
 NucSpn=           0           0           1           0           1           0           1           1           1           0
 AtZEff=   0.0000000   0.0000000   0.0000000   0.0000000   0.0000000   0.0000000   0.0000000   0.0000000   0.0000000   0.0000000
 NQMom=    0.0000000   0.0000000   0.0000000   0.0000000   0.0000000   0.0000000   0.0000000   0.0000000   0.0000000   0.0000000
 NMagM=    0.0000000   0.0000000   2.7928460   0.0000000   2.7928460   0.0000000   2.7928460   2.7928460   2.7928460   0.0000000
 AtZNuc=   6.0000000   6.0000000   1.0000000   6.0000000   1.0000000   6.0000000   1.0000000   1.0000000   1.0000000   8.0000000

  Atom        31          32          33          34          35          36          37          38          39
 IAtWgt=          16          12          12          12           1          12           1           1           1
 AtmWgt=  15.9949146  12.0000000  12.0000000  12.0000000   1.0078250  12.0000000   1.0078250   1.0078250   1.0078250
 NucSpn=           0           0           0           0           1           0           1           1           1
 AtZEff=   0.0000000   0.0000000   0.0000000   0.0000000   0.0000000   0.0000000   0.0000000   0.0000000   0.0000000
 NQMom=    0.0000000   0.0000000   0.0000000   0.0000000   0.0000000   0.0000000   0.0000000   0.0000000   0.0000000
 NMagM=    0.0000000   0.0000000   0.0000000   0.0000000   2.7928460   0.0000000   2.7928460   2.7928460   2.7928460
 AtZNuc=   8.0000000   6.0000000   6.0000000   6.0000000   1.0000000   6.0000000   1.0000000   1.0000000   1.0000000
 Leave Link  101 at Thu Apr  1 20:37:19 2021, MaxMem=  5242880000 cpu:         4.2
 (Enter /opt/nce/packages/global/g09/l103.exe)

 GradGradGradGradGradGradGradGradGradGradGradGradGradGradGradGradGradGrad
 Berny optimization.
 Initialization pass.
                           ----------------------------
                           !    Initial Parameters    !
                           ! (Angstroms and Degrees)  !
 --------------------------                            --------------------------
 ! Name  Definition              Value          Derivative Info.                !
 --------------------------------------------------------------------------------
 ! R1    R(1,2)                  1.3763         estimate D2E/DX2                !
 ! R2    R(1,6)                  1.4185         estimate D2E/DX2                !
 ! R3    R(1,15)                 1.0926         estimate D2E/DX2                !
 ! R4    R(2,3)                  1.4241         estimate D2E/DX2                !
 ! R5    R(2,16)                 1.0928         estimate D2E/DX2                !
 ! R6    R(3,4)                  1.4344         estimate D2E/DX2                !
 ! R7    R(3,7)                  1.411          estimate D2E/DX2                !
 ! R8    R(4,5)                  1.426          estimate D2E/DX2                !
 ! R9    R(4,8)                  1.4301         estimate D2E/DX2                !
 ! R10   R(5,6)                  1.3775         estimate D2E/DX2                !
 ! R11   R(5,17)                 1.0896         estimate D2E/DX2                !
 ! R12   R(6,18)                 1.0923         estimate D2E/DX2                !
 ! R13   R(7,10)                 1.3845         estimate D2E/DX2                !
 ! R14   R(7,14)                 1.0902         estimate D2E/DX2                !
 ! R15   R(8,9)                  1.3993         estimate D2E/DX2                !
 ! R16   R(8,19)                 1.494          estimate D2E/DX2                !
 ! R17   R(9,10)                 1.438          estimate D2E/DX2                !
 ! R18   R(9,13)                 1.4884         estimate D2E/DX2                !
 ! R19   R(10,11)                1.4671         estimate D2E/DX2                !
 ! R20   R(11,12)                1.404          estimate D2E/DX2                !
 ! R21   R(11,32)                1.4093         estimate D2E/DX2                !
 ! R22   R(12,31)                1.3629         estimate D2E/DX2                !
 ! R23   R(12,33)                1.3988         estimate D2E/DX2                !
 ! R24   R(13,30)                1.2008         estimate D2E/DX2                !
 ! R25   R(13,31)                1.3751         estimate D2E/DX2                !
 ! R26   R(19,20)                1.4008         estimate D2E/DX2                !
 ! R27   R(19,21)                1.4008         estimate D2E/DX2                !
 ! R28   R(20,22)                1.3958         estimate D2E/DX2                !
 ! R29   R(20,23)                1.0924         estimate D2E/DX2                !
 ! R30   R(21,24)                1.3958         estimate D2E/DX2                !
 ! R31   R(21,25)                1.0924         estimate D2E/DX2                !
 ! R32   R(22,26)                1.3975         estimate D2E/DX2                !
 ! R33   R(22,27)                1.0927         estimate D2E/DX2                !
 ! R34   R(24,26)                1.3975         estimate D2E/DX2                !
 ! R35   R(24,28)                1.0927         estimate D2E/DX2                !
 ! R36   R(26,29)                1.0926         estimate D2E/DX2                !
 ! R37   R(32,36)                1.3903         estimate D2E/DX2                !
 ! R38   R(32,38)                1.0903         estimate D2E/DX2                !
 ! R39   R(33,34)                1.3907         estimate D2E/DX2                !
 ! R40   R(33,39)                1.0909         estimate D2E/DX2                !
 ! R41   R(34,35)                1.0922         estimate D2E/DX2                !
 ! R42   R(34,36)                1.4024         estimate D2E/DX2                !
 ! R43   R(36,37)                1.0918         estimate D2E/DX2                !
 ! A1    A(2,1,6)              120.1634         estimate D2E/DX2                !
 ! A2    A(2,1,15)             120.1269         estimate D2E/DX2                !
 ! A3    A(6,1,15)             119.7097         estimate D2E/DX2                !
 ! A4    A(1,2,3)              120.7646         estimate D2E/DX2                !
 ! A5    A(1,2,16)             120.6137         estimate D2E/DX2                !
 ! A6    A(3,2,16)             118.6217         estimate D2E/DX2                !
 ! A7    A(2,3,4)              119.2393         estimate D2E/DX2                !
 ! A8    A(2,3,7)              121.4653         estimate D2E/DX2                !
 ! A9    A(4,3,7)              119.2954         estimate D2E/DX2                !
 ! A10   A(3,4,5)              118.4392         estimate D2E/DX2                !
 ! A11   A(3,4,8)              119.3708         estimate D2E/DX2                !
 ! A12   A(5,4,8)              122.19           estimate D2E/DX2                !
 ! A13   A(4,5,6)              120.8967         estimate D2E/DX2                !
 ! A14   A(4,5,17)             118.8936         estimate D2E/DX2                !
 ! A15   A(6,5,17)             120.2097         estimate D2E/DX2                !
 ! A16   A(1,6,5)              120.4967         estimate D2E/DX2                !
 ! A17   A(1,6,18)             119.6429         estimate D2E/DX2                !
 ! A18   A(5,6,18)             119.8604         estimate D2E/DX2                !
 ! A19   A(3,7,10)             121.812          estimate D2E/DX2                !
 ! A20   A(3,7,14)             117.8649         estimate D2E/DX2                !
 ! A21   A(10,7,14)            120.3231         estimate D2E/DX2                !
 ! A22   A(4,8,9)              119.6979         estimate D2E/DX2                !
 ! A23   A(4,8,19)             117.321          estimate D2E/DX2                !
 ! A24   A(9,8,19)             122.9811         estimate D2E/DX2                !
 ! A25   A(8,9,10)             120.7732         estimate D2E/DX2                !
 ! A26   A(8,9,13)             119.4448         estimate D2E/DX2                !
 ! A27   A(10,9,13)            119.782          estimate D2E/DX2                !
 ! A28   A(7,10,9)             119.0506         estimate D2E/DX2                !
 ! A29   A(7,10,11)            122.1727         estimate D2E/DX2                !
 ! A30   A(9,10,11)            118.7767         estimate D2E/DX2                !
 ! A31   A(10,11,12)           118.3363         estimate D2E/DX2                !
 ! A32   A(10,11,32)           124.3677         estimate D2E/DX2                !
 ! A33   A(12,11,32)           117.296          estimate D2E/DX2                !
 ! A34   A(11,12,31)           121.7871         estimate D2E/DX2                !
 ! A35   A(11,12,33)           121.9238         estimate D2E/DX2                !
 ! A36   A(31,12,33)           116.2891         estimate D2E/DX2                !
 ! A37   A(9,13,30)            126.3506         estimate D2E/DX2                !
 ! A38   A(9,13,31)            116.7391         estimate D2E/DX2                !
 ! A39   A(30,13,31)           116.9104         estimate D2E/DX2                !
 ! A40   A(8,19,20)            120.3335         estimate D2E/DX2                !
 ! A41   A(8,19,21)            120.3325         estimate D2E/DX2                !
 ! A42   A(20,19,21)           119.2449         estimate D2E/DX2                !
 ! A43   A(19,20,22)           120.3668         estimate D2E/DX2                !
 ! A44   A(19,20,23)           119.3975         estimate D2E/DX2                !
 ! A45   A(22,20,23)           120.2338         estimate D2E/DX2                !
 ! A46   A(19,21,24)           120.3669         estimate D2E/DX2                !
 ! A47   A(19,21,25)           119.3975         estimate D2E/DX2                !
 ! A48   A(24,21,25)           120.2337         estimate D2E/DX2                !
 ! A49   A(20,22,26)           120.169          estimate D2E/DX2                !
 ! A50   A(20,22,27)           119.7306         estimate D2E/DX2                !
 ! A51   A(26,22,27)           120.1003         estimate D2E/DX2                !
 ! A52   A(21,24,26)           120.1689         estimate D2E/DX2                !
 ! A53   A(21,24,28)           119.7305         estimate D2E/DX2                !
 ! A54   A(26,24,28)           120.1004         estimate D2E/DX2                !
 ! A55   A(22,26,24)           119.6787         estimate D2E/DX2                !
 ! A56   A(22,26,29)           120.1607         estimate D2E/DX2                !
 ! A57   A(24,26,29)           120.1606         estimate D2E/DX2                !
 ! A58   A(12,31,13)           124.5789         estimate D2E/DX2                !
 ! A59   A(11,32,36)           121.4012         estimate D2E/DX2                !
 ! A60   A(11,32,38)           119.5813         estimate D2E/DX2                !
 ! A61   A(36,32,38)           119.0175         estimate D2E/DX2                !
 ! A62   A(12,33,34)           119.4805         estimate D2E/DX2                !
 ! A63   A(12,33,39)           118.3815         estimate D2E/DX2                !
 ! A64   A(34,33,39)           122.138          estimate D2E/DX2                !
 ! A65   A(33,34,35)           119.813          estimate D2E/DX2                !
 ! A66   A(33,34,36)           119.9004         estimate D2E/DX2                !
 ! A67   A(35,34,36)           120.2866         estimate D2E/DX2                !
 ! A68   A(32,36,34)           119.998          estimate D2E/DX2                !
 ! A69   A(32,36,37)           119.8109         estimate D2E/DX2                !
 ! A70   A(34,36,37)           120.1911         estimate D2E/DX2                !
 ! D1    D(6,1,2,3)             -0.0007         estimate D2E/DX2                !
 ! D2    D(6,1,2,16)           179.9989         estimate D2E/DX2                !
 ! D3    D(15,1,2,3)          -179.9999         estimate D2E/DX2                !
 ! D4    D(15,1,2,16)           -0.0002         estimate D2E/DX2                !
 ! D5    D(2,1,6,5)              0.0009         estimate D2E/DX2                !
 ! D6    D(2,1,6,18)          -179.9987         estimate D2E/DX2                !
 ! D7    D(15,1,6,5)          -180.0            estimate D2E/DX2                !
 ! D8    D(15,1,6,18)            0.0005         estimate D2E/DX2                !
 ! D9    D(1,2,3,4)             -0.001          estimate D2E/DX2                !
 ! D10   D(1,2,3,7)            179.9971         estimate D2E/DX2                !
 ! D11   D(16,2,3,4)           179.9994         estimate D2E/DX2                !
 ! D12   D(16,2,3,7)            -0.0025         estimate D2E/DX2                !
 ! D13   D(2,3,4,5)              0.0024         estimate D2E/DX2                !
 ! D14   D(2,3,4,8)           -179.9991         estimate D2E/DX2                !
 ! D15   D(7,3,4,5)           -179.9957         estimate D2E/DX2                !
 ! D16   D(7,3,4,8)              0.0028         estimate D2E/DX2                !
 ! D17   D(2,3,7,10)          -179.9997         estimate D2E/DX2                !
 ! D18   D(2,3,7,14)            -0.0014         estimate D2E/DX2                !
 ! D19   D(4,3,7,10)            -0.0016         estimate D2E/DX2                !
 ! D20   D(4,3,7,14)           179.9966         estimate D2E/DX2                !
 ! D21   D(3,4,5,6)             -0.0023         estimate D2E/DX2                !
 ! D22   D(3,4,5,17)           179.9978         estimate D2E/DX2                !
 ! D23   D(8,4,5,6)            179.9993         estimate D2E/DX2                !
 ! D24   D(8,4,5,17)            -0.0007         estimate D2E/DX2                !
 ! D25   D(3,4,8,9)             -0.0016         estimate D2E/DX2                !
 ! D26   D(3,4,8,19)          -179.9968         estimate D2E/DX2                !
 ! D27   D(5,4,8,9)            179.9969         estimate D2E/DX2                !
 ! D28   D(5,4,8,19)             0.0016         estimate D2E/DX2                !
 ! D29   D(4,5,6,1)              0.0007         estimate D2E/DX2                !
 ! D30   D(4,5,6,18)          -179.9998         estimate D2E/DX2                !
 ! D31   D(17,5,6,1)          -179.9994         estimate D2E/DX2                !
 ! D32   D(17,5,6,18)            0.0001         estimate D2E/DX2                !
 ! D33   D(3,7,10,9)            -0.0008         estimate D2E/DX2                !
 ! D34   D(3,7,10,11)          179.9974         estimate D2E/DX2                !
 ! D35   D(14,7,10,9)         -179.999          estimate D2E/DX2                !
 ! D36   D(14,7,10,11)          -0.0008         estimate D2E/DX2                !
 ! D37   D(4,8,9,10)            -0.0009         estimate D2E/DX2                !
 ! D38   D(4,8,9,13)           179.995          estimate D2E/DX2                !
 ! D39   D(19,8,9,10)          179.994          estimate D2E/DX2                !
 ! D40   D(19,8,9,13)           -0.01           estimate D2E/DX2                !
 ! D41   D(4,8,19,20)          -88.2613         estimate D2E/DX2                !
 ! D42   D(4,8,19,21)           88.2815         estimate D2E/DX2                !
 ! D43   D(9,8,19,20)           91.7437         estimate D2E/DX2                !
 ! D44   D(9,8,19,21)          -91.7136         estimate D2E/DX2                !
 ! D45   D(8,9,10,7)             0.0021         estimate D2E/DX2                !
 ! D46   D(8,9,10,11)         -179.9962         estimate D2E/DX2                !
 ! D47   D(13,9,10,7)         -179.9938         estimate D2E/DX2                !
 ! D48   D(13,9,10,11)           0.0079         estimate D2E/DX2                !
 ! D49   D(8,9,13,30)           -0.0329         estimate D2E/DX2                !
 ! D50   D(8,9,13,31)          179.974          estimate D2E/DX2                !
 ! D51   D(10,9,13,30)         179.9631         estimate D2E/DX2                !
 ! D52   D(10,9,13,31)          -0.03           estimate D2E/DX2                !
 ! D53   D(7,10,11,12)        -179.9874         estimate D2E/DX2                !
 ! D54   D(7,10,11,32)           0.0099         estimate D2E/DX2                !
 ! D55   D(9,10,11,12)           0.0108         estimate D2E/DX2                !
 ! D56   D(9,10,11,32)        -179.9918         estimate D2E/DX2                !
 ! D57   D(10,11,12,31)         -0.0074         estimate D2E/DX2                !
 ! D58   D(10,11,12,33)        179.9951         estimate D2E/DX2                !
 ! D59   D(32,11,12,31)        179.995          estimate D2E/DX2                !
 ! D60   D(32,11,12,33)         -0.0024         estimate D2E/DX2                !
 ! D61   D(10,11,32,36)       -179.9937         estimate D2E/DX2                !
 ! D62   D(10,11,32,38)         -0.0039         estimate D2E/DX2                !
 ! D63   D(12,11,32,36)          0.0036         estimate D2E/DX2                !
 ! D64   D(12,11,32,38)        179.9935         estimate D2E/DX2                !
 ! D65   D(11,12,31,13)         -0.0173         estimate D2E/DX2                !
 ! D66   D(33,12,31,13)        179.9802         estimate D2E/DX2                !
 ! D67   D(11,12,33,34)          0.0023         estimate D2E/DX2                !
 ! D68   D(11,12,33,39)       -179.9983         estimate D2E/DX2                !
 ! D69   D(31,12,33,34)       -179.9953         estimate D2E/DX2                !
 ! D70   D(31,12,33,39)          0.0041         estimate D2E/DX2                !
 ! D71   D(9,13,31,12)           0.0355         estimate D2E/DX2                !
 ! D72   D(30,13,31,12)       -179.9582         estimate D2E/DX2                !
 ! D73   D(8,19,20,22)         177.3526         estimate D2E/DX2                !
 ! D74   D(8,19,20,23)          -3.1426         estimate D2E/DX2                !
 ! D75   D(21,19,20,22)          0.7725         estimate D2E/DX2                !
 ! D76   D(21,19,20,23)       -179.7227         estimate D2E/DX2                !
 ! D77   D(8,19,21,24)        -177.3522         estimate D2E/DX2                !
 ! D78   D(8,19,21,25)           3.1424         estimate D2E/DX2                !
 ! D79   D(20,19,21,24)         -0.772          estimate D2E/DX2                !
 ! D80   D(20,19,21,25)        179.7226         estimate D2E/DX2                !
 ! D81   D(19,20,22,26)         -0.2907         estimate D2E/DX2                !
 ! D82   D(19,20,22,27)        179.5892         estimate D2E/DX2                !
 ! D83   D(23,20,22,26)       -179.7914         estimate D2E/DX2                !
 ! D84   D(23,20,22,27)          0.0886         estimate D2E/DX2                !
 ! D85   D(19,21,24,26)          0.2898         estimate D2E/DX2                !
 ! D86   D(19,21,24,28)       -179.59           estimate D2E/DX2                !
 ! D87   D(25,21,24,26)        179.791          estimate D2E/DX2                !
 ! D88   D(25,21,24,28)         -0.0887         estimate D2E/DX2                !
 ! D89   D(20,22,26,24)         -0.1993         estimate D2E/DX2                !
 ! D90   D(20,22,26,29)        179.8769         estimate D2E/DX2                !
 ! D91   D(27,22,26,24)        179.9212         estimate D2E/DX2                !
 ! D92   D(27,22,26,29)         -0.0026         estimate D2E/DX2                !
 ! D93   D(21,24,26,22)          0.1997         estimate D2E/DX2                !
 ! D94   D(21,24,26,29)       -179.8765         estimate D2E/DX2                !
 ! D95   D(28,24,26,22)       -179.9209         estimate D2E/DX2                !
 ! D96   D(28,24,26,29)          0.0029         estimate D2E/DX2                !
 ! D97   D(11,32,36,34)         -0.0048         estimate D2E/DX2                !
 ! D98   D(11,32,36,37)        179.9922         estimate D2E/DX2                !
 ! D99   D(38,32,36,34)       -179.9947         estimate D2E/DX2                !
 ! D100  D(38,32,36,37)          0.0023         estimate D2E/DX2                !
 ! D101  D(12,33,34,35)       -179.9992         estimate D2E/DX2                !
 ! D102  D(12,33,34,36)         -0.0033         estimate D2E/DX2                !
 ! D103  D(39,33,34,35)          0.0015         estimate D2E/DX2                !
 ! D104  D(39,33,34,36)        179.9973         estimate D2E/DX2                !
 ! D105  D(33,34,36,32)          0.0046         estimate D2E/DX2                !
 ! D106  D(33,34,36,37)       -179.9924         estimate D2E/DX2                !
 ! D107  D(35,34,36,32)       -179.9996         estimate D2E/DX2                !
 ! D108  D(35,34,36,37)          0.0034         estimate D2E/DX2                !
 --------------------------------------------------------------------------------
 Trust Radius=3.00D-01 FncErr=1.00D-07 GrdErr=1.00D-06
 Number of steps in this run=    231 maximum allowed number of steps=    234.
 GradGradGradGradGradGradGradGradGradGradGradGradGradGradGradGradGradGrad

 Leave Link  103 at Thu Apr  1 20:37:19 2021, MaxMem=  5242880000 cpu:         0.2
 (Enter /opt/nce/packages/global/g09/l202.exe)
                          Input orientation:                          
 ---------------------------------------------------------------------
 Center     Atomic      Atomic             Coordinates (Angstroms)
 Number     Number       Type             X           Y           Z
 ---------------------------------------------------------------------
      1          6           0        1.913229    4.232860    0.000101
      2          6           0        0.598836    3.824762    0.000019
      3          6           0        0.266004    2.440106   -0.000031
      4          6           0        1.319217    1.466350   -0.000016
      5          6           0        2.669071    1.926025    0.000102
      6          6           0        2.957601    3.272920    0.000152
      7          6           0       -1.076295    2.005277   -0.000054
      8          6           0        0.988166    0.075061   -0.000086
      9          6           0       -0.354836   -0.318004   -0.000135
     10          6           0       -1.408010    0.661120   -0.000096
     11          6           0       -2.800835    0.200216   -0.000064
     12          6           0       -3.045273   -1.182364    0.000161
     13          6           0       -0.692975   -1.767487   -0.000320
     14          1           0       -1.858039    2.765110   -0.000008
     15          1           0        2.156736    5.297936    0.000141
     16          1           0       -0.211535    4.557955   -0.000003
     17          1           0        3.474968    1.192695    0.000151
     18          1           0        3.997797    3.606276    0.000239
     19          6           0        2.120695   -0.899252    0.000007
     20          6           0        2.681039   -1.332785   -1.208409
     21          6           0        2.680493   -1.333155    1.208542
     22          6           0        3.774610   -2.200180   -1.208089
     23          1           0        2.249309   -0.992319   -2.152315
     24          6           0        3.774071   -2.200543    1.208451
     25          1           0        2.248338   -0.992977    2.152358
     26          6           0        4.323116   -2.638332    0.000238
     27          1           0        4.199292   -2.537138   -2.156845
     28          1           0        4.198330   -2.537781    2.157296
     29          1           0        5.177847   -3.318874    0.000327
     30          8           0        0.087171   -2.680334   -0.000993
     31          8           0       -2.029478   -2.091014    0.000197
     32          6           0       -3.921562    1.054669   -0.000191
     33          6           0       -4.343179   -1.704055    0.000307
     34          6           0       -5.429704   -0.836013    0.000180
     35          1           0       -6.445442   -1.237456    0.000307
     36          6           0       -5.217053    0.550189   -0.000022
     37          1           0       -6.066623    1.236013    0.000003
     38          1           0       -3.774703    2.135042   -0.000259
     39          1           0       -4.466371   -2.787999    0.000508
 ---------------------------------------------------------------------
                    Distance matrix (angstroms):
                    1          2          3          4          5
     1  C    0.000000
     2  C    1.376290   0.000000
     3  C    2.434608   1.424096   0.000000
     4  C    2.829563   2.465980   1.434384   0.000000
     5  C    2.427506   2.809106   2.457440   1.425976   0.000000
     6  C    1.418520   2.422458   2.817494   2.438852   1.377453
     7  C    3.728187   2.473174   1.410972   2.455386   3.746204
     8  C    4.259464   3.769859   2.472844   1.430133   2.500302
     9  C    5.084730   4.251118   2.827121   2.446706   3.765592
    10  C    4.877290   3.746473   2.442768   2.843618   4.268791
    11  C    6.203597   4.969416   3.797711   4.310212   5.735703
    12  C    7.342438   6.192806   4.907835   5.105336   6.505060
    13  C    6.541901   5.739514   4.315493   3.808756   4.994535
    14  H    4.046820   2.675649   2.148764   3.432453   4.604214
    15  H    1.092558   2.144130   3.426669   3.922052   3.410612
    16  H    2.149490   1.092828   2.171020   3.449815   3.901916
    17  H    3.417840   3.898706   3.442889   2.173051   1.089607
    18  H    2.176702   3.405976   3.909761   3.428422   2.142138
    19  C    5.136304   4.963100   3.819842   2.497687   2.878004
    20  C    5.746863   5.691762   4.639750   3.339151   3.475699
    21  C    5.747134   5.691918   4.639817   3.339298   3.476020
    22  C    6.805032   6.917007   5.941546   4.575133   4.439314
    23  H    5.661125   5.528189   4.510806   3.397428   3.650456
    24  C    6.805257   6.917133   5.941598   4.575238   4.439560
    25  H    5.661615   5.528474   4.510930   3.397686   3.650999
    26  C    7.281541   7.459346   6.500053   5.086435   4.854814
    27  H    7.464005   7.621622   6.700415   5.382811   5.187853
    28  H    7.464366   7.621821   6.700493   5.382969   5.188225
    29  H    8.227176   8.485215   7.569151   6.147145   5.814028
    30  O    7.150297   6.525188   5.123562   4.325844   5.280601
    31  O    7.452270   6.473364   5.079398   4.885550   6.181664
    32  C    6.644222   5.301643   4.410799   5.256924   6.647985
    33  C    8.624941   7.415614   6.198277   6.489545   7.896147
    34  C    8.922563   7.620113   6.570696   7.130835   8.556811
    35  H    9.989581   8.674555   7.652971   8.221952   9.647899
    36  C    8.025147   6.674383   5.799629   6.600165   8.005241
    37  H    8.524032   7.150522   6.446084   7.389431   8.762903
    38  H    6.062459   4.688603   4.052206   5.137623   6.447163
    39  H    9.486399   8.329762   7.051841   7.181401   8.551991
                    6          7          8          9         10
     6  C    0.000000
     7  C    4.228385   0.000000
     8  C    3.755659   2.826258   0.000000
     9  C    4.885384   2.432722   1.399341   0.000000
    10  C    5.087245   1.384483   2.466805   1.438005   0.000000
    11  C    6.526951   2.496454   3.791067   2.500293   1.467104
    12  C    7.475564   3.746723   4.224896   2.825875   2.465576
    13  C    6.223537   3.792187   2.494237   1.488401   2.531681
    14  H    4.842340   1.090170   3.916280   3.430045   2.151581
    15  H    2.177630   4.614552   5.352007   6.151973   5.848716
    16  H    3.419757   2.695176   4.640649   4.878064   4.076380
    17  H    2.143596   4.623233   2.726406   4.116990   4.911827
    18  H    1.092307   5.320677   4.639758   5.860494   6.156029
    19  C    4.255283   4.319379   1.493957   2.542853   3.858305
    20  C    4.769657   5.169172   2.511552   3.421439   4.707016
    21  C    4.770002   5.169070   2.511538   3.421206   4.706782
    22  C    5.664113   6.532725   3.794768   4.696175   6.042006
    23  H    4.829809   4.967640   2.713277   3.445018   4.554326
    24  C    5.664398   6.532645   3.794760   4.696010   6.041826
    25  H    4.830416   4.967453   2.713255   3.444609   4.553897
    26  C    6.066921   7.121569   4.299348   5.221796   6.613032
    27  H    6.320697   7.288148   4.667604   5.506000   6.806046
    28  H    6.321149   7.288018   4.667590   5.505746   6.805759
    29  H    6.955662   8.213457   5.391866   6.294109   7.695055
    30  O    6.609130   4.827899   2.898964   2.403326   3.660721
    31  O    7.324121   4.205729   3.714574   2.438850   2.821429
    32  C    7.227968   2.999867   5.006502   3.821749   2.544175
    33  C    8.835817   4.942841   5.620364   4.222324   3.769519
    34  C    9.339712   5.198567   6.482215   5.101237   4.291320
    35  H   10.428840   6.272404   7.548591   6.159616   5.383337
    36  C    8.616161   4.388981   6.223382   4.939121   3.810658
    37  H    9.251249   5.049271   7.149675   5.919415   4.693951
    38  H    6.827788   2.701526   5.189262   4.208673   2.788132
    39  H    9.583846   5.870955   6.160283   4.796415   4.609772
                   11         12         13         14         15
    11  C    0.000000
    12  C    1.404022   0.000000
    13  C    2.883562   2.423979   0.000000
    14  H    2.732681   4.122145   4.679937   0.000000
    15  H    7.110855   8.309945   7.618468   4.746960   0.000000
    16  H    5.068961   6.401666   6.343737   2.434187   2.481185
    17  H    6.353796   6.939341   5.112184   5.559987   4.311698
    18  H    7.604120   8.516802   7.133069   5.915942   2.500244
    19  C    5.042845   5.173720   2.944583   5.409055   6.197293
    20  C    5.819032   5.854393   3.610044   6.233475   6.760322
    21  C    5.818669   5.853829   3.609748   6.233349   6.760616
    22  C    7.103359   7.000473   4.648144   7.605281   7.765248
    23  H    5.617676   5.718555   3.726795   5.968334   6.648981
    24  C    7.103066   7.000008   4.647920   7.605179   7.765499
    25  H    5.617008   5.717529   3.726286   5.968101   6.649512
    26  C    7.668640   7.510859   5.091124   8.209986   8.226637
    27  H    7.819628   7.679310   5.401596   8.334089   8.379320
    28  H    7.819152   7.678553   5.401252   8.333920   8.379731
    29  H    8.720284   8.496139   6.072343   9.301535   9.131075
    30  O    4.078989   3.472193   1.200799   5.782448   8.242323
    31  O    2.417587   1.362896   1.375104   4.859149   8.492407
    32  C    1.409297   2.402540   4.288163   2.680249   7.412896
    33  C    2.450525   1.398829   3.650755   5.113644   9.553888
    34  C    2.825725   2.409454   4.827447   5.071970   9.755993
    35  H    3.917915   3.400615   5.776834   6.088087  10.803185
    36  C    2.441432   2.778195   5.083198   4.023537   8.770055
    37  H    3.426112   3.870026   6.156062   4.477758   9.171851
    38  H    2.166096   3.396653   4.972603   2.017569   6.722043
    39  H    3.421029   2.144198   3.908959   6.135179  10.452172
                   16         17         18         19         20
    16  H    0.000000
    17  H    4.991521   0.000000
    18  H    4.315573   2.469559   0.000000
    19  C    5.934678   2.492047   4.880911   0.000000
    20  C    6.672934   2.910153   5.252524   1.400787   0.000000
    21  C    6.673049   2.910553   5.252929   1.400786   2.416951
    22  C    7.938590   3.614032   5.935048   2.426385   1.395805
    23  H    6.441564   3.302974   5.370081   2.158169   1.092367
    24  C    7.938684   3.614349   5.935400   2.426386   2.790866
    25  H    6.441776   3.303601   5.370787   2.158169   3.405504
    26  C    8.505857   3.923789   6.253076   2.806253   2.421094
    27  H    8.628308   4.369088   6.514227   3.413978   2.157566
    28  H    8.628460   4.369551   6.514794   3.413977   3.883575
    29  H    9.544102   4.822246   7.024971   3.898814   3.411692
    30  O    7.244450   5.145631   7.403679   2.703234   3.162577
    31  O    6.893019   6.409498   8.293802   4.317897   4.921850
    32  C    5.102677   7.397818   8.320273   6.350329   7.124189
    33  C    7.502216   8.337541   9.887947   6.513783   7.137119
    34  C    7.504944   9.132844  10.421694   7.550664   8.215328
    35  H    8.511662  10.213725  11.511863   8.572811   9.206668
    36  C    6.412285   8.715735   9.708405   7.479534   8.208876
    37  H    6.731817   9.541689  10.339763   8.461178   9.196770
    38  H    4.308906   7.310660   7.910517   6.630434   7.427116
    39  H    8.489209   8.883175  10.607964   6.852503   7.393551
                   21         22         23         24         25
    21  C    0.000000
    22  C    2.790865   0.000000
    23  H    3.405503   2.162645   0.000000
    24  C    1.395806   2.416540   3.883227   0.000000
    25  H    1.092368   3.883227   4.304673   2.162646   0.000000
    26  C    2.421094   1.397458   3.412260   1.397458   3.412260
    27  H    3.883575   1.092718   2.487754   3.408713   4.975931
    28  H    2.157565   3.408714   4.975930   1.092718   2.487753
    29  H    3.411692   2.163520   4.315444   2.163519   4.315444
    30  O    3.162781   3.909582   3.486032   3.909755   3.486364
    31  O    4.921207   5.929529   4.914108   5.929001   4.912962
    32  C    7.123894   8.442993   6.848463   8.442748   6.847918
    33  C    7.136481   8.222217   6.971460   8.221670   6.970298
    34  C    8.214778   9.382977   7.976522   9.382502   7.975515
    35  H    9.206068  10.336175   8.960612  10.335647   8.959515
    36  C    8.208462   9.480188   7.922011   9.479834   7.921248
    37  H    9.196370  10.493654   8.874270  10.493308   8.873534
    38  H    7.426920   8.788921   7.120425   8.788758   7.120062
    39  H    7.392806   8.349851   7.277326   8.349198   7.275980
                   26         27         28         29         30
    26  C    0.000000
    27  H    2.163002   0.000000
    28  H    2.163003   4.314141   0.000000
    29  H    1.092567   2.494408   2.494409   0.000000
    30  O    4.236153   4.645185   4.645445   5.130567   0.000000
    31  O    6.376128   6.606772   6.605927   7.311168   2.197158
    32  C    9.033990   9.137861   9.137456  10.095896   5.479068
    33  C    8.716510   8.849923   8.849016   9.656996   4.536642
    34  C    9.917956  10.013199  10.012402  10.894252   5.816995
    35  H   10.859295  10.938594  10.937702  11.808181   6.690062
    36  C   10.058901  10.141550  10.140957  11.091600   6.210561
    37  H   11.088608  11.147990  11.147408  12.131987   7.294310
    38  H    9.399988   9.490244   9.489972  10.483003   6.172675
    39  H    8.790761   8.933690   8.932602   9.658818   4.554815
                   31         32         33         34         35
    31  O    0.000000
    32  C    3.670872   0.000000
    33  C    2.345837   2.790756   0.000000
    34  C    3.624440   2.418506   1.390695   0.000000
    35  H    4.497699   3.409371   2.153422   1.092191   0.000000
    36  C    4.139636   1.390251   2.417700   1.402418   2.169012
    37  H    5.231410   2.152713   3.407970   2.167708   2.502309
    38  H    4.572238   1.090309   3.880957   3.400911   4.301929
    39  H    2.534608   3.881097   1.090922   2.176754   2.514141
                   36         37         38         39
    36  C    0.000000
    37  H    1.091844   0.000000
    38  H    2.142926   2.461940   0.000000
    39  H    3.421553   4.330529   4.971392   0.000000
 Symmetry turned off by external request.
 Stoichiometry    C23H14O2
 Framework group  C1[X(C23H14O2)]
 Deg. of freedom   111
 Full point group                 C1      NOp   1
 Rotational constants (GHZ):      0.3440059      0.1815317      0.1240053
 Leave Link  202 at Thu Apr  1 20:37:19 2021, MaxMem=  5242880000 cpu:         0.1
 (Enter /opt/nce/packages/global/g09/l301.exe)
 Standard basis: def2TZVP (5D, 7F)
 Ernie: Thresh=  0.10000D-02 Tol=  0.10000D-05 Strict=F.
   859 basis functions,  1387 primitive gaussians,   984 cartesian basis functions
    84 alpha electrons       84 beta electrons
       nuclear repulsion energy      1977.0794931289 Hartrees.
 IExCor= 4639 DFT=T Ex+Corr=wB97XD ExCW=0 ScaHFX=  1.000000
 ScaDFX=  1.000000  1.000000  1.000000  1.000000 ScalE2=  1.000000  1.000000
 IRadAn=      5 IRanWt=     -1 IRanGd=            0 ICorTp=0 IEmpDi=121
  HFx wShort=  0.000000 wLong=  0.200000 cFull=  0.222036 cShort=  0.000000 cLong=  0.777964
  DFx wShort=  0.000000 wLong=  0.200000 cFull=  0.000000 cShort=  0.000000 cLong=  1.000000
 NAtoms=   39 NActive=   39 NUniq=   39 SFac= 1.00D+00 NAtFMM=   60 NAOKFM=F Big=F
 Integral buffers will be    131072 words long.
 Raffenetti 2 integral format.
 Two-electron integral symmetry is turned off.
 R6Disp:  Grimme-D2 Dispersion energy=       -0.0293067842 Hartrees.
 Nuclear repulsion after empirical dispersion term =     1977.0501863447 Hartrees.
 ------------------------------------------------------------------------------
 Polarizable Continuum Model (PCM)
 =================================
 Model                : PCM (using non-symmetric T matrix).
 Atomic radii         : SMD-Coulomb.
 Polarization charges : Total charges.
 Charge compensation  : None.
 Solution method      : On-the-fly selection.
 Cavity type          : VdW (van der Waals Surface) (Alpha=1.000).
 Cavity algorithm     : GePol (No added spheres)
                        Default sphere list used, NSphG=   39.
                        Lebedev-Laikov grids with approx.  5.0 points / Ang**2.
                        Smoothing algorithm: York/Karplus (Gamma=1.0000).
                        Polarization charges: spherical gaussians, with
                                              point-specific exponents (IZeta= 3).
                        Self-potential: point-specific (ISelfS= 7).
                        Self-field    : sphere-specific E.n sum rule (ISelfD= 2).
 1st derivatives      : Analytical E(r).r(x)/FMM algorithm (CHGder, D1EAlg=3).
                        Cavity 1st derivative terms included.
 Solvent              : Acetonitrile, Eps=  35.688000 Eps(inf)=   1.806874
 ------------------------------------------------------------------------------
 GePol: Number of generator spheres                  =      39
 GePol: Total number of spheres                      =      39
 GePol: Number of exposed spheres                    =      39 (100.00%)
 GePol: Number of points                             =    3045
 GePol: Average weight of points                     =       0.11
 GePol: Minimum weight of points                     =   0.11D-07
 GePol: Maximum weight of points                     =    0.21559
 GePol: Number of points with low weight             =     174
 GePol: Fraction of low-weight points (<1% of avg)   =       5.71%
 GePol: Cavity surface area                          =    335.920 Ang**2
 GePol: Cavity volume                                =    340.624 Ang**3
 ------------------------------------------------------------------------------
 Atomic radii for non-electrostatic terms: SMD-CDS.
 ------------------------------------------------------------------------------
 PCM non-electrostatic energy =        -0.0089311955 Hartrees.
 Nuclear repulsion after PCM non-electrostatic terms =     1977.0412551492 Hartrees.
 Leave Link  301 at Thu Apr  1 20:37:19 2021, MaxMem=  5242880000 cpu:         1.6
 (Enter /opt/nce/packages/global/g09/l302.exe)
 NPDir=0 NMtPBC=     1 NCelOv=     1 NCel=       1 NClECP=     1 NCelD=      1
         NCelK=      1 NCelE2=     1 NClLst=     1 CellRange=     0.0.
 One-electron integrals computed using PRISM.
   1 Symmetry operations used in ECPInt.
 ECPInt:  NShTT=   54946 NPrTT=  171412 LenC2=   46968 LenP2D=  102687.
 LDataN:  DoStor=T MaxTD1= 6 Len=  172
 NBasis=   859 RedAO= T EigKep=  2.88D-06  NBF=   859
 NBsUse=   859 1.00D-06 EigRej= -1.00D+00 NBFU=   859
 Precomputing XC quadrature grid using
 IXCGrd= 4 IRadAn=           5 IRanWt=          -1 IRanGd=           0 AccXCQ= 0.00D+00.
 Generated NRdTot=       0 NPtTot=           0 NUsed=           0 NTot=          32
 NSgBfM=   967   967   967   967   967 MxSgAt=    39 MxSgA2=    39.
 Leave Link  302 at Thu Apr  1 20:37:21 2021, MaxMem=  5242880000 cpu:        20.6
 (Enter /opt/nce/packages/global/g09/l303.exe)
 DipDrv:  MaxL=1.
 Leave Link  303 at Thu Apr  1 20:37:21 2021, MaxMem=  5242880000 cpu:         2.0
 (Enter /opt/nce/packages/global/g09/l401.exe)
 ExpMin= 9.52D-02 ExpMax= 2.70D+04 ExpMxC= 9.22D+02 IAcc=3 IRadAn=         5 AccDes= 0.00D+00
 Harris functional with IExCor= 4639 and IRadAn=       5 diagonalized for initial guess.
 HarFok:  IExCor= 4639 AccDes= 0.00D+00 IRadAn=         5 IDoV= 1 UseB2=F ITyADJ=14
 ICtDFT=  3500011 ScaDFX=  1.000000  1.000000  1.000000  1.000000
 FoFCou: FMM=F IPFlag=           0 FMFlag=      100000 FMFlg1=           0
         NFxFlg=           0 DoJE=T BraDBF=F KetDBF=T FulRan=T
         wScrn=  0.000000 ICntrl=     500 IOpCl=  0 I1Cent=   200000004 NGrid=           0
         NMat0=    1 NMatS0=      1 NMatT0=    0 NMatD0=    1 NMtDS0=    0 NMtDT0=    0
 Symmetry not used in FoFCou.
 Harris En= -990.361289480244    
 JPrj=0 DoOrth=F DoCkMO=F.
 Leave Link  401 at Thu Apr  1 20:37:29 2021, MaxMem=  5242880000 cpu:        88.8
 (Enter /opt/nce/packages/global/g09/l502.exe)
 Closed shell SCF:
 Using DIIS extrapolation, IDIIS=  1040.
 Two-electron integral symmetry not used.
 IVT=     2941108 IEndB=     2941108 NGot=  5242880000 MDV=  5240924773
 LenX=  5240924773 LenY=  5239955533
 Requested convergence on RMS density matrix=1.00D-08 within 128 cycles.
 Requested convergence on MAX density matrix=1.00D-06.
 Requested convergence on             energy=1.00D-06.
 No special actions if energy rises.
 Fock matrices will be formed incrementally for  20 cycles.

 Cycle   1  Pass 1  IDiag  1:
 FoFJK:  IHMeth= 1 ICntrl=       0 DoSepK=T KAlg= 0 I1Cent=   0 FoldK=F
 IRaf=         1 NMat=   1 IRICut=       1 DoRegI=T DoRafI=F ISym2E= 0.
 FoFCou: FMM=F IPFlag=           0 FMFlag=      100000 FMFlg1=           0
         NFxFlg=           0 DoJE=T BraDBF=F KetDBF=F FulRan=T
         wScrn=  0.000000 ICntrl=     500 IOpCl=  0 I1Cent=           0 NGrid=           0
         NMat0=    1 NMatS0=      1 NMatT0=    0 NMatD0=    1 NMtDS0=    0 NMtDT0=    0
 Symmetry not used in FoFCou.
 Inv3:  Mode=1 IEnd=    27816075.
 Iteration    1 A*A^-1 deviation from unit magnitude is 6.66D-15 for   3033.
 Iteration    1 A*A^-1 deviation from orthogonality  is 5.05D-15 for   1494   1245.
 Iteration    1 A^-1*A deviation from unit magnitude is 6.66D-15 for   3045.
 Iteration    1 A^-1*A deviation from orthogonality  is 3.54D-10 for   1507   1447.
 Iteration    2 A*A^-1 deviation from unit magnitude is 3.77D-15 for    118.
 Iteration    2 A*A^-1 deviation from orthogonality  is 3.96D-15 for   1447    182.
 Iteration    2 A^-1*A deviation from unit magnitude is 1.33D-15 for   2909.
 Iteration    2 A^-1*A deviation from orthogonality  is 4.33D-16 for   3039    845.
 E= -1035.08644568588    
 DIIS: error= 4.97D-02 at cycle   1 NSaved=   1.
 NSaved= 1 IEnMin= 1 EnMin= -1035.08644568588     IErMin= 1 ErrMin= 4.97D-02
 ErrMax= 4.97D-02  0.00D+00 EMaxC= 1.00D-01 BMatC= 2.29D+00 BMatP= 2.29D+00
 IDIUse=3 WtCom= 5.03D-01 WtEn= 4.97D-01
 Coeff-Com:  0.100D+01
 Coeff-En:   0.100D+01
 Coeff:      0.100D+01
 Gap=     0.335 Goal=   None    Shift=    0.000
 GapD=    0.335 DampG=1.000 DampE=0.500 DampFc=0.5000 IDamp=-1.
 Damping current iteration by 5.00D-01
 RMSDP=3.97D-03 MaxDP=4.40D-01              OVMax= 1.52D-01

 Cycle   2  Pass 1  IDiag  1:
 RMSU=  1.39D-03    CP:  8.25D-01
 E= -1035.23822471075     Delta-E=       -0.151779024869 Rises=F Damp=T
 DIIS: error= 2.41D-02 at cycle   2 NSaved=   2.
 NSaved= 2 IEnMin= 2 EnMin= -1035.23822471075     IErMin= 2 ErrMin= 2.41D-02
 ErrMax= 2.41D-02  0.00D+00 EMaxC= 1.00D-01 BMatC= 4.86D-01 BMatP= 2.29D+00
 IDIUse=3 WtCom= 7.59D-01 WtEn= 2.41D-01
 Coeff-Com: -0.689D+00 0.169D+01
 Coeff-En:   0.000D+00 0.100D+01
 Coeff:     -0.523D+00 0.152D+01
 Gap=     0.325 Goal=   None    Shift=    0.000
 RMSDP=1.38D-03 MaxDP=1.43D-01 DE=-1.52D-01 OVMax= 1.55D-01

 Cycle   3  Pass 1  IDiag  1:
 RMSU=  9.66D-04    CP:  7.27D-01  1.42D+00
 E= -1035.32184388072     Delta-E=       -0.083619169971 Rises=F Damp=F
 DIIS: error= 1.23D-02 at cycle   3 NSaved=   3.
 NSaved= 3 IEnMin= 3 EnMin= -1035.32184388072     IErMin= 3 ErrMin= 1.23D-02
 ErrMax= 1.23D-02  0.00D+00 EMaxC= 1.00D-01 BMatC= 1.05D-01 BMatP= 4.86D-01
 IDIUse=3 WtCom= 8.77D-01 WtEn= 1.23D-01
 Coeff-Com: -0.392D+00 0.850D+00 0.542D+00
 Coeff-En:   0.000D+00 0.000D+00 0.100D+01
 Coeff:     -0.344D+00 0.746D+00 0.598D+00
 Gap=     0.297 Goal=   None    Shift=    0.000
 RMSDP=9.05D-04 MaxDP=9.32D-02 DE=-8.36D-02 OVMax= 5.95D-02

 Cycle   4  Pass 1  IDiag  1:
 RMSU=  3.36D-04    CP:  6.90D-01  1.75D+00  3.36D-01
 E= -1035.39321539743     Delta-E=       -0.071371516710 Rises=F Damp=F
 DIIS: error= 3.33D-03 at cycle   4 NSaved=   4.
 NSaved= 4 IEnMin= 4 EnMin= -1035.39321539743     IErMin= 4 ErrMin= 3.33D-03
 ErrMax= 3.33D-03  0.00D+00 EMaxC= 1.00D-01 BMatC= 8.90D-03 BMatP= 1.05D-01
 IDIUse=3 WtCom= 9.67D-01 WtEn= 3.33D-02
 Coeff-Com: -0.166D+00 0.357D+00 0.334D+00 0.475D+00
 Coeff-En:   0.000D+00 0.000D+00 0.000D+00 0.100D+01
 Coeff:     -0.161D+00 0.346D+00 0.323D+00 0.492D+00
 Gap=     0.272 Goal=   None    Shift=    0.000
 RMSDP=1.98D-04 MaxDP=2.28D-02 DE=-7.14D-02 OVMax= 1.52D-02

 Cycle   5  Pass 1  IDiag  1:
 RMSU=  1.09D-04    CP:  6.81D-01  1.78D+00  4.39D-01  6.99D-01
 E= -1035.39894335412     Delta-E=       -0.005727956691 Rises=F Damp=F
 DIIS: error= 3.98D-04 at cycle   5 NSaved=   5.
 NSaved= 5 IEnMin= 5 EnMin= -1035.39894335412     IErMin= 5 ErrMin= 3.98D-04
 ErrMax= 3.98D-04  0.00D+00 EMaxC= 1.00D-01 BMatC= 1.34D-04 BMatP= 8.90D-03
 IDIUse=3 WtCom= 9.96D-01 WtEn= 3.98D-03
 Coeff-Com: -0.244D-02 0.475D-02 0.355D-01 0.143D+00 0.820D+00
 Coeff-En:   0.000D+00 0.000D+00 0.000D+00 0.000D+00 0.100D+01
 Coeff:     -0.243D-02 0.473D-02 0.354D-01 0.142D+00 0.820D+00
 Gap=     0.272 Goal=   None    Shift=    0.000
 RMSDP=3.96D-05 MaxDP=3.78D-03 DE=-5.73D-03 OVMax= 3.40D-03

 Cycle   6  Pass 1  IDiag  1:
 RMSU=  2.25D-05    CP:  6.80D-01  1.79D+00  4.27D-01  7.80D-01  1.01D+00
 E= -1035.39905012134     Delta-E=       -0.000106767220 Rises=F Damp=F
 DIIS: error= 2.20D-04 at cycle   6 NSaved=   6.
 NSaved= 6 IEnMin= 6 EnMin= -1035.39905012134     IErMin= 6 ErrMin= 2.20D-04
 ErrMax= 2.20D-04  0.00D+00 EMaxC= 1.00D-01 BMatC= 3.60D-05 BMatP= 1.34D-04
 IDIUse=3 WtCom= 9.98D-01 WtEn= 2.20D-03
 Coeff-Com:  0.198D-01-0.430D-01-0.252D-01 0.104D-02 0.405D+00 0.642D+00
 Coeff-En:   0.000D+00 0.000D+00 0.000D+00 0.000D+00 0.000D+00 0.100D+01
 Coeff:      0.198D-01-0.429D-01-0.251D-01 0.104D-02 0.405D+00 0.643D+00
 Gap=     0.273 Goal=   None    Shift=    0.000
 RMSDP=1.58D-05 MaxDP=1.48D-03 DE=-1.07D-04 OVMax= 1.52D-03

 Cycle   7  Pass 1  IDiag  1:
 RMSU=  7.51D-06    CP:  6.79D-01  1.79D+00  4.26D-01  7.98D-01  1.09D+00
                    CP:  1.11D+00
 E= -1035.39908449815     Delta-E=       -0.000034376811 Rises=F Damp=F
 DIIS: error= 4.80D-05 at cycle   7 NSaved=   7.
 NSaved= 7 IEnMin= 7 EnMin= -1035.39908449815     IErMin= 7 ErrMin= 4.80D-05
 ErrMax= 4.80D-05  0.00D+00 EMaxC= 1.00D-01 BMatC= 1.18D-06 BMatP= 3.60D-05
 IDIUse=1 WtCom= 1.00D+00 WtEn= 0.00D+00
 Coeff-Com:  0.399D-02-0.852D-02-0.787D-02-0.131D-01 0.780D-02 0.116D+00
 Coeff-Com:  0.902D+00
 Coeff:      0.399D-02-0.852D-02-0.787D-02-0.131D-01 0.780D-02 0.116D+00
 Coeff:      0.902D+00
 Gap=     0.273 Goal=   None    Shift=    0.000
 RMSDP=4.46D-06 MaxDP=3.87D-04 DE=-3.44D-05 OVMax= 7.31D-04

 Cycle   8  Pass 1  IDiag  1:
 RMSU=  2.60D-06    CP:  6.79D-01  1.79D+00  4.26D-01  8.02D-01  1.10D+00
                    CP:  1.21D+00  1.09D+00
 E= -1035.39908715131     Delta-E=       -0.000002653162 Rises=F Damp=F
 DIIS: error= 1.84D-05 at cycle   8 NSaved=   8.
 NSaved= 8 IEnMin= 8 EnMin= -1035.39908715131     IErMin= 8 ErrMin= 1.84D-05
 ErrMax= 1.84D-05  0.00D+00 EMaxC= 1.00D-01 BMatC= 3.74D-07 BMatP= 1.18D-06
 IDIUse=1 WtCom= 1.00D+00 WtEn= 0.00D+00
 Coeff-Com: -0.172D-02 0.376D-02 0.128D-02-0.561D-02-0.603D-01-0.520D-01
 Coeff-Com:  0.381D+00 0.734D+00
 Coeff:     -0.172D-02 0.376D-02 0.128D-02-0.561D-02-0.603D-01-0.520D-01
 Coeff:      0.381D+00 0.734D+00
 Gap=     0.273 Goal=   None    Shift=    0.000
 RMSDP=1.61D-06 MaxDP=1.39D-04 DE=-2.65D-06 OVMax= 3.37D-04

 Cycle   9  Pass 1  IDiag  1:
 RMSU=  1.22D-06    CP:  6.79D-01  1.79D+00  4.26D-01  8.03D-01  1.10D+00
                    CP:  1.24D+00  1.17D+00  1.17D+00
 E= -1035.39908780108     Delta-E=       -0.000000649771 Rises=F Damp=F
 DIIS: error= 7.64D-06 at cycle   9 NSaved=   9.
 NSaved= 9 IEnMin= 9 EnMin= -1035.39908780108     IErMin= 9 ErrMin= 7.64D-06
 ErrMax= 7.64D-06  0.00D+00 EMaxC= 1.00D-01 BMatC= 3.32D-08 BMatP= 3.74D-07
 IDIUse=1 WtCom= 1.00D+00 WtEn= 0.00D+00
 Coeff-Com: -0.838D-03 0.180D-02 0.137D-02 0.580D-04-0.149D-01-0.254D-01
 Coeff-Com: -0.400D-01 0.153D+00 0.925D+00
 Coeff:     -0.838D-03 0.180D-02 0.137D-02 0.580D-04-0.149D-01-0.254D-01
 Coeff:     -0.400D-01 0.153D+00 0.925D+00
 Gap=     0.273 Goal=   None    Shift=    0.000
 RMSDP=9.42D-07 MaxDP=7.41D-05 DE=-6.50D-07 OVMax= 1.90D-04

 Cycle  10  Pass 1  IDiag  1:
 RMSU=  4.02D-07    CP:  6.79D-01  1.79D+00  4.26D-01  8.02D-01  1.10D+00
                    CP:  1.24D+00  1.18D+00  1.36D+00  1.25D+00
 E= -1035.39908789333     Delta-E=       -0.000000092246 Rises=F Damp=F
 DIIS: error= 3.17D-06 at cycle  10 NSaved=  10.
 NSaved=10 IEnMin=10 EnMin= -1035.39908789333     IErMin=10 ErrMin= 3.17D-06
 ErrMax= 3.17D-06  0.00D+00 EMaxC= 1.00D-01 BMatC= 5.35D-09 BMatP= 3.32D-08
 IDIUse=1 WtCom= 1.00D+00 WtEn= 0.00D+00
 Coeff-Com: -0.529D-04 0.109D-03 0.323D-03 0.715D-03 0.327D-02-0.159D-02
 Coeff-Com: -0.661D-01-0.509D-01 0.303D+00 0.811D+00
 Coeff:     -0.529D-04 0.109D-03 0.323D-03 0.715D-03 0.327D-02-0.159D-02
 Coeff:     -0.661D-01-0.509D-01 0.303D+00 0.811D+00
 Gap=     0.273 Goal=   None    Shift=    0.000
 RMSDP=4.43D-07 MaxDP=3.59D-05 DE=-9.22D-08 OVMax= 7.06D-05

 Cycle  11  Pass 1  IDiag  1:
 RMSU=  1.55D-07    CP:  6.79D-01  1.79D+00  4.26D-01  8.02D-01  1.10D+00
                    CP:  1.24D+00  1.18D+00  1.41D+00  1.37D+00  1.17D+00
 E= -1035.39908790687     Delta-E=       -0.000000013537 Rises=F Damp=F
 DIIS: error= 1.32D-06 at cycle  11 NSaved=  11.
 NSaved=11 IEnMin=11 EnMin= -1035.39908790687     IErMin=11 ErrMin= 1.32D-06
 ErrMax= 1.32D-06  0.00D+00 EMaxC= 1.00D-01 BMatC= 6.21D-10 BMatP= 5.35D-09
 IDIUse=1 WtCom= 1.00D+00 WtEn= 0.00D+00
 Coeff-Com:  0.104D-03-0.224D-03-0.109D-03 0.198D-03 0.316D-02 0.291D-02
 Coeff-Com: -0.131D-01-0.351D-01-0.481D-01 0.222D+00 0.868D+00
 Coeff:      0.104D-03-0.224D-03-0.109D-03 0.198D-03 0.316D-02 0.291D-02
 Coeff:     -0.131D-01-0.351D-01-0.481D-01 0.222D+00 0.868D+00
 Gap=     0.273 Goal=   None    Shift=    0.000
 RMSDP=1.49D-07 MaxDP=1.37D-05 DE=-1.35D-08 OVMax= 3.29D-05

 Cycle  12  Pass 1  IDiag  1:
 RMSU=  6.04D-08    CP:  6.79D-01  1.79D+00  4.26D-01  8.01D-01  1.10D+00
                    CP:  1.24D+00  1.18D+00  1.42D+00  1.39D+00  1.27D+00
                    CP:  1.28D+00
 E= -1035.39908790890     Delta-E=       -0.000000002033 Rises=F Damp=F
 DIIS: error= 6.63D-07 at cycle  12 NSaved=  12.
 NSaved=12 IEnMin=12 EnMin= -1035.39908790890     IErMin=12 ErrMin= 6.63D-07
 ErrMax= 6.63D-07  0.00D+00 EMaxC= 1.00D-01 BMatC= 1.01D-10 BMatP= 6.21D-10
 IDIUse=1 WtCom= 1.00D+00 WtEn= 0.00D+00
 Coeff-Com:  0.205D-04-0.441D-04-0.528D-04-0.136D-04 0.300D-03 0.677D-03
 Coeff-Com:  0.549D-02 0.658D-03-0.478D-01-0.653D-01 0.199D+00 0.907D+00
 Coeff:      0.205D-04-0.441D-04-0.528D-04-0.136D-04 0.300D-03 0.677D-03
 Coeff:      0.549D-02 0.658D-03-0.478D-01-0.653D-01 0.199D+00 0.907D+00
 Gap=     0.273 Goal=   None    Shift=    0.000
 RMSDP=5.56D-08 MaxDP=5.68D-06 DE=-2.03D-09 OVMax= 1.52D-05

 Cycle  13  Pass 1  IDiag  1:
 RMSU=  2.56D-08    CP:  6.79D-01  1.79D+00  4.26D-01  8.01D-01  1.10D+00
                    CP:  1.24D+00  1.18D+00  1.42D+00  1.39D+00  1.30D+00
                    CP:  1.40D+00  1.30D+00
 E= -1035.39908790925     Delta-E=       -0.000000000347 Rises=F Damp=F
 DIIS: error= 2.88D-07 at cycle  13 NSaved=  13.
 NSaved=13 IEnMin=13 EnMin= -1035.39908790925     IErMin=13 ErrMin= 2.88D-07
 ErrMax= 2.88D-07  0.00D+00 EMaxC= 1.00D-01 BMatC= 1.74D-11 BMatP= 1.01D-10
 IDIUse=1 WtCom= 1.00D+00 WtEn= 0.00D+00
 Coeff-Com: -0.821D-05 0.176D-04-0.188D-05-0.383D-04-0.392D-03-0.249D-03
 Coeff-Com:  0.343D-02 0.593D-02-0.603D-02-0.595D-01-0.877D-01 0.252D+00
 Coeff-Com:  0.892D+00
 Coeff:     -0.821D-05 0.176D-04-0.188D-05-0.383D-04-0.392D-03-0.249D-03
 Coeff:      0.343D-02 0.593D-02-0.603D-02-0.595D-01-0.877D-01 0.252D+00
 Coeff:      0.892D+00
 Gap=     0.273 Goal=   None    Shift=    0.000
 RMSDP=2.83D-08 MaxDP=3.63D-06 DE=-3.47D-10 OVMax= 6.69D-06

 Cycle  14  Pass 1  IDiag  1:
 RMSU=  9.82D-09    CP:  6.79D-01  1.79D+00  4.26D-01  8.01D-01  1.10D+00
                    CP:  1.24D+00  1.18D+00  1.42D+00  1.39D+00  1.31D+00
                    CP:  1.45D+00  1.46D+00  1.31D+00
 E= -1035.39908790933     Delta-E=       -0.000000000080 Rises=F Damp=F
 DIIS: error= 1.46D-07 at cycle  14 NSaved=  14.
 NSaved=14 IEnMin=14 EnMin= -1035.39908790933     IErMin=14 ErrMin= 1.46D-07
 ErrMax= 1.46D-07  0.00D+00 EMaxC= 1.00D-01 BMatC= 3.21D-12 BMatP= 1.74D-11
 IDIUse=1 WtCom= 1.00D+00 WtEn= 0.00D+00
 Coeff-Com: -0.371D-05 0.805D-05 0.537D-05-0.126D-04-0.151D-03-0.144D-03
 Coeff-Com:  0.670D-04 0.162D-02 0.556D-02-0.668D-02-0.506D-01-0.721D-01
 Coeff-Com:  0.248D+00 0.874D+00
 Coeff:     -0.371D-05 0.805D-05 0.537D-05-0.126D-04-0.151D-03-0.144D-03
 Coeff:      0.670D-04 0.162D-02 0.556D-02-0.668D-02-0.506D-01-0.721D-01
 Coeff:      0.248D+00 0.874D+00
 Gap=     0.273 Goal=   None    Shift=    0.000
 RMSDP=1.13D-08 MaxDP=1.30D-06 DE=-7.96D-11 OVMax= 2.99D-06

 Cycle  15  Pass 1  IDiag  1:
 RMSU=  4.30D-09    CP:  6.79D-01  1.79D+00  4.26D-01  8.01D-01  1.10D+00
                    CP:  1.24D+00  1.18D+00  1.42D+00  1.39D+00  1.31D+00
                    CP:  1.45D+00  1.50D+00  1.47D+00  1.21D+00
 E= -1035.39908790933     Delta-E=       -0.000000000006 Rises=F Damp=F
 DIIS: error= 5.47D-08 at cycle  15 NSaved=  15.
 NSaved=15 IEnMin=15 EnMin= -1035.39908790933     IErMin=15 ErrMin= 5.47D-08
 ErrMax= 5.47D-08  0.00D+00 EMaxC= 1.00D-01 BMatC= 6.72D-13 BMatP= 3.21D-12
 IDIUse=1 WtCom= 1.00D+00 WtEn= 0.00D+00
 Coeff-Com: -0.201D-07 0.606D-07 0.290D-05 0.377D-05 0.194D-04 0.783D-06
 Coeff-Com: -0.620D-03-0.543D-03 0.301D-02 0.874D-02 0.108D-02-0.702D-01
 Coeff-Com: -0.991D-01 0.261D+00 0.897D+00
 Coeff:     -0.201D-07 0.606D-07 0.290D-05 0.377D-05 0.194D-04 0.783D-06
 Coeff:     -0.620D-03-0.543D-03 0.301D-02 0.874D-02 0.108D-02-0.702D-01
 Coeff:     -0.991D-01 0.261D+00 0.897D+00
 Gap=     0.273 Goal=   None    Shift=    0.000
 RMSDP=4.48D-09 MaxDP=3.26D-07 DE=-5.91D-12 OVMax= 1.38D-06

 Error on total polarization charges =  0.05712
 SCF Done:  E(RwB97XD) =  -1035.39908791     A.U. after   15 cycles
            NFock= 15  Conv=0.45D-08     -V/T= 2.0056
 KE= 1.029679484727D+03 PE=-6.362734874740D+03 EE= 2.320615046954D+03
 SMD-CDS (non-electrostatic) energy       (kcal/mol) =      -5.60
 (included in total energy above)
 Leave Link  502 at Thu Apr  1 21:00:11 2021, MaxMem=  5242880000 cpu:     16304.5
 (Enter /opt/nce/packages/global/g09/l601.exe)
 Copying SCF densities to generalized density rwf, IOpCl= 0 IROHF=0.

 **********************************************************************

            Population analysis using the SCF density.

 **********************************************************************

 Alpha  occ. eigenvalues --  -19.31778 -19.24233 -10.43327 -10.36588 -10.32786
 Alpha  occ. eigenvalues --  -10.32375 -10.32297 -10.31397 -10.31373 -10.31306
 Alpha  occ. eigenvalues --  -10.30431 -10.29996 -10.29929 -10.29863 -10.29784
 Alpha  occ. eigenvalues --  -10.29687 -10.29632 -10.29619 -10.29535 -10.29233
 Alpha  occ. eigenvalues --  -10.28934 -10.28928 -10.28859 -10.28855 -10.28768
 Alpha  occ. eigenvalues --   -1.22915  -1.14421  -0.99824  -0.97034  -0.95971
 Alpha  occ. eigenvalues --   -0.94125  -0.90299  -0.87751  -0.86186  -0.85120
 Alpha  occ. eigenvalues --   -0.84629  -0.84402  -0.81582  -0.77237  -0.74416
 Alpha  occ. eigenvalues --   -0.73304  -0.71291  -0.70309  -0.69792  -0.66714
 Alpha  occ. eigenvalues --   -0.66103  -0.64958  -0.61614  -0.61217  -0.59318
 Alpha  occ. eigenvalues --   -0.57624  -0.57378  -0.56545  -0.55417  -0.54667
 Alpha  occ. eigenvalues --   -0.54241  -0.54137  -0.53076  -0.52149  -0.51909
 Alpha  occ. eigenvalues --   -0.50877  -0.50332  -0.50275  -0.49448  -0.48630
 Alpha  occ. eigenvalues --   -0.47936  -0.47484  -0.45736  -0.45052  -0.44635
 Alpha  occ. eigenvalues --   -0.44188  -0.43586  -0.42512  -0.42138  -0.42105
 Alpha  occ. eigenvalues --   -0.40968  -0.38091  -0.38043  -0.35918  -0.33382
 Alpha  occ. eigenvalues --   -0.32608  -0.32076  -0.31910  -0.28682
 Alpha virt. eigenvalues --   -0.01376   0.00144   0.04795   0.05374   0.05474
 Alpha virt. eigenvalues --    0.06432   0.08310   0.10965   0.12754   0.13650
 Alpha virt. eigenvalues --    0.14101   0.14913   0.15163   0.16489   0.16560
 Alpha virt. eigenvalues --    0.16765   0.17652   0.17951   0.18435   0.19092
 Alpha virt. eigenvalues --    0.19557   0.19606   0.19832   0.20645   0.20997
 Alpha virt. eigenvalues --    0.21422   0.22343   0.22915   0.23748   0.24497
 Alpha virt. eigenvalues --    0.25779   0.25820   0.26257   0.26611   0.26791
 Alpha virt. eigenvalues --    0.27098   0.27551   0.27694   0.27904   0.28560
 Alpha virt. eigenvalues --    0.28863   0.29152   0.29449   0.29521   0.30220
 Alpha virt. eigenvalues --    0.30758   0.31068   0.31528   0.31962   0.32044
 Alpha virt. eigenvalues --    0.32556   0.32767   0.33150   0.33711   0.34090
 Alpha virt. eigenvalues --    0.34126   0.34828   0.35306   0.35593   0.35616
 Alpha virt. eigenvalues --    0.36230   0.36821   0.36824   0.38088   0.38625
 Alpha virt. eigenvalues --    0.38729   0.39030   0.39258   0.40889   0.40897
 Alpha virt. eigenvalues --    0.41444   0.41917   0.41943   0.42437   0.42471
 Alpha virt. eigenvalues --    0.43180   0.43526   0.44067   0.44155   0.44961
 Alpha virt. eigenvalues --    0.44991   0.45319   0.45472   0.46583   0.46772
 Alpha virt. eigenvalues --    0.46938   0.47615   0.48194   0.48196   0.48621
 Alpha virt. eigenvalues --    0.48835   0.48957   0.49772   0.49823   0.50357
 Alpha virt. eigenvalues --    0.50720   0.51177   0.51738   0.52482   0.53083
 Alpha virt. eigenvalues --    0.53591   0.53805   0.54354   0.54669   0.55174
 Alpha virt. eigenvalues --    0.55547   0.56010   0.56285   0.56481   0.57221
 Alpha virt. eigenvalues --    0.57618   0.58321   0.58391   0.58640   0.59496
 Alpha virt. eigenvalues --    0.59536   0.59651   0.60143   0.60407   0.62355
 Alpha virt. eigenvalues --    0.62708   0.63602   0.64254   0.64805   0.65875
 Alpha virt. eigenvalues --    0.65969   0.66871   0.67188   0.68696   0.69234
 Alpha virt. eigenvalues --    0.69446   0.71220   0.71870   0.71904   0.72377
 Alpha virt. eigenvalues --    0.72748   0.73207   0.73566   0.73938   0.74538
 Alpha virt. eigenvalues --    0.74942   0.75177   0.75530   0.75577   0.77023
 Alpha virt. eigenvalues --    0.77032   0.77235   0.77759   0.77779   0.78031
 Alpha virt. eigenvalues --    0.78383   0.79224   0.79687   0.80383   0.80624
 Alpha virt. eigenvalues --    0.80838   0.81748   0.82106   0.82703   0.83187
 Alpha virt. eigenvalues --    0.83525   0.83591   0.84029   0.84446   0.85435
 Alpha virt. eigenvalues --    0.86346   0.86948   0.87259   0.87774   0.88626
 Alpha virt. eigenvalues --    0.88643   0.89331   0.89797   0.89881   0.90938
 Alpha virt. eigenvalues --    0.92065   0.92380   0.93496   0.93543   0.94022
 Alpha virt. eigenvalues --    0.94330   0.94417   0.94700   0.95167   0.95459
 Alpha virt. eigenvalues --    0.96964   0.97292   0.98014   0.98382   0.99069
 Alpha virt. eigenvalues --    0.99131   1.00678   1.01654   1.02435   1.02814
 Alpha virt. eigenvalues --    1.03004   1.03775   1.05381   1.07031   1.07536
 Alpha virt. eigenvalues --    1.08470   1.09358   1.09796   1.10768   1.10786
 Alpha virt. eigenvalues --    1.12249   1.12824   1.13667   1.14167   1.15231
 Alpha virt. eigenvalues --    1.15946   1.16632   1.18014   1.18856   1.20030
 Alpha virt. eigenvalues --    1.20255   1.20699   1.21123   1.21906   1.22534
 Alpha virt. eigenvalues --    1.23160   1.23766   1.25373   1.26026   1.26620
 Alpha virt. eigenvalues --    1.26871   1.28355   1.28398   1.30380   1.30671
 Alpha virt. eigenvalues --    1.31224   1.31414   1.31975   1.32075   1.33494
 Alpha virt. eigenvalues --    1.34031   1.34264   1.34506   1.34995   1.36102
 Alpha virt. eigenvalues --    1.36648   1.37692   1.38020   1.39027   1.39596
 Alpha virt. eigenvalues --    1.41116   1.41259   1.41641   1.43071   1.44453
 Alpha virt. eigenvalues --    1.44518   1.44593   1.45495   1.46294   1.47494
 Alpha virt. eigenvalues --    1.48564   1.48738   1.49132   1.50897   1.51158
 Alpha virt. eigenvalues --    1.51960   1.52188   1.53142   1.54339   1.54541
 Alpha virt. eigenvalues --    1.55516   1.56124   1.56372   1.57088   1.57311
 Alpha virt. eigenvalues --    1.57511   1.58959   1.59385   1.59545   1.60375
 Alpha virt. eigenvalues --    1.60487   1.61369   1.61455   1.62425   1.62808
 Alpha virt. eigenvalues --    1.63826   1.65173   1.65404   1.66706   1.67608
 Alpha virt. eigenvalues --    1.68654   1.69454   1.69698   1.69723   1.70119
 Alpha virt. eigenvalues --    1.71163   1.71584   1.73191   1.73313   1.73906
 Alpha virt. eigenvalues --    1.75164   1.75257   1.75845   1.76681   1.76728
 Alpha virt. eigenvalues --    1.77767   1.77920   1.78222   1.79013   1.79020
 Alpha virt. eigenvalues --    1.79614   1.80400   1.80648   1.81688   1.82435
 Alpha virt. eigenvalues --    1.82761   1.83631   1.84151   1.84697   1.85344
 Alpha virt. eigenvalues --    1.85738   1.86386   1.89389   1.90029   1.91679
 Alpha virt. eigenvalues --    1.91852   1.93245   1.93715   1.94418   1.95242
 Alpha virt. eigenvalues --    1.96128   1.97658   1.98589   1.99909   2.00597
 Alpha virt. eigenvalues --    2.01317   2.02754   2.02876   2.03844   2.05660
 Alpha virt. eigenvalues --    2.05857   2.06859   2.08096   2.08506   2.09331
 Alpha virt. eigenvalues --    2.09894   2.11210   2.12371   2.13098   2.13954
 Alpha virt. eigenvalues --    2.16297   2.17167   2.18297   2.18518   2.19534
 Alpha virt. eigenvalues --    2.19812   2.19952   2.20463   2.21343   2.23065
 Alpha virt. eigenvalues --    2.23317   2.23416   2.24512   2.24940   2.25515
 Alpha virt. eigenvalues --    2.25570   2.26570   2.27312   2.27912   2.28429
 Alpha virt. eigenvalues --    2.29996   2.30199   2.31210   2.33107   2.33136
 Alpha virt. eigenvalues --    2.33820   2.34441   2.35508   2.37394   2.38651
 Alpha virt. eigenvalues --    2.38849   2.40512   2.42534   2.42541   2.42858
 Alpha virt. eigenvalues --    2.45259   2.45443   2.45957   2.47266   2.51014
 Alpha virt. eigenvalues --    2.51156   2.52128   2.53869   2.55183   2.55877
 Alpha virt. eigenvalues --    2.56628   2.58140   2.58567   2.58817   2.60794
 Alpha virt. eigenvalues --    2.61375   2.61439   2.61470   2.62341   2.63350
 Alpha virt. eigenvalues --    2.64755   2.66089   2.66268   2.67403   2.68260
 Alpha virt. eigenvalues --    2.69268   2.69732   2.70126   2.70261   2.71730
 Alpha virt. eigenvalues --    2.72071   2.72759   2.73033   2.73436   2.73758
 Alpha virt. eigenvalues --    2.74319   2.74730   2.75267   2.75620   2.76431
 Alpha virt. eigenvalues --    2.77087   2.77718   2.77995   2.78835   2.79033
 Alpha virt. eigenvalues --    2.79686   2.80084   2.81206   2.81330   2.81815
 Alpha virt. eigenvalues --    2.82476   2.83503   2.83662   2.84413   2.84646
 Alpha virt. eigenvalues --    2.85238   2.85413   2.86650   2.86687   2.87774
 Alpha virt. eigenvalues --    2.87978   2.87986   2.88481   2.89569   2.89641
 Alpha virt. eigenvalues --    2.91143   2.91437   2.91904   2.92108   2.92396
 Alpha virt. eigenvalues --    2.92886   2.93957   2.94266   2.94434   2.95310
 Alpha virt. eigenvalues --    2.96018   2.96441   2.97686   2.98108   2.98668
 Alpha virt. eigenvalues --    2.98749   2.99662   3.00116   3.00537   3.00769
 Alpha virt. eigenvalues --    3.01912   3.02518   3.02933   3.04563   3.04732
 Alpha virt. eigenvalues --    3.05447   3.05729   3.06157   3.07417   3.07641
 Alpha virt. eigenvalues --    3.09251   3.09769   3.09875   3.10887   3.11550
 Alpha virt. eigenvalues --    3.11701   3.12623   3.13671   3.14113   3.15167
 Alpha virt. eigenvalues --    3.16283   3.17275   3.17525   3.17850   3.18436
 Alpha virt. eigenvalues --    3.19024   3.19328   3.19888   3.21024   3.21591
 Alpha virt. eigenvalues --    3.22131   3.22312   3.22683   3.22929   3.23544
 Alpha virt. eigenvalues --    3.24416   3.25061   3.25391   3.25870   3.26454
 Alpha virt. eigenvalues --    3.27202   3.27853   3.28609   3.28657   3.28912
 Alpha virt. eigenvalues --    3.29732   3.30061   3.30821   3.31840   3.31976
 Alpha virt. eigenvalues --    3.32718   3.34637   3.35582   3.35606   3.36194
 Alpha virt. eigenvalues --    3.36364   3.36375   3.37012   3.37483   3.38210
 Alpha virt. eigenvalues --    3.39226   3.39435   3.39562   3.40378   3.40673
 Alpha virt. eigenvalues --    3.41288   3.41970   3.42189   3.42652   3.43898
 Alpha virt. eigenvalues --    3.44821   3.45384   3.45747   3.46366   3.46399
 Alpha virt. eigenvalues --    3.48303   3.48317   3.48597   3.49242   3.49412
 Alpha virt. eigenvalues --    3.50337   3.50729   3.50980   3.51170   3.52852
 Alpha virt. eigenvalues --    3.53167   3.53944   3.54630   3.54643   3.55153
 Alpha virt. eigenvalues --    3.55553   3.56233   3.56253   3.57226   3.58253
 Alpha virt. eigenvalues --    3.58330   3.59335   3.59337   3.60117   3.60289
 Alpha virt. eigenvalues --    3.60474   3.61067   3.61087   3.62873   3.63116
 Alpha virt. eigenvalues --    3.63337   3.64480   3.65057   3.66125   3.67701
 Alpha virt. eigenvalues --    3.68438   3.69516   3.70289   3.70385   3.72459
 Alpha virt. eigenvalues --    3.72656   3.73480   3.74003   3.75489   3.76379
 Alpha virt. eigenvalues --    3.76940   3.77690   3.77964   3.78218   3.81269
 Alpha virt. eigenvalues --    3.81286   3.83030   3.83464   3.84215   3.85254
 Alpha virt. eigenvalues --    3.88001   3.88455   3.89082   3.89636   3.90977
 Alpha virt. eigenvalues --    3.92843   3.94140   3.95518   3.96192   3.98067
 Alpha virt. eigenvalues --    3.98753   3.99756   3.99922   4.00998   4.01735
 Alpha virt. eigenvalues --    4.02682   4.03518   4.05186   4.06098   4.08234
 Alpha virt. eigenvalues --    4.08826   4.10334   4.10434   4.12128   4.13004
 Alpha virt. eigenvalues --    4.13748   4.16043   4.16857   4.16996   4.18510
 Alpha virt. eigenvalues --    4.20117   4.20127   4.21638   4.22530   4.23791
 Alpha virt. eigenvalues --    4.24235   4.24916   4.26289   4.26648   4.27779
 Alpha virt. eigenvalues --    4.28301   4.28824   4.29202   4.30078   4.30689
 Alpha virt. eigenvalues --    4.31182   4.31547   4.32215   4.32705   4.34611
 Alpha virt. eigenvalues --    4.34999   4.35166   4.35609   4.37777   4.37971
 Alpha virt. eigenvalues --    4.39061   4.39629   4.39741   4.41055   4.41204
 Alpha virt. eigenvalues --    4.43537   4.44187   4.45788   4.48250   4.49106
 Alpha virt. eigenvalues --    4.51291   4.52861   4.55378   4.55862   4.57293
 Alpha virt. eigenvalues --    4.60124   4.60131   4.61174   4.62637   4.64945
 Alpha virt. eigenvalues --    4.65833   4.70070   4.70599   4.71783   4.73257
 Alpha virt. eigenvalues --    4.74980   4.75536   4.75782   4.77660   4.80314
 Alpha virt. eigenvalues --    4.80509   4.82109   4.84107   4.85966   4.88569
 Alpha virt. eigenvalues --    4.89349   4.89940   4.91056   4.91851   4.93491
 Alpha virt. eigenvalues --    4.95543   4.98244   4.99193   5.02582   5.03148
 Alpha virt. eigenvalues --    5.06617   5.07287   5.12423   5.15372   5.16653
 Alpha virt. eigenvalues --    5.19040   5.21740   5.24348   5.24980   5.25982
 Alpha virt. eigenvalues --    5.26633   5.28027   5.29011   5.30526   5.33212
 Alpha virt. eigenvalues --    5.33573   5.34980   5.38895   5.39751   5.45865
 Alpha virt. eigenvalues --    5.49002   5.50035   5.50107   5.54740   5.56716
 Alpha virt. eigenvalues --    5.58408   5.60051   5.64954   5.65666   5.68739
 Alpha virt. eigenvalues --    5.72830   5.75032   5.80843   5.87528   5.91488
 Alpha virt. eigenvalues --    5.94937   5.98558   5.99499   6.12449   6.23811
 Alpha virt. eigenvalues --    6.29840   6.43514   6.50873   6.56591   6.61582
 Alpha virt. eigenvalues --    6.68712   6.72892   6.91133   6.94915   6.97763
 Alpha virt. eigenvalues --    7.10435   7.21548   7.35053   7.49676   7.58489
 Alpha virt. eigenvalues --   22.26623  22.37017  22.54137  22.68421  22.70459
 Alpha virt. eigenvalues --   22.72352  22.73382  22.74641  22.77595  22.80433
 Alpha virt. eigenvalues --   22.83193  22.93875  22.97063  23.00395  23.02215
 Alpha virt. eigenvalues --   23.11195  23.17804  23.30594  23.31727  23.41527
 Alpha virt. eigenvalues --   23.54909  23.64055  24.03776  44.16595  44.59719
          Condensed to atoms (all electrons):
               1          2          3          4          5          6
     1  C    5.012182   0.432388   0.017089  -0.069579   0.033213   0.340446
     2  C    0.432388   5.208601   0.359162   0.006780  -0.095819   0.031868
     3  C    0.017089   0.359162   5.127154   0.122174  -0.015339  -0.041485
     4  C   -0.069579   0.006780   0.122174   5.564388   0.378914  -0.023220
     5  C    0.033213  -0.095819  -0.015339   0.378914   5.261922   0.466907
     6  C    0.340446   0.031868  -0.041485  -0.023220   0.466907   5.028496
     7  C    0.003338  -0.113557   0.333942   0.045771   0.030350   0.001584
     8  C   -0.004114   0.010573   0.117493   0.117177  -0.172262  -0.007968
     9  C   -0.000483   0.005175  -0.200465   0.218452   0.042144   0.000918
    10  C   -0.001537   0.008544   0.089501  -0.193952  -0.007089  -0.000356
    11  C    0.000093  -0.002395  -0.002727   0.008370   0.000751  -0.000074
    12  C    0.000003   0.000026   0.001726  -0.002192  -0.000048  -0.000004
    13  C   -0.000073   0.000263  -0.021199   0.059629   0.001273   0.000210
    14  H    0.000441  -0.002353  -0.025104   0.017423  -0.000491   0.000053
    15  H    0.460326  -0.063111   0.012391  -0.002988   0.012728  -0.059563
    16  H   -0.056543   0.458686  -0.068579   0.016591  -0.004586   0.010718
[...]
    35  H   -0.000011  -0.000001  -0.000025   0.000141  -0.006253   0.018079
    36  C   -0.005470   0.000425   0.003386  -0.002226   0.023994  -0.105830
    37  H   -0.000040   0.000002   0.000012   0.000058   0.016315  -0.005653
    38  H    0.017358  -0.000220  -0.002056  -0.025611  -0.030191   0.010163
    39  H   -0.000000   0.000051   0.001684  -0.000869   0.020543  -0.086802
              13         14         15         16         17         18
     1  C   -0.000105   0.000427   0.465616  -0.058442   0.007657  -0.059543
     2  C    0.000380  -0.002168  -0.065999   0.463636  -0.002210   0.012403
     3  C   -0.023141  -0.026101   0.013315  -0.071736   0.006493  -0.003304
     4  C    0.065566   0.018719  -0.003313   0.018257  -0.045197   0.013601
     5  C    0.001162  -0.000594   0.013656  -0.005058   0.441334  -0.059439
     6  C    0.000277   0.000085  -0.061790   0.011469  -0.033012   0.461303
     7  C    0.044806   0.428565  -0.000968  -0.002600   0.000262   0.000114
     8  C   -0.180795  -0.003160   0.000227  -0.000024  -0.019072  -0.000290
     9  C    0.032984   0.010021  -0.000034   0.000405   0.000891   0.000020
    10  C   -0.135793  -0.060683   0.000031   0.000514  -0.000211  -0.000012
    11  C   -0.087228  -0.025471   0.000001  -0.000270  -0.000001  -0.000000
    12  C   -0.042796   0.000748   0.000000   0.000008  -0.000001  -0.000000
    13  C    4.840877   0.000641  -0.000000   0.000002   0.000051   0.000001
    14  H    0.000641   0.476684  -0.000030   0.006201   0.000006  -0.000002
    15  H   -0.000000  -0.000030   0.487643  -0.006883  -0.000057  -0.006574
    16  H    0.000002   0.006201  -0.006883   0.485151   0.000016  -0.000047
    17  H    0.000051   0.000006  -0.000057   0.000016   0.458447  -0.006301
    18  H    0.000001  -0.000002  -0.006574  -0.000047  -0.006301   0.485094
    19  C   -0.129358   0.000333   0.000002   0.000056   0.004120   0.000047
    20  C   -0.003828  -0.000009   0.000000  -0.000002   0.000130  -0.000006
    21  C   -0.003867  -0.000009   0.000000  -0.000002   0.000134  -0.000006
    22  C   -0.000154   0.000000  -0.000000   0.000000  -0.000438   0.000008
    23  H   -0.000208  -0.000000   0.000000  -0.000000   0.000093   0.000001
    24  C   -0.000155   0.000000  -0.000000   0.000000  -0.000438   0.000008
    25  H   -0.000209  -0.000000   0.000000  -0.000000   0.000094   0.000001
    26  C    0.000455  -0.000000  -0.000000  -0.000000   0.000909  -0.000004
    27  H    0.000003   0.000000   0.000000  -0.000000  -0.000030   0.000000
    28  H    0.000003   0.000000   0.000000  -0.000000  -0.000030   0.000000
    29  H   -0.000009  -0.000000  -0.000000   0.000000   0.000006  -0.000000
    30  O    0.778521   0.000008  -0.000000   0.000000   0.000015   0.000000
    31  O    0.461712  -0.000016  -0.000000  -0.000000   0.000000   0.000000
    32  C    0.018866   0.008889  -0.000000   0.000114   0.000000   0.000000
    33  C   -0.021488  -0.000122   0.000000  -0.000000  -0.000000  -0.000000
    34  C    0.002114   0.000099  -0.000000   0.000000   0.000000  -0.000000
    35  H    0.000048  -0.000001  -0.000000  -0.000000   0.000000   0.000000
    36  C   -0.002729  -0.000133  -0.000000  -0.000003  -0.000000   0.000000
    37  H   -0.000020  -0.000015   0.000000  -0.000000  -0.000000  -0.000000
    38  H    0.000077   0.009670   0.000000   0.000088   0.000000  -0.000000
    39  H   -0.001557   0.000001   0.000000   0.000000  -0.000000  -0.000000
              19         20         21         22         23         24
     1  C   -0.000098  -0.000065  -0.000064  -0.000006  -0.000005  -0.000006
     2  C   -0.001407   0.000046   0.000046   0.000003   0.000014   0.000003
     3  C    0.045890   0.001455   0.001455  -0.000038   0.000252  -0.000038
     4  C   -0.316295   0.011597   0.011523  -0.002432   0.002700  -0.002435
     5  C   -0.060231  -0.002763  -0.002754  -0.001225  -0.000088  -0.001220
     6  C   -0.004564   0.001064   0.001061  -0.000073   0.000032  -0.000073
     7  C   -0.021453   0.000416   0.000413  -0.000006  -0.000062  -0.000006
     8  C    0.168042  -0.107741  -0.107773  -0.017354  -0.004690  -0.017371
     9  C   -0.185604   0.007885   0.007904  -0.001998   0.002125  -0.001992
    10  C    0.057511   0.000174   0.000197  -0.000045   0.000045  -0.000045
    11  C   -0.006886   0.000155   0.000156  -0.000022   0.000001  -0.000022
    12  C    0.001771  -0.000012  -0.000012   0.000010   0.000007   0.000010
    13  C   -0.129358  -0.003828  -0.003867  -0.000154  -0.000208  -0.000155
    14  H    0.000333  -0.000009  -0.000009   0.000000  -0.000000   0.000000
    15  H    0.000002   0.000000   0.000000  -0.000000   0.000000  -0.000000
    16  H    0.000056  -0.000002  -0.000002   0.000000  -0.000000   0.000000
    17  H    0.004120   0.000130   0.000134  -0.000438   0.000093  -0.000438
    18  H    0.000047  -0.000006  -0.000006   0.000008   0.000001   0.000008
    19  C    5.854313   0.315679   0.315873   0.069671  -0.068249   0.069639
    20  C    0.315679   5.234347   0.039519   0.351707   0.466641  -0.084670
    21  C    0.315873   0.039519   5.234171  -0.084652   0.015538   0.351805
    22  C    0.069671   0.351707  -0.084652   5.118733  -0.063030   0.051275
    23  H   -0.068249   0.466641   0.015538  -0.063030   0.490779  -0.005221
    24  C    0.069639  -0.084670   0.351805   0.051275  -0.005221   5.118656
    25  H   -0.068258   0.015543   0.466644  -0.005222   0.000013  -0.063035
    26  C   -0.128958   0.056515   0.056478   0.340222   0.012689   0.340253
    27  H    0.014598  -0.063558  -0.004985   0.464950  -0.007068   0.012840
    28  H    0.014599  -0.004986  -0.063560   0.012841   0.000010   0.464952
    29  H   -0.003829   0.010867   0.010867  -0.057043  -0.000035  -0.057043
    30  O   -0.019884   0.004480   0.004471   0.003270  -0.000382   0.003271
    31  O   -0.002935  -0.000223  -0.000225   0.000002   0.000026   0.000002
    32  C   -0.000207   0.000000   0.000000  -0.000000  -0.000000  -0.000000
    33  C    0.000137   0.000002   0.000002   0.000000   0.000000   0.000000
    34  C   -0.000004   0.000000   0.000000  -0.000000   0.000000  -0.000000
    35  H   -0.000000   0.000000   0.000000  -0.000000   0.000000  -0.000000
    36  C    0.000005  -0.000000  -0.000000   0.000000   0.000000   0.000000
    37  H    0.000000  -0.000000  -0.000000   0.000000  -0.000000   0.000000
    38  H    0.000004   0.000000   0.000000  -0.000000   0.000000  -0.000000
    39  H    0.000010  -0.000000  -0.000000   0.000000   0.000000   0.000000
              25         26         27         28         29         30
     1  C   -0.000004   0.000004  -0.000000  -0.000000   0.000000  -0.000001
     2  C    0.000014   0.000000   0.000000   0.000000   0.000000   0.000003
     3  C    0.000250   0.000011  -0.000004  -0.000004   0.000000  -0.001108
     4  C    0.002694   0.000992  -0.000077  -0.000077   0.000009   0.006801
     5  C   -0.000088   0.000693   0.000005   0.000006  -0.000005   0.000147
     6  C    0.000032  -0.000090  -0.000000  -0.000000  -0.000001   0.000009
     7  C   -0.000062   0.000002  -0.000000  -0.000000  -0.000000   0.002068
     8  C   -0.004695   0.004599  -0.000402  -0.000402   0.000038  -0.031724
     9  C    0.002140   0.000606  -0.000029  -0.000029   0.000004  -0.153100
    10  C    0.000044   0.000009  -0.000001  -0.000001   0.000001  -0.005191
    11  C    0.000001   0.000002  -0.000000  -0.000000   0.000000  -0.003100
    12  C    0.000007  -0.000002   0.000000   0.000000  -0.000000   0.000238
    13  C   -0.000209   0.000455   0.000003   0.000003  -0.000009   0.778521
    14  H   -0.000000  -0.000000   0.000000   0.000000  -0.000000   0.000008
    15  H    0.000000  -0.000000   0.000000   0.000000  -0.000000  -0.000000
    16  H   -0.000000  -0.000000  -0.000000  -0.000000   0.000000   0.000000
    17  H    0.000094   0.000909  -0.000030  -0.000030   0.000006   0.000015
    18  H    0.000001  -0.000004   0.000000   0.000000  -0.000000   0.000000
    19  C   -0.068258  -0.128958   0.014598   0.014599  -0.003829  -0.019884
    20  C    0.015543   0.056515  -0.063558  -0.004986   0.010867   0.004480
    21  C    0.466644   0.056478  -0.004985  -0.063560   0.010867   0.004471
    22  C   -0.005222   0.340222   0.464950   0.012841  -0.057043   0.003270
    23  H    0.000013   0.012689  -0.007068   0.000010  -0.000035  -0.000382
    24  C   -0.063035   0.340253   0.012840   0.464952  -0.057043   0.003271
    25  H    0.490788   0.012690   0.000010  -0.007068  -0.000035  -0.000383
    26  C    0.012690   5.111206  -0.060342  -0.060345   0.458567  -0.001673
    27  H    0.000010  -0.060342   0.491900  -0.000010  -0.006663   0.000063
    28  H   -0.007068  -0.060345  -0.000010   0.491902  -0.006663   0.000063
    29  H   -0.000035   0.458567  -0.006663  -0.006663   0.489339  -0.000012
    30  O   -0.000383  -0.001673   0.000063   0.000063  -0.000012   7.881322
    31  O    0.000026   0.000003   0.000000   0.000000  -0.000000  -0.103777
    32  C   -0.000000   0.000000  -0.000000  -0.000000   0.000000   0.000231
    33  C    0.000000  -0.000000   0.000000   0.000000  -0.000000   0.000217
    34  C    0.000000   0.000000  -0.000000  -0.000000   0.000000   0.000014
    35  H    0.000000   0.000000  -0.000000  -0.000000  -0.000000  -0.000000
    36  C    0.000000  -0.000000   0.000000   0.000000  -0.000000  -0.000012
    37  H   -0.000000  -0.000000   0.000000   0.000000   0.000000   0.000000
    38  H    0.000000   0.000000  -0.000000  -0.000000   0.000000   0.000001
    39  H    0.000000  -0.000000   0.000000   0.000000   0.000000  -0.000033
              31         32         33         34         35         36
     1  C   -0.000001  -0.000023   0.000000  -0.000000  -0.000000  -0.000000
     2  C    0.000004   0.000276  -0.000005   0.000000   0.000000  -0.000008
     3  C   -0.000724   0.002802   0.000205  -0.000001  -0.000001  -0.000674
     4  C    0.001512   0.001944  -0.000150   0.000026   0.000000  -0.000039
     5  C    0.000027  -0.000009  -0.000002   0.000000   0.000000  -0.000000
     6  C    0.000001   0.000010  -0.000000   0.000000   0.000000  -0.000000
     7  C    0.001896   0.006506  -0.001768   0.001315  -0.000011  -0.005470
     8  C   -0.004443  -0.007169   0.001317  -0.000278  -0.000001   0.000425
     9  C   -0.164452   0.017519   0.023539  -0.002852  -0.000025   0.003386
    10  C    0.003179  -0.132839  -0.009955  -0.000891   0.000141  -0.002226
    11  C   -0.092405   0.290849   0.090797  -0.109544  -0.006253   0.023994
    12  C    0.266817   0.044316   0.292852   0.053566   0.018079  -0.105830
    13  C    0.461712   0.018866  -0.021488   0.002114   0.000048  -0.002729
    14  H   -0.000016   0.008889  -0.000122   0.000099  -0.000001  -0.000133
    15  H   -0.000000  -0.000000   0.000000  -0.000000  -0.000000  -0.000000
    16  H   -0.000000   0.000114  -0.000000   0.000000  -0.000000  -0.000003
    17  H    0.000000   0.000000  -0.000000   0.000000   0.000000  -0.000000
    18  H    0.000000   0.000000  -0.000000  -0.000000   0.000000   0.000000
    19  C   -0.002935  -0.000207   0.000137  -0.000004  -0.000000   0.000005
    20  C   -0.000223   0.000000   0.000002   0.000000   0.000000  -0.000000
    21  C   -0.000225   0.000000   0.000002   0.000000   0.000000  -0.000000
    22  C    0.000002  -0.000000   0.000000  -0.000000  -0.000000   0.000000
    23  H    0.000026  -0.000000   0.000000   0.000000   0.000000   0.000000
    24  C    0.000002  -0.000000   0.000000  -0.000000  -0.000000   0.000000
    25  H    0.000026  -0.000000   0.000000   0.000000   0.000000   0.000000
    26  C    0.000003   0.000000  -0.000000   0.000000   0.000000  -0.000000
    27  H    0.000000  -0.000000   0.000000  -0.000000  -0.000000   0.000000
    28  H    0.000000  -0.000000   0.000000  -0.000000  -0.000000   0.000000
    29  H   -0.000000   0.000000  -0.000000   0.000000  -0.000000  -0.000000
    30  O   -0.103777   0.000231   0.000217   0.000014  -0.000000  -0.000012
    31  O    7.878725   0.004599  -0.025428   0.001812  -0.000166   0.001179
    32  C    0.004599   5.304768  -0.138154   0.060368   0.015137   0.384985
    33  C   -0.025428  -0.138154   5.242817   0.369488  -0.066372   0.056604
    34  C    0.001812   0.060368   0.369488   5.019639   0.465777   0.361380
    35  H   -0.000166   0.015137  -0.066372   0.465777   0.485920  -0.065424
    36  C    0.001179   0.384985   0.056604   0.361380  -0.065424   5.084905
    37  H    0.000013  -0.064977   0.013896  -0.060836  -0.006775   0.465872
    38  H   -0.000062   0.427385  -0.002523   0.008318  -0.000039  -0.044758
    39  H    0.006972  -0.006689   0.471562  -0.052936  -0.007870   0.013926
              37         38         39
     1  C    0.000000   0.000001   0.000000
     2  C    0.000000   0.000033   0.000000
     3  C    0.000002   0.004072   0.000004
     4  C   -0.000001   0.000285  -0.000004
     5  C   -0.000000  -0.000004  -0.000000
     6  C   -0.000000   0.000000  -0.000000
     7  C   -0.000040   0.017358  -0.000000
     8  C    0.000002  -0.000220   0.000051
     9  C    0.000012  -0.002056   0.001684
    10  C    0.000058  -0.025611  -0.000869
    11  C    0.016315  -0.030191   0.020543
    12  C   -0.005653   0.010163  -0.086802
    13  C   -0.000020   0.000077  -0.001557
    14  H   -0.000015   0.009670   0.000001
    15  H    0.000000   0.000000   0.000000
    16  H   -0.000000   0.000088   0.000000
    17  H   -0.000000   0.000000  -0.000000
    18  H   -0.000000  -0.000000  -0.000000
    19  C    0.000000   0.000004   0.000010
    20  C   -0.000000   0.000000  -0.000000
    21  C   -0.000000   0.000000  -0.000000
    22  C    0.000000  -0.000000   0.000000
    23  H   -0.000000   0.000000   0.000000
    24  C    0.000000  -0.000000   0.000000
    25  H   -0.000000   0.000000   0.000000
    26  C   -0.000000   0.000000  -0.000000
    27  H    0.000000  -0.000000   0.000000
    28  H    0.000000  -0.000000   0.000000
    29  H    0.000000   0.000000   0.000000
    30  O    0.000000   0.000001  -0.000033
    31  O    0.000013  -0.000062   0.006972
    32  C   -0.064977   0.427385  -0.006689
    33  C    0.013896  -0.002523   0.471562
    34  C   -0.060836   0.008318  -0.052936
    35  H   -0.006775  -0.000039  -0.007870
    36  C    0.465872  -0.044758   0.013926
    37  H    0.485051  -0.006082   0.000025
    38  H   -0.006082   0.463324   0.000003
    39  H    0.000025   0.000003   0.477762
 Mulliken charges:
               1
     1  C   -0.113622
     2  C   -0.254209
     3  C    0.144421
     4  C    0.031864
     5  C   -0.253373
     6  C   -0.165791
     7  C   -0.410846
     8  C    0.330879
     9  C   -0.172267
    10  C    0.204057
    11  C    0.108410
    12  C    0.212805
    13  C    0.384892
    14  H    0.157417
    15  H    0.165157
    16  H    0.159151
    17  H    0.186338
    18  H    0.162926
    19  C    0.085920
    20  C   -0.250359
    21  C   -0.250347
    22  C   -0.178955
    23  H    0.158074
    24  C   -0.178948
    25  H    0.158071
    26  C   -0.145491
    27  H    0.158799
    28  H    0.158799
    29  H    0.161641
    30  O   -0.364833
    31  O   -0.233652
    32  C   -0.239498
    33  C   -0.297468
    34  C   -0.116574
    35  H    0.167835
    36  C   -0.169353
    37  H    0.163151
    38  H    0.170764
    39  H    0.164217
 Sum of Mulliken charges =  -0.00000
 Mulliken charges with hydrogens summed into heavy atoms:
               1
     1  C    0.051535
     2  C   -0.095058
     3  C    0.144421
     4  C    0.031864
     5  C   -0.067035
     6  C   -0.002865
     7  C   -0.253429
     8  C    0.330879
     9  C   -0.172267
    10  C    0.204057
    11  C    0.108410
    12  C    0.212805
    13  C    0.384892
    19  C    0.085920
    20  C   -0.092285
    21  C   -0.092277
    22  C   -0.020156
    24  C   -0.020149
    26  C    0.016149
    30  O   -0.364833
    31  O   -0.233652
    32  C   -0.068734
    33  C   -0.133251
    34  C    0.051261
    36  C   -0.006202
 Electronic spatial extent (au):  <R**2>=           8259.5084
 Charge=              0.0000 electrons
 Dipole moment (field-independent basis, Debye):
    X=             -1.5262    Y=              6.0469    Z=              0.0014  Tot=              6.2365
 Quadrupole moment (field-independent basis, Debye-Ang):
   XX=           -112.1571   YY=           -135.4264   ZZ=           -141.5997
   XY=             -2.1125   XZ=             -0.0026   YZ=             -0.0081
 Traceless Quadrupole moment (field-independent basis, Debye-Ang):
   XX=             17.5707   YY=             -5.6987   ZZ=            -11.8720
   XY=             -2.1125   XZ=             -0.0026   YZ=             -0.0081
 Octapole moment (field-independent basis, Debye-Ang**2):
  XXX=            -81.9591  YYY=            103.8741  ZZZ=             -0.0020  XYY=              3.2325
  XXY=            -18.6668  XXZ=             -0.0064  XZZ=             23.3704  YZZ=            -27.4777
  YYZ=              0.0248  XYZ=             -0.0020
 Hexadecapole moment (field-independent basis, Debye-Ang**3):
 XXXX=          -6304.4243 YYYY=          -3448.3626 ZZZZ=           -379.3739 XXXY=            -24.4251
 XXXZ=             -0.1112 YYYX=             87.7880 YYYZ=             -0.0314 ZZZX=              0.0381
 ZZZY=              0.0273 XXYY=          -1517.5269 XXZZ=          -1328.8732 YYZZ=           -718.8516
 XXYZ=             -0.0069 YYXZ=              0.0531 ZZXY=            -52.7060
 N-N= 1.988865506724D+03 E-N=-6.387092339991D+03  KE= 1.030526751347D+03
 Leave Link  601 at Fri Apr  2 05:58:59 2021, MaxMem=  5242880000 cpu:         4.5
 (Enter /opt/nce/packages/global/g09/l9999.exe)
 1\1\GINC-CN043\SP\RwB97XD TD-FC\Gen\C23H14O2\PNG4RJV\02-Apr-2021\0\\#p
  wB97XD chkbasis geom=allcheck Guess=Read int=ultrafine scrf=(SMD,solv
 ent=Acetonitrile) td=(NStates=30)\\Title\\0,1\C,0,1.8956673784,4.19974
 46655,-0.0000026818\C,0,0.5950466739,3.7928677805,-0.0000762618\C,0,0.
 2702018139,2.4124490305,-0.0000910595\C,0,1.3107542154,1.4502993986,-0
 .0000478015\C,0,2.6550496589,1.9110483128,0.0000586123\C,0,2.93683387,
 3.2456692743,0.0000755325\C,0,-1.067861213,1.986811109,-0.000104907\C,
 0,0.9799086519,0.0669225019,-0.0001012798\C,0,-0.3521944523,-0.3185307
 819,-0.0001714487\C,0,-1.3960571587,0.6569013585,-0.0001187332\C,0,-2.
 790251797,0.2019456728,-0.0000346613\C,0,-3.0398106572,-1.1626840365,0
 .0001030297\C,0,-0.7085127598,-1.7566491052,-0.0003531753\H,0,-1.83585
 54507,2.748288304,-0.0000779715\H,0,2.1366470543,5.2555494698,0.000007
 0375\H,0,-0.2129977324,4.5148292771,-0.0001196615\H,0,3.4641091492,1.1
 938228119,0.000125322\H,0,3.9669688839,3.5791997698,0.0001529069\C,0,2
 .1144057823,-0.9003524724,0.0000074128\C,0,2.6742099958,-1.3228661601,
 -1.1999709368\C,0,2.6733704824,-1.3235518201,1.2001362417\C,0,3.764683
 1527,-2.1796364511,-1.199881968\H,0,2.2500431209,-0.9832384399,-2.1374
 682592\C,0,3.763848976,-2.1803157886,1.2003199932\H,0,2.248537728,-0.9
 844671424,2.137529144\C,0,4.3106159371,-2.6138501644,0.0002865211\H,0,
 4.1901712627,-2.5075146797,-2.1406064393\H,0,4.1886813004,-2.508725440
 3,2.141155229\H,0,5.1627049651,-3.2824956296,0.0003930938\O,0,0.058019
 5985,-2.6812015707,-0.0008524794\O,0,-2.0257008594,-2.0776650144,0.000
 0374922\C,0,-3.9004188686,1.0538481849,-0.0000245277\C,0,-4.3246114383
 ,-1.6859707431,0.0002830905\C,0,-5.4014342969,-0.8223846344,0.00030710
 35\H,0,-6.4087882143,-1.2187457839,0.0004445353\C,0,-5.1866405922,0.55
 29346273,0.00014171\H,0,-6.0275870454,1.2343481802,0.0001463648\H,0,-3
 .7593824221,2.1258689264,-0.0001459804\H,0,-4.4583516932,-2.7599827971
 ,0.0003908609\\Version=ES64L-G09RevE.01\State=1-A\HF=-1035.4027914\RMS
 D=6.616e-09\PG=C01 [X(C23H14O2)]\\@


 SUCCESS IS NEVER CERTAIN,
 FAILURE IS NEVER FINAL.
 Job cpu time:       1 days  5 hours 20 minutes 43.0 seconds.
 File lengths (MBytes):  RWF=   3643 Int=      0 D2E=      0 Chk=    660 Scr=      1
 Normal termination of Gaussian 09 at Fri Apr  2 05:59:00 2021.
