
                                 *****************
                                 * O   R   C   A *
                                 *****************

                                            #,                                       
                                            ###                                      
                                            ####                                     
                                            #####                                    
                                            ######                                   
                                           ########,                                 
                                     ,,################,,,,,                         
                               ,,#################################,,                 
                          ,,##########################################,,             
                       ,#########################################, ''#####,          
                    ,#############################################,,   '####,        
                  ,##################################################,,,,####,       
                ,###########''''           ''''###############################       
              ,#####''   ,,,,##########,,,,          '''####'''          '####       
            ,##' ,,,,###########################,,,                        '##       
           ' ,,###''''                  '''############,,,                           
         ,,##''                                '''############,,,,        ,,,,,,###''
      ,#''                                            '''#######################'''  
     '                                                          ''''####''''         
             ,#######,   #######,   ,#######,      ##                                
            ,#'     '#,  ##    ##  ,#'     '#,    #''#        ######   ,####,        
            ##       ##  ##   ,#'  ##            #'  '#       #        #'  '#        
            ##       ##  #######   ##           ,######,      #####,   #    #        
            '#,     ,#'  ##    ##  '#,     ,#' ,#      #,         ##   #,  ,#        
             '#######'   ##     ##  '#######'  #'      '#     #####' # '####'        



                  #######################################################
                  #                        -***-                        #
                  #          Department of theory and spectroscopy      #
                  #    Directorship and core code : Frank Neese         #
                  #        Max Planck Institute fuer Kohlenforschung    #
                  #                Kaiser Wilhelm Platz 1               #
                  #                 D-45470 Muelheim/Ruhr               #
                  #                      Germany                        #
                  #                                                     #
                  #                  All rights reserved                #
                  #                        -***-                        #
                  #######################################################


                         Program Version 5.0.2 -  RELEASE  -


 With contributions from (in alphabetic order):
   Daniel Aravena         : Magnetic Suceptibility
   Michael Atanasov       : Ab Initio Ligand Field Theory (pilot matlab implementation)
   Alexander A. Auer      : GIAO ZORA, VPT2 properties, NMR spectrum
   Ute Becker             : Parallelization
   Giovanni Bistoni       : ED, misc. LED, open-shell LED, HFLD
   Martin Brehm           : Molecular dynamics
   Dmytro Bykov           : SCF Hessian
   Vijay G. Chilkuri      : MRCI spin determinant printing, contributions to CSF-ICE
   Dipayan Datta          : RHF DLPNO-CCSD density
   Achintya Kumar Dutta   : EOM-CC, STEOM-CC
   Dmitry Ganyushin       : Spin-Orbit,Spin-Spin,Magnetic field MRCI
   Miquel Garcia          : C-PCM and meta-GGA Hessian, CC/C-PCM, Gaussian charge scheme
   Yang Guo               : DLPNO-NEVPT2, F12-NEVPT2, CIM, IAO-localization
   Andreas Hansen         : Spin unrestricted coupled pair/coupled cluster methods
   Benjamin Helmich-Paris : MC-RPA, TRAH-SCF, COSX integrals
   Lee Huntington         : MR-EOM, pCC
   Robert Izsak           : Overlap fitted RIJCOSX, COSX-SCS-MP3, EOM
   Marcus Kettner         : VPT2
   Christian Kollmar      : KDIIS, OOCD, Brueckner-CCSD(T), CCSD density, CASPT2, CASPT2-K
   Simone Kossmann        : Meta GGA functionals, TD-DFT gradient, OOMP2, MP2 Hessian
   Martin Krupicka        : Initial AUTO-CI
   Lucas Lang             : DCDCAS
   Marvin Lechner         : AUTO-CI (C++ implementation), FIC-MRCC
   Dagmar Lenk            : GEPOL surface, SMD
   Dimitrios Liakos       : Extrapolation schemes; Compound Job, initial MDCI parallelization
   Dimitrios Manganas     : Further ROCIS development; embedding schemes
   Dimitrios Pantazis     : SARC Basis sets
   Anastasios Papadopoulos: AUTO-CI, single reference methods and gradients
   Taras Petrenko         : DFT Hessian,TD-DFT gradient, ASA, ECA, R-Raman, ABS, FL, XAS/XES, NRVS
   Peter Pinski           : DLPNO-MP2, DLPNO-MP2 Gradient
   Christoph Reimann      : Effective Core Potentials
   Marius Retegan         : Local ZFS, SOC
   Christoph Riplinger    : Optimizer, TS searches, QM/MM, DLPNO-CCSD(T), (RO)-DLPNO pert. Triples
   Tobias Risthaus        : Range-separated hybrids, TD-DFT gradient, RPA, STAB
   Michael Roemelt        : Original ROCIS implementation
   Masaaki Saitow         : Open-shell DLPNO-CCSD energy and density
   Barbara Sandhoefer     : DKH picture change effects
   Avijit Sen             : IP-ROCIS
   Kantharuban Sivalingam : CASSCF convergence, NEVPT2, FIC-MRCI
   Bernardo de Souza      : ESD, SOC TD-DFT
   Georgi Stoychev        : AutoAux, RI-MP2 NMR, DLPNO-MP2 response
   Willem Van den Heuvel  : Paramagnetic NMR
   Boris Wezisla          : Elementary symmetry handling
   Frank Wennmohs         : Technical directorship


 We gratefully acknowledge several colleagues who have allowed us to
 interface, adapt or use parts of their codes:
   Stefan Grimme, W. Hujo, H. Kruse, P. Pracht,  : VdW corrections, initial TS optimization,
                  C. Bannwarth, S. Ehlert          DFT functionals, gCP, sTDA/sTD-DF
   Ed Valeev, F. Pavosevic, A. Kumar             : LibInt (2-el integral package), F12 methods
   Garnet Chan, S. Sharma, J. Yang, R. Olivares  : DMRG
   Ulf Ekstrom                                   : XCFun DFT Library
   Mihaly Kallay                                 : mrcc  (arbitrary order and MRCC methods)
   Jiri Pittner, Ondrej Demel                    : Mk-CCSD
   Frank Weinhold                                : gennbo (NPA and NBO analysis)
   Christopher J. Cramer and Donald G. Truhlar   : smd solvation model
   Lars Goerigk                                  : TD-DFT with DH, B97 family of functionals
   V. Asgeirsson, H. Jonsson                     : NEB implementation
   FAccTs GmbH                                   : IRC, NEB, NEB-TS, DLPNO-Multilevel, CI-OPT
                                                   MM, QMMM, 2- and 3-layer-ONIOM, Crystal-QMMM,
                                                   LR-CPCM, SF, NACMEs, symmetry and pop. for TD-DFT,
                                                   nearIR, NL-DFT gradient (VV10), updates on ESD,
                                                   ML-optimized integration grids
   S Lehtola, MJT Oliveira, MAL Marques          : LibXC Library
   Liviu Ungur et al                             : ANISO software


 Your calculation uses the libint2 library for the computation of 2-el integrals
 For citations please refer to: http://libint.valeyev.net

 Your ORCA version has been built with support for libXC version: 5.1.0
 For citations please refer to: https://tddft.org/programs/libxc/

 This ORCA versions uses:
   CBLAS   interface :  Fast vector & matrix operations
   LAPACKE interface :  Fast linear algebra routines
   SCALAPACK package :  Parallel linear algebra routines
   Shared memory     :  Shared parallel matrices
   BLAS/LAPACK       :  OpenBLAS 0.3.15  USE64BITINT DYNAMIC_ARCH NO_AFFINITY Zen SINGLE_THREADED
        Core in use  :  Zen
   Copyright (c) 2011-2014, The OpenBLAS Project


Your calculation utilizes the atom-pairwise dispersion correction
with the Becke-Johnson damping scheme (D3BJ)
Cite in your paper:
S.Grimme, S.Ehrlich, L.Goerigk, J Comput Chem, (2011), 32, 1456–1465 
S.Grimme, J.Antony, S.Ehrlich and H.Krieg, J.Chem.Phys., 132, (2010), 154104 
   

Your calculation utilizes the SMD solvation module
Please cite in your paper:
A.V. Marenich, C.J. Cramer, D.G. Truhlar J. Phys. Chem. B, 113, (2009), 6378 

================================================================================

----- Orbital basis set information -----
Your calculation utilizes the basis: def2-TZVP
   F. Weigend and R. Ahlrichs, Phys. Chem. Chem. Phys. 7, 3297 (2005).

----- AuxJ basis set information -----
Your calculation utilizes the auxiliary basis: def2/J
   F. Weigend, Phys. Chem. Chem. Phys. 8, 1057 (2006).

----- AuxC basis set information -----
Your calculation utilizes the auxiliary basis: def2-TZVP/C
  H-La, Hf-Rn : A. Hellweg, C. Hattig, S. Hofener and W. Klopper, Theor. Chem. Acc. 117, 587 (2007).
        Ce-Lu : J. Chmela and M. E. Harding, Mol. Phys. (2018).

================================================================================
                                        WARNINGS
                       Please study these warnings very carefully!
================================================================================

INFO   : Checking CIS options ...
  ===> : (D) CORRECTION FOUND - SETTING MODE=3
  ===> : JK MODE FOUND - ACTIVATING RI-MP2 CODE
  ===> : MP2 AND CIS FOUND - CHECKING
WARNING: CIS(D) and MP2 runs must have the same orbital window
  ===> : adjusting orbital windows

WARNING: No MP2 level density has been requested!
         To caclulate MP2 level properties use
         %mp2 Density relaxed end
         or
         %mp2 Density unrelaxed end
         Otherwise for double-hybrid DFT only the energy is correct!

WARNING: The frozen-core approximation is turned on by default for 
         the MP2 part of double-hybrid DFT.

WARNING: CIS/ROCIS methods need fully converged wavefunctions
  ===> : Setting SCFConvForced true
         You can overwrite this default with %scf ConvForced false 


INFO   : the flag for use of the SHARK integral package has been found!

================================================================================
                                       INPUT FILE
================================================================================
NAME = NCE_1_M06L_def2TZVP_coords.inp
|  1> %maxcore 3200
|  2> %pal
|  3>  nprocs= 8
|  4> end
|  5> ! RI-B2PLYP D3BJ def2-TZVP def2/J def2-TZVP/C RIJCOSX CPCM TightSCF
|  6> %TDDFT DCORR 4
|  7>    NROOTS   30
|  8> 
|  9>    TDA      FALSE
| 10> END
| 11> 
| 12> %CPCM
| 13>    SMD          TRUE
| 14>    SMDsolvent   "ACETONITRILE"
| 15> END
| 16>    
| 17> 
| 18> * xyz 0 1
| 19> C                   1.88629500    4.20967500    0.00975300
| 20> C                   0.58312800    3.79831200    0.00210500
| 21> C                   0.25769100    2.42219400   -0.00134700
| 22> C                   1.30920500    1.45669500    0.00107500
| 23> C                   2.64691800    1.92250500    0.01243900
| 24> C                   2.92695500    3.26158300    0.01602800
| 25> C                  -1.07371400    1.98976500   -0.00338400
| 26> C                   0.98468200    0.07504500   -0.00581700
| 27> C                  -0.35228100   -0.31916500   -0.01347600
| 28> C                  -1.40159000    0.65276500   -0.00694200
| 29> C                  -2.78227100    0.19662400   -0.00248100
| 30> C                  -3.03132000   -1.17416000   -0.00726700
| 31> C                  -0.68796500   -1.74830700   -0.03892000
| 32> H                  -1.84891700    2.74447200   -0.00088500
| 33> H                   2.12316200    5.26611500    0.01239500
| 34> H                  -0.22628700    4.51846200   -0.00072200
| 35> H                   3.45640600    1.20471800    0.01849500
| 36> H                   3.95616700    3.59676900    0.02445700
| 37> C                   2.11411600   -0.89034300    0.00271100
| 38> C                   2.72559400   -1.27145900   -1.18861100
| 39> C                   2.62603400   -1.36512600    1.20739000
| 40> C                   3.80945300   -2.13635800   -1.17698700
| 41> H                   2.34182200   -0.89323000   -2.12894300
| 42> C                   3.71094200   -2.22830500    1.21828200
| 43> H                   2.16267700   -1.06177500    2.13897800
| 44> C                   4.30390800   -2.62059300    0.02608700
| 45> H                   4.27114100   -2.43019900   -2.11161500
| 46> H                   4.09560600   -2.59412600    2.16233200
| 47> H                   5.15107000   -3.29480400    0.03504000
| 48> O                   0.08459400   -2.67312200   -0.07461200
| 49> O                  -2.01530000   -2.08680800   -0.02449300
| 50> C                  -3.89782100    1.04425400    0.01055500
| 51> C                  -4.31611200   -1.69787100    0.00165800
| 52> C                  -5.39467800   -0.83571300    0.01492800
| 53> H                  -6.40094900   -1.23393300    0.02187300
| 54> C                  -5.18255600    0.54027400    0.01893300
| 55> H                  -6.02502100    1.21919700    0.02905900
| 56> H                  -3.75312400    2.11601700    0.01476600
| 57> H                  -4.44577800   -2.77198100   -0.00265200
| 58> *
| 59> 
| 60> 
| 61>                          ****END OF INPUT****
================================================================================

                       ****************************
                       * Single Point Calculation *
                       ****************************

---------------------------------
CARTESIAN COORDINATES (ANGSTROEM)
---------------------------------
  C      1.886295    4.209675    0.009753
  C      0.583128    3.798312    0.002105
  C      0.257691    2.422194   -0.001347
  C      1.309205    1.456695    0.001075
  C      2.646918    1.922505    0.012439
  C      2.926955    3.261583    0.016028
  C     -1.073714    1.989765   -0.003384
  C      0.984682    0.075045   -0.005817
  C     -0.352281   -0.319165   -0.013476
  C     -1.401590    0.652765   -0.006942
  C     -2.782271    0.196624   -0.002481
  C     -3.031320   -1.174160   -0.007267
  C     -0.687965   -1.748307   -0.038920
  H     -1.848917    2.744472   -0.000885
  H      2.123162    5.266115    0.012395
  H     -0.226287    4.518462   -0.000722
  H      3.456406    1.204718    0.018495
  H      3.956167    3.596769    0.024457
  C      2.114116   -0.890343    0.002711
  C      2.725594   -1.271459   -1.188611
  C      2.626034   -1.365126    1.207390
  C      3.809453   -2.136358   -1.176987
  H      2.341822   -0.893230   -2.128943
  C      3.710942   -2.228305    1.218282
  H      2.162677   -1.061775    2.138978
  C      4.303908   -2.620593    0.026087
  H      4.271141   -2.430199   -2.111615
  H      4.095606   -2.594126    2.162332
  H      5.151070   -3.294804    0.035040
  O      0.084594   -2.673122   -0.074612
  O     -2.015300   -2.086808   -0.024493
  C     -3.897821    1.044254    0.010555
  C     -4.316112   -1.697871    0.001658
  C     -5.394678   -0.835713    0.014928
  H     -6.400949   -1.233933    0.021873
  C     -5.182556    0.540274    0.018933
  H     -6.025021    1.219197    0.029059
  H     -3.753124    2.116017    0.014766
  H     -4.445778   -2.771981   -0.002652

----------------------------
CARTESIAN COORDINATES (A.U.)
----------------------------
  NO LB      ZA    FRAG     MASS         X           Y           Z
   0 C     6.0000    0    12.011    3.564581    7.955133    0.018430
   1 C     6.0000    0    12.011    1.101952    7.177769    0.003978
   2 C     6.0000    0    12.011    0.486965    4.577283   -0.002545
   3 C     6.0000    0    12.011    2.474039    2.752755    0.002031
   4 C     6.0000    0    12.011    5.001950    3.633008    0.023506
   5 C     6.0000    0    12.011    5.531143    6.163499    0.030289
   6 C     6.0000    0    12.011   -2.029025    3.760111   -0.006395
   7 C     6.0000    0    12.011    1.860779    0.141814   -0.010993
   8 C     6.0000    0    12.011   -0.665715   -0.603134   -0.025466
   9 C     6.0000    0    12.011   -2.648621    1.233547   -0.013118
  10 C     6.0000    0    12.011   -5.257730    0.371566   -0.004688
  11 C     6.0000    0    12.011   -5.728365   -2.218841   -0.013733
  12 C     6.0000    0    12.011   -1.300065   -3.303821   -0.073548
  13 H     1.0000    0     1.008   -3.493947    5.186300   -0.001672
  14 H     1.0000    0     1.008    4.012195    9.951515    0.023423
  15 H     1.0000    0     1.008   -0.427620    8.538656   -0.001364
  16 H     1.0000    0     1.008    6.531661    2.276587    0.034950
  17 H     1.0000    0     1.008    7.476072    6.796908    0.046217
  18 C     6.0000    0    12.011    3.995100   -1.682504    0.005123
  19 C     6.0000    0    12.011    5.150626   -2.402709   -2.246149
  20 C     6.0000    0    12.011    4.962485   -2.579714    2.281636
  21 C     6.0000    0    12.011    7.198823   -4.037132   -2.224183
  22 H     1.0000    0     1.008    4.425402   -1.687960   -4.023119
  23 C     6.0000    0    12.011    7.012664   -4.210886    2.302219
  24 H     1.0000    0     1.008    4.086867   -2.006464    4.042083
  25 C     6.0000    0    12.011    8.133207   -4.952203    0.049297
  26 H     1.0000    0     1.008    8.071287   -4.592411   -3.990374
  27 H     1.0000    0     1.008    7.739574   -4.902188    4.086215
  28 H     1.0000    0     1.008    9.734112   -6.226277    0.066216
  29 O     8.0000    0    15.999    0.159859   -5.051469   -0.140996
  30 O     8.0000    0    15.999   -3.808365   -3.943496   -0.046285
  31 C     6.0000    0    12.011   -7.365814    1.973354    0.019946
  32 C     6.0000    0    12.011   -8.156270   -3.208511    0.003133
  33 C     6.0000    0    12.011  -10.194464   -1.579269    0.028210
  34 H     1.0000    0     1.008  -12.096041   -2.331795    0.041334
  35 C     6.0000    0    12.011   -9.793612    1.020970    0.035778
  36 H     1.0000    0     1.008  -11.385640    2.303948    0.054914
  37 H     1.0000    0     1.008   -7.092377    3.998693    0.027904
  38 H     1.0000    0     1.008   -8.401303   -5.238285   -0.005012

--------------------------------
INTERNAL COORDINATES (ANGSTROEM)
--------------------------------
 C      0   0   0     0.000000000000     0.00000000     0.00000000
 C      1   0   0     1.366573173878     0.00000000     0.00000000
 C      2   1   0     1.414079880062   120.82469085     0.00000000
 C      3   2   1     1.427541900359   119.25232000   359.89981226
 C      4   3   2     1.416539504202   118.24291716     0.25479541
 C      5   4   3     1.368050983105   121.01084696   359.76251016
 C      3   2   1     1.399870802408   121.29883448   179.72259167
 C      4   3   2     1.419267205178   119.33907165   180.15905176
 C      8   4   3     1.393890328451   119.64736610   359.93598611
 C      7   3   2     1.376620619757   121.77232527   179.99044994
 C     10   7   3     1.454085463844   122.06025617   179.69348552
 C     11  10   7     1.393232602566   118.57857264   179.96494920
 C      9   8   4     1.468256789923   119.64760172   179.17761652
 H      7   3   2     1.081909696813   117.77385291   359.91951772
 H      1   2   3     1.082671893721   120.15674637   180.00386023
 H      2   1   3     1.083409736274   120.82126580   179.95432194
 H      5   4   3     1.081908348544   119.23863789   179.75318745
 H      6   5   4     1.082450018976   119.85109147   180.01779804
 C      8   4   3     1.485822290075   117.30158278   180.24580534
 C     19   8   4     1.392265368967   120.45068604   274.66048038
 C     19   8   4     1.392383003650   120.39682770    90.86700070
 C     20  19   8     1.386699581545   120.45365049   177.75072872
 H     20  19   8     1.083772298340   119.43038049   357.20571814
 C     21  19   8     1.386442205852   120.44993610   182.34095609
 H     21  19   8     1.083779378100   119.41073825     2.94045885
 C     22  20  19     1.387932394508   120.22009836   359.36071694
 H     22  20  19     1.083064098292   119.68075025   179.56211646
 H     24  21  19     1.083061309177   119.67342611   180.32738764
 H     26  22  20     1.082739157403   120.20919889   180.08595951
 O     13   9   8     1.205572109652   126.91890158   358.82686168
 O     12  11  10     1.365840308155   121.63453537   359.57988229
 C     11  10   7     1.401106118999   124.48917426   359.75881917
 C     12  11  10     1.387459314867   122.47186086   179.74525548
 C     33  12  11     1.380868250855   119.18767357     0.04303508
 H     34  33  12     1.082223972598   119.77398276   179.99400518
 C     32  11  10     1.380076103521   121.35367786   180.23547530
 H     36  32  11     1.082028766729   119.71793362   179.99345778
 H     32  11  10     1.081494744554   119.54052713     0.19865402
 H     33  12  11     1.081916882092   119.05776485   180.00194426

---------------------------
INTERNAL COORDINATES (A.U.)
---------------------------
 C      0   0   0     0.000000000000     0.00000000     0.00000000
 C      1   0   0     2.582449040592     0.00000000     0.00000000
 C      2   1   0     2.672223704806   120.82469085     0.00000000
 C      3   2   1     2.697663236376   119.25232000   359.89981226
 C      4   3   2     2.676871720822   118.24291716     0.25479541
 C      5   4   3     2.585241695310   121.01084696   359.76251016
 C      3   2   1     2.645372439424   121.29883448   179.72259167
 C      4   3   2     2.682026328642   119.33907165   180.15905176
 C      8   4   3     2.634070981494   119.64736610   359.93598611
 C      7   3   2     2.601435961650   121.77232527   179.99044994
 C     10   7   3     2.747823301981   122.06025617   179.69348552
 C     11  10   7     2.632828059700   118.57857264   179.96494920
 C      9   8   4     2.774603227225   119.64760172   179.17761652
 H      7   3   2     2.044513028611   117.77385291   359.91951772
 H      1   2   3     2.045953372026   120.15674637   180.00386023
 H      2   1   3     2.047347692382   120.82126580   179.95432194
 H      5   4   3     2.044510480751   119.23863789   179.75318745
 H      6   5   4     2.045534089522   119.85109147   180.01779804
 C      8   4   3     2.807797211918   117.30158278   180.24580534
 C     19   8   4     2.631000253090   120.45068604   274.66048038
 C     19   8   4     2.631222550426   120.39682770    90.86700070
 C     20  19   8     2.620482439144   120.45365049   177.75072872
 H     20  19   8     2.048032835393   119.43038049   357.20571814
 C     21  19   8     2.619996069571   120.44993610   182.34095609
 H     21  19   8     2.048046214200   119.41073825     2.94045885
 C     22  20  19     2.622812118019   120.22009836   359.36071694
 H     22  20  19     2.046694531254   119.68075025   179.56211646
 H     24  21  19     2.046689260591   119.67342611   180.32738764
 H     26  22  20     2.046080481965   120.20919889   180.08595951
 O     13   9   8     2.278201121935   126.91890158   358.82686168
 O     12  11  10     2.581064125083   121.63453537   359.57988229
 C     11  10   7     2.647706849469   124.48917426   359.75881917
 C     12  11  10     2.621918127056   122.47186086   179.74525548
 C     33  12  11     2.609462821143   119.18767357     0.04303508
 H     34  33  12     2.045106923775   119.77398276   179.99400518
 C     32  11  10     2.607965879623   121.35367786   180.23547530
 H     36  32  11     2.044738038143   119.71793362   179.99345778
 H     32  11  10     2.043728882483   119.54052713     0.19865402
 H     33  12  11     2.044526606820   119.05776485   180.00194426

---------------------
BASIS SET INFORMATION
---------------------
There are 3 groups of distinct atoms

 Group   1 Type C   : 11s6p2d1f contracted to 5s3p2d1f pattern {62111/411/11/1}
 Group   2 Type H   : 5s1p contracted to 3s1p pattern {311/1}
 Group   3 Type O   : 11s6p2d1f contracted to 5s3p2d1f pattern {62111/411/11/1}

Atom   0C    basis set group =>   1
Atom   1C    basis set group =>   1
Atom   2C    basis set group =>   1
Atom   3C    basis set group =>   1
Atom   4C    basis set group =>   1
Atom   5C    basis set group =>   1
Atom   6C    basis set group =>   1
Atom   7C    basis set group =>   1
Atom   8C    basis set group =>   1
Atom   9C    basis set group =>   1
Atom  10C    basis set group =>   1
Atom  11C    basis set group =>   1
Atom  12C    basis set group =>   1
Atom  13H    basis set group =>   2
Atom  14H    basis set group =>   2
Atom  15H    basis set group =>   2
Atom  16H    basis set group =>   2
Atom  17H    basis set group =>   2
Atom  18C    basis set group =>   1
Atom  19C    basis set group =>   1
Atom  20C    basis set group =>   1
Atom  21C    basis set group =>   1
Atom  22H    basis set group =>   2
Atom  23C    basis set group =>   1
Atom  24H    basis set group =>   2
Atom  25C    basis set group =>   1
Atom  26H    basis set group =>   2
Atom  27H    basis set group =>   2
Atom  28H    basis set group =>   2
Atom  29O    basis set group =>   3
Atom  30O    basis set group =>   3
Atom  31C    basis set group =>   1
Atom  32C    basis set group =>   1
Atom  33C    basis set group =>   1
Atom  34H    basis set group =>   2
Atom  35C    basis set group =>   1
Atom  36H    basis set group =>   2
Atom  37H    basis set group =>   2
Atom  38H    basis set group =>   2
---------------------------------
AUXILIARY/J BASIS SET INFORMATION
---------------------------------
There are 3 groups of distinct atoms

 Group   1 Type C   : 12s5p4d2f1g contracted to 6s4p3d1f1g pattern {711111/2111/211/2/1}
 Group   2 Type H   : 5s2p1d contracted to 3s1p1d pattern {311/2/1}
 Group   3 Type O   : 12s5p4d2f1g contracted to 6s4p3d1f1g pattern {711111/2111/211/2/1}

Atom   0C    basis set group =>   1
Atom   1C    basis set group =>   1
Atom   2C    basis set group =>   1
Atom   3C    basis set group =>   1
Atom   4C    basis set group =>   1
Atom   5C    basis set group =>   1
Atom   6C    basis set group =>   1
Atom   7C    basis set group =>   1
Atom   8C    basis set group =>   1
Atom   9C    basis set group =>   1
Atom  10C    basis set group =>   1
Atom  11C    basis set group =>   1
Atom  12C    basis set group =>   1
Atom  13H    basis set group =>   2
Atom  14H    basis set group =>   2
Atom  15H    basis set group =>   2
Atom  16H    basis set group =>   2
Atom  17H    basis set group =>   2
Atom  18C    basis set group =>   1
Atom  19C    basis set group =>   1
Atom  20C    basis set group =>   1
Atom  21C    basis set group =>   1
Atom  22H    basis set group =>   2
Atom  23C    basis set group =>   1
Atom  24H    basis set group =>   2
Atom  25C    basis set group =>   1
Atom  26H    basis set group =>   2
Atom  27H    basis set group =>   2
Atom  28H    basis set group =>   2
Atom  29O    basis set group =>   3
Atom  30O    basis set group =>   3
Atom  31C    basis set group =>   1
Atom  32C    basis set group =>   1
Atom  33C    basis set group =>   1
Atom  34H    basis set group =>   2
Atom  35C    basis set group =>   1
Atom  36H    basis set group =>   2
Atom  37H    basis set group =>   2
Atom  38H    basis set group =>   2
---------------------------------
AUXILIARY/C BASIS SET INFORMATION
---------------------------------
There are 3 groups of distinct atoms

 Group   1 Type C   : 8s6p5d3f1g contracted to 8s6p4d3f1g pattern {11111111/111111/2111/111/1}
 Group   2 Type H   : 4s3p2d contracted to 4s2p1d pattern {1111/21/2}
 Group   3 Type O   : 8s6p5d3f1g contracted to 8s6p4d3f1g pattern {11111111/111111/2111/111/1}

Atom   0C    basis set group =>   1
Atom   1C    basis set group =>   1
Atom   2C    basis set group =>   1
Atom   3C    basis set group =>   1
Atom   4C    basis set group =>   1
Atom   5C    basis set group =>   1
Atom   6C    basis set group =>   1
Atom   7C    basis set group =>   1
Atom   8C    basis set group =>   1
Atom   9C    basis set group =>   1
Atom  10C    basis set group =>   1
Atom  11C    basis set group =>   1
Atom  12C    basis set group =>   1
Atom  13H    basis set group =>   2
Atom  14H    basis set group =>   2
Atom  15H    basis set group =>   2
Atom  16H    basis set group =>   2
Atom  17H    basis set group =>   2
Atom  18C    basis set group =>   1
Atom  19C    basis set group =>   1
Atom  20C    basis set group =>   1
Atom  21C    basis set group =>   1
Atom  22H    basis set group =>   2
Atom  23C    basis set group =>   1
Atom  24H    basis set group =>   2
Atom  25C    basis set group =>   1
Atom  26H    basis set group =>   2
Atom  27H    basis set group =>   2
Atom  28H    basis set group =>   2
Atom  29O    basis set group =>   3
Atom  30O    basis set group =>   3
Atom  31C    basis set group =>   1
Atom  32C    basis set group =>   1
Atom  33C    basis set group =>   1
Atom  34H    basis set group =>   2
Atom  35C    basis set group =>   1
Atom  36H    basis set group =>   2
Atom  37H    basis set group =>   2
Atom  38H    basis set group =>   2


           ************************************************************
           *        Program running with 8 parallel MPI-processes     *
           *              working on a common directory               *
           ************************************************************
------------------------------------------------------------------------------
                           ORCA GTO INTEGRAL CALCULATION
                           -- RI-GTO INTEGRALS CHOSEN --
------------------------------------------------------------------------------
------------------------------------------------------------------------------
                   ___                                                        
                  /   \      - P O W E R E D   B Y -                         
                 /     \                                                     
                 |  |  |   _    _      __       _____    __    __             
                 |  |  |  | |  | |    /  \     |  _  \  |  |  /  |          
                  \  \/   | |  | |   /    \    | | | |  |  | /  /          
                 / \  \   | |__| |  /  /\  \   | |_| |  |  |/  /          
                |  |  |   |  __  | /  /__\  \  |    /   |      \           
                |  |  |   | |  | | |   __   |  |    \   |  |\   \          
                \     /   | |  | | |  |  |  |  | |\  \  |  | \   \       
                 \___/    |_|  |_| |__|  |__|  |_| \__\ |__|  \__/        
                                                                              
                      - O R C A' S   B I G   F R I E N D -                    
                                      &                                       
                       - I N T E G R A L  F E E D E R -                       
                                                                              
 v1 FN, 2020, v2 2021                                                         
------------------------------------------------------------------------------


Reading SHARK input file NCE_1_M06L_def2TZVP_coords.SHARKINP.tmp ... ok
----------------------
SHARK INTEGRAL PACKAGE
----------------------

Number of atoms                             ...     39
Number of basis functions                   ...    859
Number of shells                            ...    331
Maximum angular momentum                    ...      3
Integral batch strategy                     ... SHARK/LIBINT Hybrid
RI-J (if used) integral strategy            ... SPLIT-RIJ (Revised 2003 algorithm where possible)
Printlevel                                  ...      1
Contraction scheme used                     ... SEGMENTED contraction
Coulomb Range Separation                    ... NOT USED
Exchange Range Separation                   ... NOT USED
Finite Nucleus Model                        ... NOT USED
Auxiliary Coulomb fitting basis             ... AVAILABLE
   # of basis functions in Aux-J            ...   1379
   # of shells in Aux-J                     ...    445
   Maximum angular momentum in Aux-J        ...      4
Auxiliary J/K fitting basis                 ... NOT available
Auxiliary Correlation fitting basis         ... AVAILABLE
   # of basis functions in Aux-C            ...   2110
   # of shells in Aux-C                     ...    648
   Maximum angular momentum in Aux-C        ...      4
Auxiliary 'external' fitting basis          ... NOT available
Integral threshold                          ...     2.500000e-11
Primitive cut-off                           ...     2.500000e-12
Primitive pair pre-selection threshold      ...     2.500000e-12

Calculating pre-screening integrals         ... done (  0.1 sec) Dimension = 331
Organizing shell pair data                  ... done (  0.3 sec)
Shell pair information
Total number of shell pairs                 ...     54946
Shell pairs after pre-screening             ...     38493
Total number of primitive shell pairs       ...    171412
Primitive shell pairs kept                  ...     79235
          la=0 lb=0:   9219 shell pairs
          la=1 lb=0:  10919 shell pairs
          la=1 lb=1:   3206 shell pairs
          la=2 lb=0:   5621 shell pairs
          la=2 lb=1:   3361 shell pairs
          la=2 lb=2:    892 shell pairs
          la=3 lb=0:   2642 shell pairs
          la=3 lb=1:   1604 shell pairs
          la=3 lb=2:    820 shell pairs
          la=3 lb=3:    209 shell pairs

Calculating one electron integrals          ... done (  0.1 sec)
Calculating RI/J V-Matrix + Cholesky decomp.... done (  0.3 sec)
Calculating RI/C V-Matrix + Cholesky decomp.... done (  0.1 sec)
Calculating Nuclear repulsion               ... done (  0.0 sec) ENN=   1988.929685490817 Eh

SHARK setup successfully completed in   1.3 seconds

Maximum memory used throughout the entire GTOINT-calculation: 63.1 MB


           ************************************************************
           *        Program running with 8 parallel MPI-processes     *
           *              working on a common directory               *
           ************************************************************
-------------------------------------------------------------------------------
                                 ORCA SCF
-------------------------------------------------------------------------------

------------
SCF SETTINGS
------------
Hamiltonian:
 Density Functional     Method          .... DFT(GTOs)
 Exchange Functional    Exchange        .... B88
   X-Alpha parameter    XAlpha          ....  0.666667
   Becke's b parameter  XBeta           ....  0.004200
 Correlation Functional Correlation     .... LYP
 LDA part of GGA corr.  LDAOpt          .... VWN-3
 Gradients option       PostSCFGGA      .... off
 Hybrid DFT is turned on
   Fraction HF Exchange ScalHFX         ....  0.530000
   Scaling of DF-GGA-X  ScalDFX         ....  0.470000
   Scaling of DF-GGA-C  ScalDFC         ....  0.730000
   Scaling of DF-LDA-C  ScalLDAC        ....  0.730000
   Perturbative correction              ....  0.270000
   Density functional embedding theory  .... OFF
   NL short-range parameter             ....  7.800000
 RI-approximation to the Coulomb term is turned on
   Number of AuxJ basis functions       .... 1379
   RIJ-COSX (HFX calculated with COS-X)).... on


General Settings:
 Integral files         IntName         .... NCE_1_M06L_def2TZVP_coords
 Hartree-Fock type      HFTyp           .... RHF
 Total Charge           Charge          ....    0
 Multiplicity           Mult            ....    1
 Number of Electrons    NEL             ....  168
 Basis Dimension        Dim             ....  859
 Nuclear Repulsion      ENuc            ....   1988.9296854908 Eh

Convergence Acceleration:
 DIIS                   CNVDIIS         .... on
   Start iteration      DIISMaxIt       ....    12
   Startup error        DIISStart       ....  0.200000
   # of expansion vecs  DIISMaxEq       ....     5
   Bias factor          DIISBfac        ....   1.050
   Max. coefficient     DIISMaxC        ....  10.000
 Trust-Rad. Augm. Hess. CNVTRAH         .... auto
   Auto Start mean grad. ratio tolernc. ....  1.125000
   Auto Start start iteration           ....    20
   Auto Start num. interpolation iter.  ....    10
   Max. Number of Micro iterations      ....    16
   Max. Number of Macro iterations      .... Maxiter - #DIIS iter
   Number of Davidson start vectors     ....     2
   Converg. threshold I  (grad. norm)   ....   1.000e-05
   Converg. threshold II (energy diff.) ....   1.000e-08
   Grad. Scal. Fac. for Micro threshold ....   0.100
   Minimum threshold for Micro iter.    ....   0.010
   NR start threshold (gradient norm)   ....   0.001
   Initial trust radius                 ....   0.400
   Minimum AH scaling param. (alpha)    ....   1.000
   Maximum AH scaling param. (alpha)    .... 1000.000
   Orbital update algorithm             .... Taylor
   White noise on init. David. guess    .... on
   Maximum white noise                  ....   0.010
   Quad. conv. algorithm                .... NR
 SOSCF                  CNVSOSCF        .... on
   Start iteration      SOSCFMaxIt      ....   150
   Startup grad/error   SOSCFStart      ....  0.003300
 Level Shifting         CNVShift        .... on
   Level shift para.    LevelShift      ....    0.2500
   Turn off err/grad.   ShiftErr        ....    0.0010
 Zerner damping         CNVZerner       .... off
 Static damping         CNVDamp         .... on
   Fraction old density DampFac         ....    0.7000
   Max. Damping (<1)    DampMax         ....    0.9800
   Min. Damping (>=0)   DampMin         ....    0.0000
   Turn off err/grad.   DampErr         ....    0.1000
 Fernandez-Rico         CNVRico         .... off

SCF Procedure:
 Maximum # iterations   MaxIter         ....   125
 SCF integral mode      SCFMode         .... Direct
   Integral package                     .... SHARK and LIBINT hybrid scheme
 Reset frequency        DirectResetFreq ....    20
 Integral Threshold     Thresh          ....  2.500e-11 Eh
 Primitive CutOff       TCut            ....  2.500e-12 Eh

Convergence Tolerance:
 Convergence Check Mode ConvCheckMode   .... Total+1el-Energy
 Convergence forced     ConvForced      .... 1
 Energy Change          TolE            ....  1.000e-08 Eh
 1-El. energy change                    ....  1.000e-05 Eh
 Orbital Gradient       TolG            ....  1.000e-05
 Orbital Rotation angle TolX            ....  1.000e-05
 DIIS Error             TolErr          ....  5.000e-07


Diagonalization of the overlap matrix:
Smallest eigenvalue                        ... 2.651e-06
Time for diagonalization                   ...    0.213 sec
Threshold for overlap eigenvalues          ... 1.000e-08
Number of eigenvalues below threshold      ... 0
Time for construction of square roots      ...    0.119 sec
Total time needed                          ...    0.336 sec

Time for model grid setup =    0.245 sec

------------------------------
INITIAL GUESS: MODEL POTENTIAL
------------------------------
Loading Hartree-Fock densities                     ... done
Calculating cut-offs                               ... done
Initializing the effective Hamiltonian             ... done
Setting up the integral package (SHARK)            ... done
Starting the Coulomb interaction                   ... done (   0.6 sec)
Reading the grid                                   ... done
Mapping shells                                     ... done
Starting the XC term evaluation                    ... done (   0.3 sec)
  promolecular density results
     # of electrons  =    168.006293716
     EX              =   -138.935626523
     EC              =     -1.929300907
     EX+EC           =   -140.864927430
Transforming the Hamiltonian                       ... done (   0.1 sec)
Diagonalizing the Hamiltonian                      ... done (   0.1 sec)
Back transforming the eigenvectors                 ... done (   0.0 sec)
Now organizing SCF variables                       ... done
                      ------------------
                      INITIAL GUESS DONE (   1.3 sec)
                      ------------------
-------------------
DFT GRID GENERATION
-------------------

General Integration Accuracy     IntAcc      ... 4.388
Radial Grid Type                 RadialGrid  ... OptM3 with GC (2021)
Angular Grid (max. ang.)         AngularGrid ... 4 (Lebedev-302)
Angular grid pruning method      GridPruning ... 4 (adaptive)
Weight generation scheme         WeightScheme... Becke
Basis function cutoff            BFCut       ... 1.0000e-11
Integration weight cutoff        WCut        ... 1.0000e-14
Angular grids for H and He will be reduced by one unit
Partially contracted basis set               ... off
Rotationally invariant grid construction     ... off

Total number of grid points                  ...   193523
Total number of batches                      ...     3043
Average number of points per batch           ...       63
Average number of grid points per atom       ...     4962
Time for grid setup =    1.026 sec

--------------------
COSX GRID GENERATION
--------------------

GRIDX 1
-------
General Integration Accuracy     IntAcc      ... 3.816
Radial Grid Type                 RadialGrid  ... OptM3 with GC (2021)
Angular Grid (max. ang.)         AngularGrid ... 1 (Lebedev-50)
Angular grid pruning method      GridPruning ... 4 (adaptive)
Weight generation scheme         WeightScheme... Becke
Basis function cutoff            BFCut       ... 1.0000e-11
Integration weight cutoff        WCut        ... 1.0000e-14
Angular grids for H and He will be reduced by one unit
Partially contracted basis set               ... on
Rotationally invariant grid construction     ... off

Total number of grid points                  ...    24576
Total number of batches                      ...      403
Average number of points per batch           ...       60
Average number of grid points per atom       ...      630
UseSFitting                                  ... on

GRIDX 2
-------
General Integration Accuracy     IntAcc      ... 4.020
Radial Grid Type                 RadialGrid  ... OptM3 with GC (2021)
Angular Grid (max. ang.)         AngularGrid ... 2 (Lebedev-110)
Angular grid pruning method      GridPruning ... 4 (adaptive)
Weight generation scheme         WeightScheme... Becke
Basis function cutoff            BFCut       ... 1.0000e-11
Integration weight cutoff        WCut        ... 1.0000e-14
Angular grids for H and He will be reduced by one unit
Partially contracted basis set               ... on
Rotationally invariant grid construction     ... off

Total number of grid points                  ...    54060
Total number of batches                      ...      865
Average number of points per batch           ...       62
Average number of grid points per atom       ...     1386
UseSFitting                                  ... on

GRIDX 3
-------
General Integration Accuracy     IntAcc      ... 4.338
Radial Grid Type                 RadialGrid  ... OptM3 with GC (2021)
Angular Grid (max. ang.)         AngularGrid ... 3 (Lebedev-194)
Angular grid pruning method      GridPruning ... 4 (adaptive)
Weight generation scheme         WeightScheme... Becke
Basis function cutoff            BFCut       ... 1.0000e-11
Integration weight cutoff        WCut        ... 1.0000e-14
Angular grids for H and He will be reduced by one unit
Partially contracted basis set               ... on
Rotationally invariant grid construction     ... off

Total number of grid points                  ...   118402
Total number of batches                      ...     1869
Average number of points per batch           ...       63
Average number of grid points per atom       ...     3036
UseSFitting                                  ... on

Time for X-Grid setup             =    1.472 sec


--------------------
CPCM SOLVATION MODEL
--------------------
CPCM parameters:
  Epsilon                                         ...      35.6880
  Refrac                                          ...       1.3442
  Rsolv                                           ...       1.3000
  Surface type                                    ... GAUSSIAN VDW
  Epsilon function type                           ...         CPCM
Solvent:                                     ... ACETONITRILE
SMD-CDS solvent descriptors:
  Soln                                       ...    1.3442
  Soln25                                     ...    1.3416
  Sola                                       ...    0.0700
  Solb                                       ...    0.3200
  Solg                                       ...   41.2500
  Solc                                       ...    0.0000
  Solh                                       ...    0.0000
Radii:
 Radius for C  used is    3.4960 Bohr (=   1.8500 Ang.)
 Radius for H  used is    2.2677 Bohr (=   1.2000 Ang.)
 Radius for O  used is    4.0969 Bohr (=   2.1680 Ang.)
Calculating surface                               ...        done! (  0.0s)
GEPOL surface points                              ...         2134
GEPOL Volume                                      ...    2264.3160
GEPOL Surface-area                                ...    1179.5978
Calculating surface distance matrix               ...        done! (  0.0s)
Performing Cholesky decomposition & store         ...        done! (  0.2s)
Overall time for CPCM initialization              ...                 0.2s
--------------
SCF ITERATIONS
--------------
ITER       Energy         Delta-E        Max-DP      RMS-DP      [F,P]     Damp
               ***  Starting incremental Fock matrix formation  ***
  0  -1032.9390990404   0.000000000000 0.11350393  0.00087155  0.3031070 0.7000
  1  -1033.1902264862  -0.251127445775 0.11338847  0.00077389  0.1478936 0.7000
                               ***Turning on DIIS***
  2  -1033.3206753331  -0.130448846862 0.19675069  0.00150043  0.0588003 0.0000
  3  -1033.5446648591  -0.223989526036 0.09962373  0.00061749  0.0599409 0.0000
  4  -1033.5717823150  -0.027117455861 0.02954182  0.00018206  0.0159237 0.0000
  5  -1033.5729868788  -0.001204563848 0.02245392  0.00012100  0.0107925 0.0000
                      *** Initiating the SOSCF procedure ***
                           *** Shutting down DIIS ***
                      *** Re-Reading the Fockian *** 
                      *** Removing any level shift *** 
ITER      Energy       Delta-E        Grad      Rot      Max-DP    RMS-DP
  6  -1033.57319352  -0.0002066416  0.000566  0.000566  0.005067  0.000034
               *** Restarting incremental Fock matrix formation ***
  7  -1033.57308133   0.0001121864  0.000305  0.000909  0.022293  0.000192
  8  -1033.57308995  -0.0000086203  0.000152  0.000982  0.009188  0.000079
  9  -1033.57309138  -0.0000014219  0.000093  0.000253  0.008100  0.000068
 10  -1033.57309207  -0.0000006962  0.000017  0.000051  0.001131  0.000010
 11  -1033.57309203   0.0000000388  0.000018  0.000042  0.000549  0.000005
                  ***Gradient check signals convergence***
              ***Rediagonalizing the Fockian in SOSCF/NRSCF***

               *****************************************************
               *                     SUCCESS                       *
               *           SCF CONVERGED AFTER  12 CYCLES          *
               *****************************************************

Old exchange energy                            =    -74.758167643 Eh
New exchange energy                            =    -74.758250902 Eh
Exchange energy change after final integration =     -0.000083259 Eh
Total energy after final integration           =  -1033.573175337 Eh
Final COS-X integration done in                =    25.118 sec

SMD CDS free energy correction energy :                -5.76887     Kcal/mol
Total Energy after SMD CDS correction =             -1033.582368615 Eh

----------------
TOTAL SCF ENERGY
----------------

Total Energy       :        -1033.58236861 Eh          -28125.20611 eV

Components:
Nuclear Repulsion  :         1988.92968549 Eh           54121.52823 eV
Electronic Energy  :        -3022.51205411 Eh          -82246.73434 eV
One Electron Energy:        -5355.22726468 Eh         -145723.14229 eV
Two Electron Energy:         2332.71521057 Eh           63476.40796 eV
Max COSX asymmetry :            0.00000670 Eh               0.00018 eV
CPCM Dielectric    :           -0.02531498 Eh              -0.68886 eV
SMD CDS (Gcds)     :           -0.00919328 Eh              -0.25016 eV

Virial components:
Potential Energy   :        -2063.89503679 Eh          -56161.43914 eV
Kinetic Energy     :         1030.31266817 Eh           28036.23304 eV
Virial Ratio       :            2.00317350


DFT components:
N(Alpha)           :       84.000090507363 electrons
N(Beta)            :       84.000090507363 electrons
N(Total)           :      168.000181014726 electrons
E(X)               :      -66.442262241978 Eh       
E(C)               :       -4.212637068380 Eh       
E(XC)              :      -70.654899310358 Eh       
DFET-embed. en.    :        0.000000000000 Eh       
CPCM Solvation Model Properties:
Surface-charge          :           -0.06076119
Charge-correction       :            0.00009765 Eh               0.00266 eV
Free-energy (cav+disp)  :           -0.00919328 Eh              -0.25016 eV

---------------
SCF CONVERGENCE
---------------

  Last Energy change         ...   -4.3927e-08  Tolerance :   1.0000e-08
  Last MAX-Density change    ...    1.5543e-15  Tolerance :   1.0000e-07
  Last RMS-Density change    ...    1.2946e-17  Tolerance :   5.0000e-09
  Last Orbital Gradient      ...    2.3988e-06  Tolerance :   1.0000e-05
  Last Orbital Rotation      ...    1.4035e-05  Tolerance :   1.0000e-05

             **** THE GBW FILE WAS UPDATED (NCE_1_M06L_def2TZVP_coords.gbw) ****
             **** DENSITY NCE_1_M06L_def2TZVP_coords.scfp WAS UPDATED ****
             **** ENERGY FILE WAS UPDATED (NCE_1_M06L_def2TZVP_coords.en.tmp) ****
             **** THE GBW FILE WAS UPDATED (NCE_1_M06L_def2TZVP_coords.gbw) ****
             **** DENSITY NCE_1_M06L_def2TZVP_coords.scfp WAS UPDATED ****
----------------
ORBITAL ENERGIES
----------------

  NO   OCC          E(Eh)            E(eV) 
   0   2.0000     -19.789243      -538.4927 
   1   2.0000     -19.712134      -536.3944 
   2   2.0000     -10.766494      -292.9712 
   3   2.0000     -10.693010      -290.9716 
   4   2.0000     -10.654763      -289.9309 
   5   2.0000     -10.648841      -289.7697 
   6   2.0000     -10.647230      -289.7259 
   7   2.0000     -10.638596      -289.4909 
   8   2.0000     -10.637707      -289.4667 
   9   2.0000     -10.636957      -289.4463 
  10   2.0000     -10.628232      -289.2089 
  11   2.0000     -10.625146      -289.1249 
  12   2.0000     -10.623667      -289.0847 
  13   2.0000     -10.623426      -289.0781 
  14   2.0000     -10.623198      -289.0719 
  15   2.0000     -10.622068      -289.0412 
  16   2.0000     -10.620734      -289.0049 
  17   2.0000     -10.620531      -288.9993 
  18   2.0000     -10.619566      -288.9731 
  19   2.0000     -10.616579      -288.8918 
  20   2.0000     -10.614009      -288.8219 
  21   2.0000     -10.613848      -288.8175 
  22   2.0000     -10.612851      -288.7904 
  23   2.0000     -10.612758      -288.7878 
  24   2.0000     -10.612008      -288.7674 
  25   2.0000      -1.273102       -34.6429 
  26   2.0000      -1.178867       -32.0786 
  27   2.0000      -1.026331       -27.9279 
  28   2.0000      -0.996497       -27.1161 
  29   2.0000      -0.984898       -26.8004 
  30   2.0000      -0.964381       -26.2421 
  31   2.0000      -0.922323       -25.0977 
  32   2.0000      -0.894825       -24.3494 
  33   2.0000      -0.874983       -23.8095 
  34   2.0000      -0.866466       -23.5777 
  35   2.0000      -0.860955       -23.4278 
  36   2.0000      -0.858335       -23.3565 
  37   2.0000      -0.827508       -22.5176 
  38   2.0000      -0.776661       -21.1340 
  39   2.0000      -0.747535       -20.3415 
  40   2.0000      -0.733717       -19.9655 
  41   2.0000      -0.712979       -19.4011 
  42   2.0000      -0.703396       -19.1404 
  43   2.0000      -0.697538       -18.9810 
  44   2.0000      -0.663866       -18.0647 
  45   2.0000      -0.657375       -17.8881 
  46   2.0000      -0.643798       -17.5186 
  47   2.0000      -0.607293       -16.5253 
  48   2.0000      -0.603368       -16.4185 
  49   2.0000      -0.583461       -15.8768 
  50   2.0000      -0.564218       -15.3532 
  51   2.0000      -0.560099       -15.2411 
  52   2.0000      -0.554839       -15.0979 
  53   2.0000      -0.543226       -14.7819 
  54   2.0000      -0.534331       -14.5399 
  55   2.0000      -0.529635       -14.4121 
  56   2.0000      -0.529081       -14.3970 
  57   2.0000      -0.518499       -14.1091 
  58   2.0000      -0.508268       -13.8307 
  59   2.0000      -0.505374       -13.7519 
  60   2.0000      -0.495461       -13.4822 
  61   2.0000      -0.489086       -13.3087 
  62   2.0000      -0.487535       -13.2665 
  63   2.0000      -0.467073       -12.7097 
  64   2.0000      -0.465200       -12.6587 
  65   2.0000      -0.460578       -12.5330 
  66   2.0000      -0.457816       -12.4578 
  67   2.0000      -0.433836       -11.8053 
  68   2.0000      -0.429479       -11.6867 
  69   2.0000      -0.423780       -11.5316 
  70   2.0000      -0.417897       -11.3716 
  71   2.0000      -0.417397       -11.3579 
  72   2.0000      -0.405265       -11.0278 
  73   2.0000      -0.405079       -11.0228 
  74   2.0000      -0.390340       -10.6217 
  75   2.0000      -0.388871       -10.5817 
  76   2.0000      -0.362941        -9.8761 
  77   2.0000      -0.343765        -9.3543 
  78   2.0000      -0.320414        -8.7189 
  79   2.0000      -0.293736        -7.9930 
  80   2.0000      -0.287692        -7.8285 
  81   2.0000      -0.282510        -7.6875 
  82   2.0000      -0.280113        -7.6223 
  83   2.0000      -0.246010        -6.6943 
  84   0.0000      -0.025085        -0.6826 
  85   0.0000      -0.009613        -0.2616 
  86   0.0000       0.037628         1.0239 
  87   0.0000       0.043457         1.1825 
  88   0.0000       0.045789         1.2460 
  89   0.0000       0.055929         1.5219 
  90   0.0000       0.074583         2.0295 
  91   0.0000       0.095819         2.6074 
  92   0.0000       0.103890         2.8270 
  93   0.0000       0.104446         2.8421 
  94   0.0000       0.109462         2.9786 
  95   0.0000       0.115732         3.1492 
  96   0.0000       0.119591         3.2542 
  97   0.0000       0.130164         3.5419 
  98   0.0000       0.133786         3.6405 
  99   0.0000       0.136129         3.7043 
 100   0.0000       0.145470         3.9584 
 101   0.0000       0.151611         4.1256 
 102   0.0000       0.158194         4.3047 
 103   0.0000       0.161630         4.3982 
 104   0.0000       0.162201         4.4137 
 105   0.0000       0.167584         4.5602 
 106   0.0000       0.175719         4.7816 
 107   0.0000       0.176227         4.7954 
 108   0.0000       0.180334         4.9071 
 109   0.0000       0.193710         5.2711 
 110   0.0000       0.208500         5.6736 
 111   0.0000       0.212294         5.7768 
 112   0.0000       0.214817         5.8455 
 113   0.0000       0.220099         5.9892 
 114   0.0000       0.228932         6.2296 
 115   0.0000       0.234624         6.3844 
 116   0.0000       0.242795         6.6068 
 117   0.0000       0.243714         6.6318 
 118   0.0000       0.248049         6.7498 
 119   0.0000       0.252237         6.8637 
 120   0.0000       0.254858         6.9350 
 121   0.0000       0.256322         6.9749 
 122   0.0000       0.260149         7.0790 
 123   0.0000       0.261195         7.1075 
 124   0.0000       0.268153         7.2968 
 125   0.0000       0.269245         7.3265 
 126   0.0000       0.272146         7.4055 
 127   0.0000       0.274957         7.4820 
 128   0.0000       0.281812         7.6685 
 129   0.0000       0.286695         7.8014 
 130   0.0000       0.291595         7.9347 
 131   0.0000       0.298810         8.1310 
 132   0.0000       0.299735         8.1562 
 133   0.0000       0.301696         8.2096 
 134   0.0000       0.308511         8.3950 
 135   0.0000       0.315715         8.5910 
 136   0.0000       0.317593         8.6422 
 137   0.0000       0.322323         8.7709 
 138   0.0000       0.324475         8.8294 
 139   0.0000       0.326823         8.8933 
 140   0.0000       0.333051         9.0628 
 141   0.0000       0.333851         9.0845 
 142   0.0000       0.336653         9.1608 
 143   0.0000       0.342273         9.3137 
 144   0.0000       0.349319         9.5055 
 145   0.0000       0.350794         9.5456 
 146   0.0000       0.360936         9.8216 
 147   0.0000       0.364836         9.9277 
 148   0.0000       0.367198         9.9920 
 149   0.0000       0.372781        10.1439 
 150   0.0000       0.379382        10.3235 
 151   0.0000       0.387349        10.5403 
 152   0.0000       0.390150        10.6165 
 153   0.0000       0.399274        10.8648 
 154   0.0000       0.403398        10.9770 
 155   0.0000       0.405538        11.0352 
 156   0.0000       0.408828        11.1248 
 157   0.0000       0.410040        11.1578 
 158   0.0000       0.411028        11.1846 
 159   0.0000       0.423186        11.5155 
 160   0.0000       0.426209        11.5977 
 161   0.0000       0.428482        11.6596 
 162   0.0000       0.433475        11.7955 
 163   0.0000       0.435754        11.8575 
 164   0.0000       0.438470        11.9314 
 165   0.0000       0.447658        12.1814 
 166   0.0000       0.452544        12.3144 
 167   0.0000       0.458011        12.4631 
 168   0.0000       0.460262        12.5244 
 169   0.0000       0.462940        12.5972 
 170   0.0000       0.466974        12.7070 
 171   0.0000       0.469994        12.7892 
 172   0.0000       0.471362        12.8264 
 173   0.0000       0.473026        12.8717 
 174   0.0000       0.476938        12.9781 
 175   0.0000       0.482919        13.1409 
 176   0.0000       0.485191        13.2027 
 177   0.0000       0.488172        13.2838 
 178   0.0000       0.490247        13.3403 
 179   0.0000       0.496256        13.5038 
 180   0.0000       0.503063        13.6890 
 181   0.0000       0.506421        13.7804 
 182   0.0000       0.509858        13.8739 
 183   0.0000       0.518840        14.1184 
 184   0.0000       0.521589        14.1931 
 185   0.0000       0.526996        14.3403 
 186   0.0000       0.530657        14.4399 
 187   0.0000       0.534427        14.5425 
 188   0.0000       0.541693        14.7402 
 189   0.0000       0.544198        14.8084 
 190   0.0000       0.557124        15.1601 
 191   0.0000       0.557951        15.1826 
 192   0.0000       0.559843        15.2341 
 193   0.0000       0.568562        15.4714 
 194   0.0000       0.570272        15.5179 
 195   0.0000       0.570492        15.5239 
 196   0.0000       0.573899        15.6166 
 197   0.0000       0.579077        15.7575 
 198   0.0000       0.586177        15.9507 
 199   0.0000       0.588129        16.0038 
 200   0.0000       0.590956        16.0807 
 201   0.0000       0.592622        16.1261 
 202   0.0000       0.599734        16.3196 
 203   0.0000       0.608268        16.5518 
 204   0.0000       0.620496        16.8846 
 205   0.0000       0.634674        17.2704 
 206   0.0000       0.637004        17.3337 
 207   0.0000       0.639571        17.4036 
 208   0.0000       0.648599        17.6493 
 209   0.0000       0.657185        17.8829 
 210   0.0000       0.666268        18.1301 
 211   0.0000       0.666697        18.1418 
 212   0.0000       0.681490        18.5443 
 213   0.0000       0.687779        18.7154 
 214   0.0000       0.697222        18.9724 
 215   0.0000       0.707458        19.2509 
 216   0.0000       0.711046        19.3486 
 217   0.0000       0.714626        19.4460 
 218   0.0000       0.718493        19.5512 
 219   0.0000       0.724529        19.7154 
 220   0.0000       0.727941        19.8083 
 221   0.0000       0.729892        19.8614 
 222   0.0000       0.738842        20.1049 
 223   0.0000       0.746790        20.3212 
 224   0.0000       0.748561        20.3694 
 225   0.0000       0.749576        20.3970 
 226   0.0000       0.751809        20.4578 
 227   0.0000       0.756824        20.5942 
 228   0.0000       0.763108        20.7652 
 229   0.0000       0.768576        20.9140 
 230   0.0000       0.773071        21.0363 
 231   0.0000       0.777298        21.1514 
 232   0.0000       0.782265        21.2865 
 233   0.0000       0.787434        21.4272 
 234   0.0000       0.789016        21.4702 
 235   0.0000       0.793751        21.5991 
 236   0.0000       0.801117        21.7995 
 237   0.0000       0.804195        21.8833 
 238   0.0000       0.807465        21.9722 
 239   0.0000       0.809533        22.0285 
 240   0.0000       0.813712        22.1422 
 241   0.0000       0.819737        22.3062 
 242   0.0000       0.825777        22.4705 
 243   0.0000       0.832202        22.6454 
 244   0.0000       0.839264        22.8375 
 245   0.0000       0.841826        22.9072 
 246   0.0000       0.845252        23.0005 
 247   0.0000       0.847073        23.0500 
 248   0.0000       0.857422        23.3316 
 249   0.0000       0.861909        23.4537 
 250   0.0000       0.872368        23.7383 
 251   0.0000       0.876452        23.8495 
 252   0.0000       0.879517        23.9329 
 253   0.0000       0.885044        24.0833 
 254   0.0000       0.889141        24.1948 
 255   0.0000       0.890116        24.2213 
 256   0.0000       0.893979        24.3264 
 257   0.0000       0.907177        24.6855 
 258   0.0000       0.912323        24.8256 
 259   0.0000       0.922177        25.0937 
 260   0.0000       0.928285        25.2599 
 261   0.0000       0.930675        25.3250 
 262   0.0000       0.940416        25.5900 
 263   0.0000       0.944132        25.6911 
 264   0.0000       0.946386        25.7525 
 265   0.0000       0.950361        25.8606 
 266   0.0000       0.955252        25.9937 
 267   0.0000       0.956051        26.0155 
 268   0.0000       0.957412        26.0525 
 269   0.0000       0.967302        26.3216 
 270   0.0000       0.981524        26.7086 
 271   0.0000       0.983630        26.7659 
 272   0.0000       0.987166        26.8621 
 273   0.0000       0.992692        27.0125 
 274   0.0000       0.997909        27.1545 
 275   0.0000       1.003125        27.2964 
 276   0.0000       1.016418        27.6581 
 277   0.0000       1.023189        27.8424 
 278   0.0000       1.036202        28.1965 
 279   0.0000       1.038014        28.2458 
 280   0.0000       1.044315        28.4173 
 281   0.0000       1.049412        28.5560 
 282   0.0000       1.071005        29.1435 
 283   0.0000       1.083931        29.4952 
 284   0.0000       1.089009        29.6334 
 285   0.0000       1.092951        29.7407 
 286   0.0000       1.104446        30.0535 
 287   0.0000       1.111348        30.2413 
 288   0.0000       1.113830        30.3088 
 289   0.0000       1.127960        30.6934 
 290   0.0000       1.130459        30.7613 
 291   0.0000       1.141526        31.0625 
 292   0.0000       1.155590        31.4452 
 293   0.0000       1.164186        31.6791 
 294   0.0000       1.172546        31.9066 
 295   0.0000       1.173913        31.9438 
 296   0.0000       1.186547        32.2876 
 297   0.0000       1.196013        32.5452 
 298   0.0000       1.211695        32.9719 
 299   0.0000       1.215683        33.0804 
 300   0.0000       1.221549        33.2400 
 301   0.0000       1.225716        33.3534 
 302   0.0000       1.225880        33.3579 
 303   0.0000       1.235045        33.6073 
 304   0.0000       1.247866        33.9562 
 305   0.0000       1.248553        33.9748 
 306   0.0000       1.263331        34.3770 
 307   0.0000       1.274647        34.6849 
 308   0.0000       1.277884        34.7730 
 309   0.0000       1.288649        35.0659 
 310   0.0000       1.289730        35.0953 
 311   0.0000       1.296065        35.2677 
 312   0.0000       1.315291        35.7909 
 313   0.0000       1.319303        35.9001 
 314   0.0000       1.324896        36.0523 
 315   0.0000       1.330199        36.1966 
 316   0.0000       1.332219        36.2515 
 317   0.0000       1.340244        36.4699 
 318   0.0000       1.348195        36.6862 
 319   0.0000       1.352835        36.8125 
 320   0.0000       1.356911        36.9234 
 321   0.0000       1.363606        37.1056 
 322   0.0000       1.365845        37.1665 
 323   0.0000       1.377240        37.4766 
 324   0.0000       1.381517        37.5930 
 325   0.0000       1.391641        37.8685 
 326   0.0000       1.404068        38.2066 
 327   0.0000       1.404887        38.2289 
 328   0.0000       1.409357        38.3505 
 329   0.0000       1.427779        38.8518 
 330   0.0000       1.432680        38.9852 
 331   0.0000       1.436263        39.0827 
 332   0.0000       1.447055        39.3764 
 333   0.0000       1.461716        39.7753 
 334   0.0000       1.463655        39.8281 
 335   0.0000       1.472470        40.0680 
 336   0.0000       1.478965        40.2447 
 337   0.0000       1.484354        40.3913 
 338   0.0000       1.500607        40.8336 
 339   0.0000       1.505413        40.9644 
 340   0.0000       1.514397        41.2088 
 341   0.0000       1.518165        41.3114 
 342   0.0000       1.530093        41.6359 
 343   0.0000       1.535137        41.7732 
 344   0.0000       1.538565        41.8665 
 345   0.0000       1.542161        41.9643 
 346   0.0000       1.552554        42.2471 
 347   0.0000       1.563530        42.5458 
 348   0.0000       1.568524        42.6817 
 349   0.0000       1.574366        42.8407 
 350   0.0000       1.585698        43.1490 
 351   0.0000       1.587462        43.1970 
 352   0.0000       1.589400        43.2498 
 353   0.0000       1.599272        43.5184 
 354   0.0000       1.604125        43.6505 
 355   0.0000       1.612884        43.8888 
 356   0.0000       1.617485        44.0140 
 357   0.0000       1.618845        44.0510 
 358   0.0000       1.626824        44.2681 
 359   0.0000       1.630361        44.3644 
 360   0.0000       1.633123        44.4395 
 361   0.0000       1.639835        44.6222 
 362   0.0000       1.648103        44.8472 
 363   0.0000       1.652284        44.9609 
 364   0.0000       1.665487        45.3202 
 365   0.0000       1.678275        45.6682 
 366   0.0000       1.681048        45.7437 
 367   0.0000       1.694099        46.0988 
 368   0.0000       1.699799        46.2539 
 369   0.0000       1.704245        46.3749 
 370   0.0000       1.720349        46.8131 
 371   0.0000       1.723619        46.9020 
 372   0.0000       1.725495        46.9531 
 373   0.0000       1.730711        47.0950 
 374   0.0000       1.739513        47.3346 
 375   0.0000       1.742989        47.4291 
 376   0.0000       1.760554        47.9071 
 377   0.0000       1.764381        48.0112 
 378   0.0000       1.771008        48.1916 
 379   0.0000       1.781523        48.4777 
 380   0.0000       1.783943        48.5436 
 381   0.0000       1.789395        48.6919 
 382   0.0000       1.797774        48.9199 
 383   0.0000       1.800229        48.9867 
 384   0.0000       1.804124        49.0927 
 385   0.0000       1.809399        49.2363 
 386   0.0000       1.815427        49.4003 
 387   0.0000       1.819986        49.5243 
 388   0.0000       1.824537        49.6482 
 389   0.0000       1.831450        49.8363 
 390   0.0000       1.839504        50.0554 
 391   0.0000       1.844663        50.1958 
 392   0.0000       1.851054        50.3697 
 393   0.0000       1.857695        50.5505 
 394   0.0000       1.858116        50.5619 
 395   0.0000       1.873724        50.9866 
 396   0.0000       1.876046        51.0498 
 397   0.0000       1.880496        51.1709 
 398   0.0000       1.883747        51.2594 
 399   0.0000       1.889864        51.4258 
 400   0.0000       1.898448        51.6594 
 401   0.0000       1.925577        52.3976 
 402   0.0000       1.933317        52.6082 
 403   0.0000       1.946506        52.9671 
 404   0.0000       1.953792        53.1654 
 405   0.0000       1.965321        53.4791 
 406   0.0000       1.973199        53.6935 
 407   0.0000       1.978085        53.8264 
 408   0.0000       1.985716        54.0341 
 409   0.0000       1.996239        54.3204 
 410   0.0000       2.011822        54.7445 
 411   0.0000       2.023224        55.0547 
 412   0.0000       2.037515        55.4436 
 413   0.0000       2.040957        55.5373 
 414   0.0000       2.051745        55.8308 
 415   0.0000       2.065424        56.2030 
 416   0.0000       2.065781        56.2128 
 417   0.0000       2.076624        56.5078 
 418   0.0000       2.095096        57.0105 
 419   0.0000       2.098362        57.0993 
 420   0.0000       2.105937        57.3055 
 421   0.0000       2.117525        57.6208 
 422   0.0000       2.122249        57.7493 
 423   0.0000       2.130673        57.9786 
 424   0.0000       2.141224        58.2657 
 425   0.0000       2.155364        58.6504 
 426   0.0000       2.161378        58.8141 
 427   0.0000       2.174535        59.1721 
 428   0.0000       2.179928        59.3188 
 429   0.0000       2.200763        59.8858 
 430   0.0000       2.209249        60.1167 
 431   0.0000       2.227327        60.6086 
 432   0.0000       2.229271        60.6615 
 433   0.0000       2.236562        60.8599 
 434   0.0000       2.240852        60.9767 
 435   0.0000       2.244747        61.0827 
 436   0.0000       2.250041        61.2267 
 437   0.0000       2.262416        61.5635 
 438   0.0000       2.276001        61.9331 
 439   0.0000       2.278253        61.9944 
 440   0.0000       2.282839        62.1192 
 441   0.0000       2.288266        62.2669 
 442   0.0000       2.293321        62.4044 
 443   0.0000       2.297102        62.5073 
 444   0.0000       2.304185        62.7001 
 445   0.0000       2.320778        63.1516 
 446   0.0000       2.325571        63.2820 
 447   0.0000       2.330147        63.4065 
 448   0.0000       2.337302        63.6012 
 449   0.0000       2.347471        63.8779 
 450   0.0000       2.352044        64.0024 
 451   0.0000       2.363777        64.3217 
 452   0.0000       2.375352        64.6366 
 453   0.0000       2.379756        64.7564 
 454   0.0000       2.390410        65.0464 
 455   0.0000       2.396418        65.2099 
 456   0.0000       2.409233        65.5586 
 457   0.0000       2.419468        65.8371 
 458   0.0000       2.427847        66.0651 
 459   0.0000       2.435352        66.2693 
 460   0.0000       2.451196        66.7004 
 461   0.0000       2.469661        67.2029 
 462   0.0000       2.475620        67.3650 
 463   0.0000       2.481599        67.5277 
 464   0.0000       2.495651        67.9101 
 465   0.0000       2.502287        68.0907 
 466   0.0000       2.506537        68.2063 
 467   0.0000       2.522965        68.6534 
 468   0.0000       2.551340        69.4255 
 469   0.0000       2.556646        69.5699 
 470   0.0000       2.557956        69.6055 
 471   0.0000       2.589447        70.4624 
 472   0.0000       2.597691        70.6868 
 473   0.0000       2.607406        70.9511 
 474   0.0000       2.616618        71.2018 
 475   0.0000       2.623519        71.3896 
 476   0.0000       2.633682        71.6661 
 477   0.0000       2.636493        71.7426 
 478   0.0000       2.651416        72.1487 
 479   0.0000       2.658464        72.3405 
 480   0.0000       2.660169        72.3869 
 481   0.0000       2.669810        72.6492 
 482   0.0000       2.672286        72.7166 
 483   0.0000       2.686466        73.1025 
 484   0.0000       2.697758        73.4097 
 485   0.0000       2.710834        73.7656 
 486   0.0000       2.713855        73.8477 
 487   0.0000       2.722628        74.0865 
 488   0.0000       2.732944        74.3672 
 489   0.0000       2.748061        74.7785 
 490   0.0000       2.749729        74.8239 
 491   0.0000       2.752594        74.9019 
 492   0.0000       2.759580        75.0920 
 493   0.0000       2.766463        75.2793 
 494   0.0000       2.775201        75.5171 
 495   0.0000       2.777309        75.5744 
 496   0.0000       2.781618        75.6917 
 497   0.0000       2.788276        75.8728 
 498   0.0000       2.793114        76.0045 
 499   0.0000       2.796002        76.0831 
 500   0.0000       2.801778        76.2403 
 501   0.0000       2.805292        76.3359 
 502   0.0000       2.808627        76.4266 
 503   0.0000       2.816196        76.6326 
 504   0.0000       2.818988        76.7086 
 505   0.0000       2.831072        77.0374 
 506   0.0000       2.834555        77.1322 
 507   0.0000       2.837236        77.2051 
 508   0.0000       2.838937        77.2514 
 509   0.0000       2.844952        77.4151 
 510   0.0000       2.855515        77.7025 
 511   0.0000       2.858540        77.7848 
 512   0.0000       2.865938        77.9861 
 513   0.0000       2.866657        78.0057 
 514   0.0000       2.876919        78.2850 
 515   0.0000       2.879881        78.3655 
 516   0.0000       2.890503        78.6546 
 517   0.0000       2.893939        78.7481 
 518   0.0000       2.897257        78.8384 
 519   0.0000       2.898523        78.8728 
 520   0.0000       2.909618        79.1747 
 521   0.0000       2.919645        79.4476 
 522   0.0000       2.924886        79.5902 
 523   0.0000       2.927291        79.6557 
 524   0.0000       2.928628        79.6920 
 525   0.0000       2.937608        79.9364 
 526   0.0000       2.941042        80.0298 
 527   0.0000       2.945902        80.1621 
 528   0.0000       2.952626        80.3450 
 529   0.0000       2.963417        80.6387 
 530   0.0000       2.965259        80.6888 
 531   0.0000       2.972563        80.8876 
 532   0.0000       2.977235        81.0147 
 533   0.0000       2.982460        81.1568 
 534   0.0000       2.983173        81.1763 
 535   0.0000       2.994028        81.4716 
 536   0.0000       2.995456        81.5105 
 537   0.0000       3.001860        81.6848 
 538   0.0000       3.010269        81.9136 
 539   0.0000       3.013306        81.9962 
 540   0.0000       3.017774        82.1178 
 541   0.0000       3.029096        82.4259 
 542   0.0000       3.030663        82.4685 
 543   0.0000       3.040319        82.7313 
 544   0.0000       3.040600        82.7389 
 545   0.0000       3.050540        83.0094 
 546   0.0000       3.056198        83.1634 
 547   0.0000       3.062147        83.3253 
 548   0.0000       3.065697        83.4218 
 549   0.0000       3.069942        83.5374 
 550   0.0000       3.079925        83.8090 
 551   0.0000       3.089697        84.0749 
 552   0.0000       3.094944        84.2177 
 553   0.0000       3.104902        84.4887 
 554   0.0000       3.107367        84.5558 
 555   0.0000       3.109864        84.6237 
 556   0.0000       3.111520        84.6688 
 557   0.0000       3.124981        85.0351 
 558   0.0000       3.133247        85.2600 
 559   0.0000       3.146543        85.6218 
 560   0.0000       3.153044        85.7987 
 561   0.0000       3.154274        85.8322 
 562   0.0000       3.158992        85.9605 
 563   0.0000       3.168621        86.2226 
 564   0.0000       3.175966        86.4224 
 565   0.0000       3.186229        86.7017 
 566   0.0000       3.189943        86.8028 
 567   0.0000       3.198587        87.0380 
 568   0.0000       3.213202        87.4357 
 569   0.0000       3.218286        87.5740 
 570   0.0000       3.225002        87.7568 
 571   0.0000       3.227445        87.8232 
 572   0.0000       3.235830        88.0514 
 573   0.0000       3.237457        88.0957 
 574   0.0000       3.244531        88.2882 
 575   0.0000       3.253436        88.5305 
 576   0.0000       3.254696        88.5648 
 577   0.0000       3.261130        88.7399 
 578   0.0000       3.271077        89.0105 
 579   0.0000       3.278384        89.2094 
 580   0.0000       3.280795        89.2750 
 581   0.0000       3.283819        89.3572 
 582   0.0000       3.285804        89.4113 
 583   0.0000       3.289358        89.5080 
 584   0.0000       3.301394        89.8355 
 585   0.0000       3.302769        89.8729 
 586   0.0000       3.311009        90.0971 
 587   0.0000       3.320449        90.3540 
 588   0.0000       3.320846        90.3648 
 589   0.0000       3.330558        90.6291 
 590   0.0000       3.334548        90.7377 
 591   0.0000       3.341679        90.9317 
 592   0.0000       3.347273        91.0839 
 593   0.0000       3.350187        91.1632 
 594   0.0000       3.353390        91.2504 
 595   0.0000       3.363264        91.5191 
 596   0.0000       3.370105        91.7052 
 597   0.0000       3.375145        91.8424 
 598   0.0000       3.382104        92.0317 
 599   0.0000       3.384382        92.0937 
 600   0.0000       3.402078        92.5752 
 601   0.0000       3.411386        92.8285 
 602   0.0000       3.416216        92.9600 
 603   0.0000       3.421275        93.0976 
 604   0.0000       3.423062        93.1463 
 605   0.0000       3.426427        93.2378 
 606   0.0000       3.432178        93.3943 
 607   0.0000       3.433012        93.4170 
 608   0.0000       3.449546        93.8669 
 609   0.0000       3.451292        93.9144 
 610   0.0000       3.455125        94.0187 
 611   0.0000       3.459890        94.1484 
 612   0.0000       3.466788        94.3361 
 613   0.0000       3.470443        94.4356 
 614   0.0000       3.472147        94.4819 
 615   0.0000       3.482882        94.7740 
 616   0.0000       3.483862        94.8007 
 617   0.0000       3.489151        94.9446 
 618   0.0000       3.497951        95.1841 
 619   0.0000       3.511476        95.5521 
 620   0.0000       3.514754        95.6413 
 621   0.0000       3.518538        95.7443 
 622   0.0000       3.522787        95.8599 
 623   0.0000       3.529288        96.0368 
 624   0.0000       3.544503        96.4508 
 625   0.0000       3.546237        96.4980 
 626   0.0000       3.547565        96.5342 
 627   0.0000       3.555098        96.7391 
 628   0.0000       3.557917        96.8158 
 629   0.0000       3.567629        97.0801 
 630   0.0000       3.570783        97.1659 
 631   0.0000       3.576540        97.3226 
 632   0.0000       3.580270        97.4241 
 633   0.0000       3.588302        97.6427 
 634   0.0000       3.594719        97.8173 
 635   0.0000       3.599743        97.9540 
 636   0.0000       3.606706        98.1435 
 637   0.0000       3.608251        98.1855 
 638   0.0000       3.611537        98.2749 
 639   0.0000       3.621434        98.5442 
 640   0.0000       3.624908        98.6388 
 641   0.0000       3.628923        98.7480 
 642   0.0000       3.639161        99.0266 
 643   0.0000       3.642852        99.1270 
 644   0.0000       3.646936        99.2382 
 645   0.0000       3.657695        99.5309 
 646   0.0000       3.659129        99.5700 
 647   0.0000       3.671931        99.9183 
 648   0.0000       3.674373        99.9848 
 649   0.0000       3.678920       100.1085 
 650   0.0000       3.681318       100.1737 
 651   0.0000       3.686684       100.3198 
 652   0.0000       3.688683       100.3742 
[...]
    82a ->  86a  :     0.022089 
    82a ->  90a  :     0.015181 
    83a ->  87a  :     0.016504 
    83a ->  88a  :     0.222774 
    83a ->  89a  :     0.109570 

STATE 16:  E=   0.207974 au      5.659 eV    45645.0 cm**-1 <S**2> =   0.000000
    77a ->  84a  :     0.019428 
    77a ->  87a  :     0.010209 
    78a ->  84a  :     0.012716 
    78a ->  85a  :     0.122348 
    79a ->  85a  :     0.029080 
    79a ->  86a  :     0.022617 
    80a ->  86a  :     0.058532 
    80a ->  88a  :     0.059487 
    82a ->  87a  :     0.014533 
    82a ->  88a  :     0.010097 
    83a ->  87a  :     0.476070 
    83a ->  90a  :     0.086062 

STATE 17:  E=   0.208618 au      5.677 eV    45786.4 cm**-1 <S**2> =   0.000000
    77a ->  84a  :     0.018421 
    77a ->  87a  :     0.010401 
    78a ->  84a  :     0.015101 
    78a ->  85a  :     0.132930 
    80a ->  86a  :     0.071923 
    80a ->  88a  :     0.049375 
    82a ->  88a  :     0.013901 
    83a ->  87a  :     0.389523 
    83a ->  88a  :     0.082636 
    83a ->  89a  :     0.026104 
    83a ->  90a  :     0.087279 

STATE 18:  E=   0.204711 au      5.570 eV    44928.9 cm**-1 <S**2> =   0.000000
    77a ->  84a  :     0.015582 
    77a ->  85a  :     0.022100 
    79a ->  84a  :     0.017185 
    79a ->  85a  :     0.610767 
    80a ->  85a  :     0.054671 
    80a ->  86a  :     0.023114 
    80a ->  88a  :     0.019402 
    81a ->  87a  :     0.145130 
    83a ->  88a  :     0.012172 

STATE 19:  E=   0.213104 au      5.799 eV    46771.0 cm**-1 <S**2> =   0.000000
    75a ->  84a  :     0.011632 
    77a ->  84a  :     0.502427 
    77a ->  85a  :     0.043547 
    78a ->  84a  :     0.019182 
    78a ->  85a  :     0.157999 
    78a ->  90a  :     0.011287 
    79a ->  86a  :     0.022745 
    79a ->  88a  :     0.010582 
    80a ->  89a  :     0.010780 
    82a ->  89a  :     0.078849 
    83a ->  88a  :     0.010523 

STATE 20:  E=   0.207525 au      5.647 eV    45546.4 cm**-1 <S**2> =   0.000000
    77a ->  85a  :     0.017628 
    78a ->  84a  :     0.040945 
    78a ->  85a  :     0.024875 
    79a ->  85a  :     0.010410 
    80a ->  85a  :     0.018571 
    80a ->  86a  :     0.015191 
    82a ->  86a  :     0.033904 
    82a ->  88a  :     0.010464 
    83a ->  86a  :     0.127492 
    83a ->  88a  :     0.249740 
    83a ->  89a  :     0.372591 

STATE 21:  E=   0.212776 au      5.790 eV    46698.9 cm**-1 <S**2> =   0.000000
    77a ->  84a  :     0.198321 
    77a ->  85a  :     0.052638 
    78a ->  84a  :     0.060905 
    78a ->  85a  :     0.127520 
    79a ->  85a  :     0.051366 
    79a ->  88a  :     0.031538 
    79a ->  89a  :     0.010029 
    80a ->  86a  :     0.095586 
    80a ->  88a  :     0.020170 
    80a ->  90a  :     0.011600 
    82a ->  88a  :     0.030038 
    82a ->  89a  :     0.043783 
    83a ->  86a  :     0.014247 
    83a ->  88a  :     0.046343 
    83a ->  89a  :     0.060935 
    83a ->  90a  :     0.050954 
    83a ->  92a  :     0.014958 

STATE 22:  E=   0.214856 au      5.847 eV    47155.3 cm**-1 <S**2> =   0.000000
    77a ->  85a  :     0.180287 
    78a ->  84a  :     0.022445 
    78a ->  85a  :     0.214161 
    78a ->  89a  :     0.014262 
    79a ->  89a  :     0.010791 
    80a ->  86a  :     0.016092 
    82a ->  86a  :     0.059686 
    82a ->  92a  :     0.015960 
    83a ->  89a  :     0.058988 
    83a ->  90a  :     0.310294 

STATE 23:  E=   0.227234 au      6.183 eV    49872.1 cm**-1 <S**2> =   0.000000
    77a ->  85a  :     0.040757 
    78a ->  85a  :     0.050217 
    79a ->  86a  :     0.013199 
    79a ->  88a  :     0.053745 
    80a ->  86a  :     0.097506 
    80a ->  88a  :     0.028081 
    81a ->  87a  :     0.013400 
    82a ->  86a  :     0.259880 
    82a ->  88a  :     0.010554 
    82a ->  89a  :     0.016563 
    83a ->  88a  :     0.029358 
    83a ->  89a  :     0.016205 
    83a ->  90a  :     0.232377 
    83a ->  92a  :     0.028754 

STATE 24:  E=   0.237278 au      6.457 eV    52076.6 cm**-1 <S**2> =   0.000000
    74a ->  84a  :     0.069646 
    79a ->  87a  :     0.348359 
    80a ->  87a  :     0.099830 
    81a ->  86a  :     0.194451 
    81a ->  88a  :     0.164482 
    81a ->  89a  :     0.018026 
    82a ->  87a  :     0.026593 

STATE 25:  E=   0.226216 au      6.156 eV    49648.6 cm**-1 <S**2> =   0.000000
    77a ->  84a  :     0.013054 
    77a ->  85a  :     0.122160 
    77a ->  86a  :     0.014583 
    77a ->  88a  :     0.010098 
    78a ->  86a  :     0.016631 
    79a ->  86a  :     0.035083 
    79a ->  88a  :     0.094794 
    80a ->  84a  :     0.012664 
    80a ->  85a  :     0.026583 
    80a ->  89a  :     0.071909 
    80a ->  90a  :     0.013294 
    81a ->  87a  :     0.062457 
    82a ->  86a  :     0.222613 
    82a ->  87a  :     0.024209 
    82a ->  88a  :     0.032048 
    82a ->  90a  :     0.021351 
    83a ->  86a  :     0.010199 
    83a ->  88a  :     0.045887 
    83a ->  92a  :     0.043269 

STATE 26:  E=   0.227806 au      6.199 eV    49997.6 cm**-1 <S**2> =   0.000000
    65a ->  84a  :     0.010800 
    69a ->  84a  :     0.023793 
    70a ->  84a  :     0.022134 
    74a ->  84a  :     0.729016 
    76a ->  84a  :     0.033179 
    76a ->  85a  :     0.013590 
    79a ->  87a  :     0.027371 
    81a ->  86a  :     0.034562 

STATE 27:  E=   0.239487 au      6.517 eV    52561.3 cm**-1 <S**2> =   0.000000
    77a ->  84a  :     0.023804 
    77a ->  85a  :     0.058706 
    79a ->  85a  :     0.014714 
    79a ->  86a  :     0.160391 
    79a ->  88a  :     0.047892 
    79a ->  89a  :     0.031364 
    80a ->  88a  :     0.159007 
    81a ->  87a  :     0.150149 
    82a ->  87a  :     0.063759 
    82a ->  88a  :     0.051772 
    83a ->  90a  :     0.079762 
    83a ->  92a  :     0.014890 

STATE 28:  E=   0.229840 au      6.254 eV    50444.0 cm**-1 <S**2> =   0.000000
    79a ->  87a  :     0.068416 
    80a ->  87a  :     0.015252 
    81a ->  87a  :     0.096516 
    82a ->  87a  :     0.709441 
    83a ->  87a  :     0.030999 

STATE 29:  E=   0.233226 au      6.346 eV    51187.1 cm**-1 <S**2> =   0.000000
    77a ->  85a  :     0.244095 
    77a ->  90a  :     0.011202 
    78a ->  85a  :     0.020300 
    79a ->  88a  :     0.017520 
    80a ->  88a  :     0.035505 
    80a ->  89a  :     0.025442 
    82a ->  88a  :     0.268325 
    82a ->  89a  :     0.182442 
    82a ->  90a  :     0.030535 
    83a ->  86a  :     0.010028 
    83a ->  90a  :     0.020885 
    83a ->  92a  :     0.026347 

STATE 30:  E=   0.232741 au      6.333 eV    51080.7 cm**-1 <S**2> =   0.000000
    77a ->  85a  :     0.026348 
    78a ->  85a  :     0.026418 
    78a ->  86a  :     0.011832 
    79a ->  86a  :     0.062818 
    79a ->  88a  :     0.019006 
    80a ->  86a  :     0.072055 
    80a ->  89a  :     0.019046 
    80a ->  90a  :     0.022654 
    81a ->  86a  :     0.012851 
    82a ->  86a  :     0.211056 
    82a ->  88a  :     0.090758 
    82a ->  89a  :     0.217859 
    83a ->  89a  :     0.010091 
    83a ->  92a  :     0.115684 


-------------------------
TD-DFT-EXCITATION SPECTRA
-------------------------

Center of mass = ( -0.0281, -0.0368, -0.0012)
Calculating the Dipole integrals                  ... done
Transforming integrals                            ... done
Calculating the Linear Momentum integrals         ... done
Transforming integrals                            ... done
Calculating angular momentum integrals            ... done
Transforming integrals                            ... done

-----------------------------------------------------------------------------
         ABSORPTION SPECTRUM VIA TRANSITION ELECTRIC DIPOLE MOMENTS
-----------------------------------------------------------------------------
State   Energy    Wavelength  fosc         T2        TX        TY        TZ  
        (cm-1)      (nm)                 (au**2)    (au)      (au)      (au) 
-----------------------------------------------------------------------------
   1   28223.4    354.3   0.084852580   0.98976   0.66567  -0.73935   0.00377
   2   31449.9    318.0   0.267716031   2.80241  -1.42491  -0.87863   0.00613
   3   32721.2    305.6   0.010646379   0.10711   0.30403   0.11941   0.02049
   4   35410.8    282.4   0.951825479   8.84907  -2.52047  -1.57991  -0.01395
   5   36996.9    270.3   0.204281455   1.81777   1.01408   0.88847   0.00579
   6   37678.5    265.4   0.303793332   2.65437  -1.17656   1.12692   0.01066
   7   37766.2    264.8   0.022212262   0.19363   0.02048   0.43945  -0.00930
   8   38374.0    260.6   0.114498437   0.98229   0.53735   0.83154  -0.04575
   9   39468.3    253.4   0.019541835   0.16300  -0.20063  -0.31423  -0.15494
  10   40816.1    245.0   0.000733947   0.00592  -0.06506  -0.00631  -0.04058
  11   43895.6    227.8   0.305373694   2.29027   0.63122   1.37537  -0.01376
  12   41982.7    238.2   0.065387750   0.51275   0.39851  -0.59456  -0.02079
  13   47297.1    211.4   0.053428290   0.37189  -0.19517   0.57632   0.04062
  14   41570.9    240.6   0.007136016   0.05651   0.11284  -0.09544   0.18620
  15   43397.1    230.4   0.170164837   1.29088   0.15078  -1.12582  -0.02593
  16   45645.0    219.1   0.142660353   1.02893  -0.89308  -0.48009  -0.02928
  17   45786.4    218.4   0.151616630   1.09015   0.95043   0.43213  -0.00910
  18   44928.9    222.6   0.164031989   1.20193   1.01272  -0.41908   0.02657
  19   46771.0    213.8   0.079384314   0.55877   0.30828  -0.68098   0.00017
  20   45546.4    219.6   0.009390653   0.06788   0.25048   0.03655   0.06165
  21   46698.9    214.1   0.199909753   1.40930   0.95441  -0.70514  -0.03425
  22   47155.3    212.1   0.031261556   0.21825   0.03359   0.46480  -0.03291
  23   49872.1    200.5   0.435415876   2.87424  -1.61478   0.49555   0.14547
  24   52076.6    192.0   0.460500057   2.91114   0.03277  -0.11089   1.70228
  25   49648.6    201.4   0.123626055   0.81974  -0.54390   0.72097  -0.06427
  26   49997.6    200.0   0.033449108   0.22025   0.08705  -0.05978  -0.45727
  27   52561.3    190.3   0.300289217   1.88083   0.96560  -0.96926   0.09480
  28   50444.0    198.2   0.040418591   0.26378   0.40420  -0.27737  -0.15321
  29   51187.1    195.4   0.068753706   0.44219   0.38938  -0.53904   0.00342
  30   51080.7    195.8   0.016998419   0.10955  -0.13838   0.29898  -0.03187

-----------------------------------------------------------------------------
         ABSORPTION SPECTRUM VIA TRANSITION VELOCITY DIPOLE MOMENTS
-----------------------------------------------------------------------------
State   Energy    Wavelength   fosc        P2         PX        PY        PZ  
        (cm-1)      (nm)                 (au**2)     (au)      (au)      (au) 
-----------------------------------------------------------------------------
   1   28223.4    354.3   0.104641831   0.02018  -0.09512   0.10553  -0.00051
   2   31449.9    318.0   0.302108665   0.06494   0.21652   0.13437  -0.00092
   3   32721.2    305.6   0.014062977   0.00314  -0.05215  -0.02055  -0.00169
   4   35410.8    282.4   1.125894998   0.27248   0.44296   0.27615   0.00266
   5   36996.9    270.3   0.245241142   0.06201  -0.18757  -0.16379  -0.00105
   6   37678.5    265.4   0.381532574   0.09825   0.22556  -0.21764  -0.00203
   7   37766.2    264.8   0.029556173   0.00763  -0.00450  -0.08721   0.00189
   8   38374.0    260.6   0.148714302   0.03900  -0.10717  -0.16561   0.00953
   9   39468.3    253.4   0.024580223   0.00663   0.04018   0.06299   0.03237
  10   40816.1    245.0   0.001105784   0.00031   0.01356   0.00128   0.01109
  11   43895.6    227.8   0.340416107   0.10213  -0.13226  -0.29090   0.00312
  12   41982.7    238.2   0.085939000   0.02466  -0.08785   0.13009   0.00434
  13   47297.1    211.4   0.054619594   0.01766   0.04301  -0.12541  -0.00886
  14   41570.9    240.6   0.009317182   0.00265  -0.02510   0.02127  -0.03956
  15   43397.1    230.4   0.217098930   0.06439  -0.03595   0.25113   0.00576
  16   45645.0    219.1   0.167131725   0.05214   0.20113   0.10784   0.00741
  17   45786.4    218.4   0.179283217   0.05610  -0.21563  -0.09797   0.00275
  18   44928.9    222.6   0.209450209   0.06432  -0.23441   0.09658  -0.00621
  19   46771.0    213.8   0.093412971   0.02986  -0.07181   0.15717   0.00001
  20   45546.4    219.6   0.011470031   0.00357  -0.05706  -0.01001  -0.01464
  21   46698.9    214.1   0.254705129   0.08129  -0.22930   0.16925   0.00830
  22   47155.3    212.1   0.040093425   0.01292  -0.00632  -0.11321   0.00807
  23   49872.1    200.5   0.517068395   0.17624   0.39948  -0.12391  -0.03609
  24   52076.6    192.0   0.518482983   0.18454  -0.00821   0.02804  -0.42858
  25   49648.6    201.4   0.156416448   0.05308   0.13875  -0.18317   0.01643
  26   49997.6    200.0   0.043366180   0.01482  -0.02239   0.01537   0.11866
  27   52561.3    190.3   0.348027349   0.12502  -0.24865   0.25022  -0.02427
  28   50444.0    198.2   0.050792630   0.01751  -0.10434   0.07170   0.03853
  29   51187.1    195.4   0.085233111   0.02982  -0.10091   0.14013  -0.00072
  30   51080.7    195.8   0.021471888   0.00750   0.03502  -0.07873   0.00841

-------------------------------------------------------------------
                             CD SPECTRUM
-------------------------------------------------------------------
State  Energy     Wavelength     R         MX        MY        MZ   
       (cm-1)       (nm)     (1e40*cgs)   (au)      (au)      (au)  
-------------------------------------------------------------------
   1   28223.4    354.3      0.96470   0.00221  -0.00253  -0.34385
   2   31449.9    318.0      0.36063  -0.00027   0.00149   0.27420
   3   32721.2    305.6     -5.76988  -0.05690   0.05388  -0.06709
   4   35410.8    282.4     -2.27971  -0.01076   0.01428   0.67292
   5   36996.9    270.3      2.72447   0.00606  -0.00144   0.15707
   6   37678.5    265.4      4.41765   0.00046   0.00749   0.13811
   7   37766.2    264.8     -3.79133   0.00121  -0.00894   0.44488
   8   38374.0    260.6     16.94843   0.00773   0.07073   0.59052
   9   39468.3    253.4    -20.65356   0.01643   0.22511  -0.19508
  10   40816.1    245.0      4.82511  -0.17918   0.17711   0.00753
  11   43895.6    227.8     17.26152   0.01003   0.02003  -0.19863
  12   41982.7    238.2     -1.27118   0.02657  -0.00673   0.83158
  13   47297.1    211.4     -5.24008  -0.04238  -0.00871  -0.35370
  14   41570.9    240.6      8.84825  -0.21170  -0.02743   0.21504
  15   43397.1    230.4     -8.13287   0.02951  -0.00099   0.88002
  16   45645.0    219.1    -47.06069   0.08867   0.00322   0.65171
  17   45786.4    218.4     39.89178   0.08889  -0.01626  -0.78673
  18   44928.9    222.6    -10.91819  -0.01684  -0.01879  -0.52600
  19   46771.0    213.8     -2.93261  -0.00564   0.00662   0.15166
  20   45546.4    219.6     -9.16601  -0.03982  -0.05652  -0.12006
  21   46698.9    214.1      1.22373   0.01294   0.02050  -0.13726
  22   47155.3    212.1     -3.37768   0.02037   0.01822   0.49583
  23   49872.1    200.5     -0.50537  -0.05829  -0.10135  -0.30915
  24   52076.6    192.0     16.25728  -0.81642  -1.49015  -0.06110
  25   49648.6    201.4      8.91029   0.02306   0.05763   0.15726
  26   49997.6    200.0      4.17856   0.33842   0.32661   0.00235
  27   52561.3    190.3      7.78117  -0.01767  -0.07189  -0.38088
  28   50444.0    198.2    -15.97291  -0.01032   0.15707  -0.09045
  29   51187.1    195.4      6.25201   0.01358  -0.01427   0.08283
  30   51080.7    195.8      9.62529   0.02098   0.02877  -0.46177

Total run time:     2168.786 sec

           *** ORCA-CIS/TD-DFT FINISHED WITHOUT ERROR ***

Maximum memory used throughout the entire CIS-calculation: 3623.9 MB

-----------------------
CIS/TD-DFT TOTAL ENERGY
-----------------------

    E(SCF)  =  -1033.582368615 Eh
    DE(CIS) =      0.128595058 Eh (Root  1)
    ----------------------------- ---------
    E(tot)  =  -1033.453773557 Eh



-------------------------------------------------------------------------------
                          DFT DISPERSION CORRECTION                            
                                                                               
                              DFTD3 V3.1  Rev 1                                
                          USING Becke-Johnson damping                          
-------------------------------------------------------------------------------
The B2PLYP functional is recognized
Active option DFTDOPT                   ...         4   

molecular C6(AA) [au] = 21383.211135 


            DFT-D V3
 parameters
 s6 scaling factor         :     0.6400 
 a1 scaling factor         :     0.3065 
 s8 scaling factor         :     0.9147 
 a2 scaling factor         :     5.0570 
 ad hoc parameters k1-k3   :    16.0000     1.3333    -4.0000 

 Edisp/kcal,au: -30.144157896744  -0.048037768236 
 E6   /kcal   : -16.680327392 
 E8   /kcal   : -13.463830505 
 % E8         :  44.664808853 

-------------------------   ----------------
Dispersion correction           -0.048037768
-------------------------   ----------------


-------------------------   --------------------
FINAL SINGLE POINT ENERGY     -1033.501811324779
-------------------------   --------------------


                            ***************************************
                            *     ORCA property calculations      *
                            ***************************************


  WARNING: The energy has been calculated at the MP2 level but the densities
           used in the property calculations are still SCF densities
           MP2 response densities have not been calculated 
           use %mp2 Density relaxed end
           or  %mp2 Density unrelaxed end

                                    ---------------------
                                    Active property flags
                                    ---------------------
   (+) Dipole Moment


------------------------------------------------------------------------------
                       ORCA ELECTRIC PROPERTIES CALCULATION
------------------------------------------------------------------------------

Dipole Moment Calculation                       ... on
Quadrupole Moment Calculation                   ... off
Polarizability Calculation                      ... off
GBWName                                         ... NCE_1_M06L_def2TZVP_coords.gbw
Electron density                                ... NCE_1_M06L_def2TZVP_coords.scfp
The origin for moment calculation is the CENTER OF MASS  = (-0.028125, -0.036766 -0.001229)

-------------
DIPOLE MOMENT
-------------
                                X             Y             Z
Electronic contribution:     -5.28891      -3.63905      -0.15015
Nuclear contribution   :      4.72501       6.17663       0.20653
                        -----------------------------------------
Total Dipole Moment    :     -0.56391       2.53758       0.05638
                        -----------------------------------------
Magnitude (a.u.)       :      2.60010
Magnitude (Debye)      :      6.60892



--------------------
Rotational spectrum 
--------------------
 
Rotational constants in cm-1:     0.011605     0.006121     0.004181 
Rotational constants in MHz :   347.917303   183.508149   125.354082 

 Dipole components along the rotational axes: 
x,y,z [a.u.] :    -0.537128     2.543416     0.055036 
x,y,z [Debye]:    -1.365271     6.464850     0.139891 

 

Timings for individual modules:

Sum of individual times         ...     2490.484 sec (=  41.508 min)
GTO integral calculation        ...        2.360 sec (=   0.039 min)   0.1 %
SCF iterations                  ...      176.090 sec (=   2.935 min)   7.1 %
MP2 module                      ...      140.728 sec (=   2.345 min)   5.7 %
CIS module                      ...     2171.306 sec (=  36.188 min)  87.2 %
                             ****ORCA TERMINATED NORMALLY****
TOTAL RUN TIME: 0 days 0 hours 41 minutes 32 seconds 911 msec
