
                                 *****************
                                 * O   R   C   A *
                                 *****************

                                            #,                                       
                                            ###                                      
                                            ####                                     
                                            #####                                    
                                            ######                                   
                                           ########,                                 
                                     ,,################,,,,,                         
                               ,,#################################,,                 
                          ,,##########################################,,             
                       ,#########################################, ''#####,          
                    ,#############################################,,   '####,        
                  ,##################################################,,,,####,       
                ,###########''''           ''''###############################       
              ,#####''   ,,,,##########,,,,          '''####'''          '####       
            ,##' ,,,,###########################,,,                        '##       
           ' ,,###''''                  '''############,,,                           
         ,,##''                                '''############,,,,        ,,,,,,###''
      ,#''                                            '''#######################'''  
     '                                                          ''''####''''         
             ,#######,   #######,   ,#######,      ##                                
            ,#'     '#,  ##    ##  ,#'     '#,    #''#        ######   ,####,        
            ##       ##  ##   ,#'  ##            #'  '#       #        #'  '#        
            ##       ##  #######   ##           ,######,      #####,   #    #        
            '#,     ,#'  ##    ##  '#,     ,#' ,#      #,         ##   #,  ,#        
             '#######'   ##     ##  '#######'  #'      '#     #####' # '####'        



                  #######################################################
                  #                        -***-                        #
                  #          Department of theory and spectroscopy      #
                  #    Directorship and core code : Frank Neese         #
                  #        Max Planck Institute fuer Kohlenforschung    #
                  #                Kaiser Wilhelm Platz 1               #
                  #                 D-45470 Muelheim/Ruhr               #
                  #                      Germany                        #
                  #                                                     #
                  #                  All rights reserved                #
                  #                        -***-                        #
                  #######################################################


                         Program Version 5.0.2 -  RELEASE  -


 With contributions from (in alphabetic order):
   Daniel Aravena         : Magnetic Suceptibility
   Michael Atanasov       : Ab Initio Ligand Field Theory (pilot matlab implementation)
   Alexander A. Auer      : GIAO ZORA, VPT2 properties, NMR spectrum
   Ute Becker             : Parallelization
   Giovanni Bistoni       : ED, misc. LED, open-shell LED, HFLD
   Martin Brehm           : Molecular dynamics
   Dmytro Bykov           : SCF Hessian
   Vijay G. Chilkuri      : MRCI spin determinant printing, contributions to CSF-ICE
   Dipayan Datta          : RHF DLPNO-CCSD density
   Achintya Kumar Dutta   : EOM-CC, STEOM-CC
   Dmitry Ganyushin       : Spin-Orbit,Spin-Spin,Magnetic field MRCI
   Miquel Garcia          : C-PCM and meta-GGA Hessian, CC/C-PCM, Gaussian charge scheme
   Yang Guo               : DLPNO-NEVPT2, F12-NEVPT2, CIM, IAO-localization
   Andreas Hansen         : Spin unrestricted coupled pair/coupled cluster methods
   Benjamin Helmich-Paris : MC-RPA, TRAH-SCF, COSX integrals
   Lee Huntington         : MR-EOM, pCC
   Robert Izsak           : Overlap fitted RIJCOSX, COSX-SCS-MP3, EOM
   Marcus Kettner         : VPT2
   Christian Kollmar      : KDIIS, OOCD, Brueckner-CCSD(T), CCSD density, CASPT2, CASPT2-K
   Simone Kossmann        : Meta GGA functionals, TD-DFT gradient, OOMP2, MP2 Hessian
   Martin Krupicka        : Initial AUTO-CI
   Lucas Lang             : DCDCAS
   Marvin Lechner         : AUTO-CI (C++ implementation), FIC-MRCC
   Dagmar Lenk            : GEPOL surface, SMD
   Dimitrios Liakos       : Extrapolation schemes; Compound Job, initial MDCI parallelization
   Dimitrios Manganas     : Further ROCIS development; embedding schemes
   Dimitrios Pantazis     : SARC Basis sets
   Anastasios Papadopoulos: AUTO-CI, single reference methods and gradients
   Taras Petrenko         : DFT Hessian,TD-DFT gradient, ASA, ECA, R-Raman, ABS, FL, XAS/XES, NRVS
   Peter Pinski           : DLPNO-MP2, DLPNO-MP2 Gradient
   Christoph Reimann      : Effective Core Potentials
   Marius Retegan         : Local ZFS, SOC
   Christoph Riplinger    : Optimizer, TS searches, QM/MM, DLPNO-CCSD(T), (RO)-DLPNO pert. Triples
   Tobias Risthaus        : Range-separated hybrids, TD-DFT gradient, RPA, STAB
   Michael Roemelt        : Original ROCIS implementation
   Masaaki Saitow         : Open-shell DLPNO-CCSD energy and density
   Barbara Sandhoefer     : DKH picture change effects
   Avijit Sen             : IP-ROCIS
   Kantharuban Sivalingam : CASSCF convergence, NEVPT2, FIC-MRCI
   Bernardo de Souza      : ESD, SOC TD-DFT
   Georgi Stoychev        : AutoAux, RI-MP2 NMR, DLPNO-MP2 response
   Willem Van den Heuvel  : Paramagnetic NMR
   Boris Wezisla          : Elementary symmetry handling
   Frank Wennmohs         : Technical directorship


 We gratefully acknowledge several colleagues who have allowed us to
 interface, adapt or use parts of their codes:
   Stefan Grimme, W. Hujo, H. Kruse, P. Pracht,  : VdW corrections, initial TS optimization,
                  C. Bannwarth, S. Ehlert          DFT functionals, gCP, sTDA/sTD-DF
   Ed Valeev, F. Pavosevic, A. Kumar             : LibInt (2-el integral package), F12 methods
   Garnet Chan, S. Sharma, J. Yang, R. Olivares  : DMRG
   Ulf Ekstrom                                   : XCFun DFT Library
   Mihaly Kallay                                 : mrcc  (arbitrary order and MRCC methods)
   Jiri Pittner, Ondrej Demel                    : Mk-CCSD
   Frank Weinhold                                : gennbo (NPA and NBO analysis)
   Christopher J. Cramer and Donald G. Truhlar   : smd solvation model
   Lars Goerigk                                  : TD-DFT with DH, B97 family of functionals
   V. Asgeirsson, H. Jonsson                     : NEB implementation
   FAccTs GmbH                                   : IRC, NEB, NEB-TS, DLPNO-Multilevel, CI-OPT
                                                   MM, QMMM, 2- and 3-layer-ONIOM, Crystal-QMMM,
                                                   LR-CPCM, SF, NACMEs, symmetry and pop. for TD-DFT,
                                                   nearIR, NL-DFT gradient (VV10), updates on ESD,
                                                   ML-optimized integration grids
   S Lehtola, MJT Oliveira, MAL Marques          : LibXC Library
   Liviu Ungur et al                             : ANISO software


 Your calculation uses the libint2 library for the computation of 2-el integrals
 For citations please refer to: http://libint.valeyev.net

 Your ORCA version has been built with support for libXC version: 5.1.0
 For citations please refer to: https://tddft.org/programs/libxc/

 This ORCA versions uses:
   CBLAS   interface :  Fast vector & matrix operations
   LAPACKE interface :  Fast linear algebra routines
   SCALAPACK package :  Parallel linear algebra routines
   Shared memory     :  Shared parallel matrices
   BLAS/LAPACK       :  OpenBLAS 0.3.15  USE64BITINT DYNAMIC_ARCH NO_AFFINITY Zen SINGLE_THREADED
        Core in use  :  Zen
   Copyright (c) 2011-2014, The OpenBLAS Project


Your calculation utilizes the atom-pairwise dispersion correction
with the Becke-Johnson damping scheme (D3BJ)
Cite in your paper:
S.Grimme, S.Ehrlich, L.Goerigk, J Comput Chem, (2011), 32, 1456–1465 
S.Grimme, J.Antony, S.Ehrlich and H.Krieg, J.Chem.Phys., 132, (2010), 154104 
   

Your calculation utilizes the SMD solvation module
Please cite in your paper:
A.V. Marenich, C.J. Cramer, D.G. Truhlar J. Phys. Chem. B, 113, (2009), 6378 

================================================================================

----- Orbital basis set information -----
Your calculation utilizes the basis: def2-TZVP
   F. Weigend and R. Ahlrichs, Phys. Chem. Chem. Phys. 7, 3297 (2005).

----- AuxJ basis set information -----
Your calculation utilizes the auxiliary basis: def2/J
   F. Weigend, Phys. Chem. Chem. Phys. 8, 1057 (2006).

----- AuxC basis set information -----
Your calculation utilizes the auxiliary basis: def2-TZVP/C
  H-La, Hf-Rn : A. Hellweg, C. Hattig, S. Hofener and W. Klopper, Theor. Chem. Acc. 117, 587 (2007).
        Ce-Lu : J. Chmela and M. E. Harding, Mol. Phys. (2018).

================================================================================
                                        WARNINGS
                       Please study these warnings very carefully!
================================================================================

INFO   : Checking CIS options ...
  ===> : (D) CORRECTION FOUND - SETTING MODE=3
  ===> : JK MODE FOUND - ACTIVATING RI-MP2 CODE
  ===> : MP2 AND CIS FOUND - CHECKING
WARNING: CIS(D) and MP2 runs must have the same orbital window
  ===> : adjusting orbital windows

WARNING: No MP2 level density has been requested!
         To caclulate MP2 level properties use
         %mp2 Density relaxed end
         or
         %mp2 Density unrelaxed end
         Otherwise for double-hybrid DFT only the energy is correct!

WARNING: There are different parametrizations of Gershom Martin's DSD-DFs
         for use with and without D3(BJ)!
         You are using the D3(BJ) parametrized version,
         consistent with the GMTKN55 benchmark (L. Goerigk et al., PCCP 2017, 19, 32184)

WARNING: The frozen-core approximation is turned on by default for 
         the MP2 part of double-hybrid DFT.

WARNING: CIS/ROCIS methods need fully converged wavefunctions
  ===> : Setting SCFConvForced true
         You can overwrite this default with %scf ConvForced false 


INFO   : the flag for use of the SHARK integral package has been found!

================================================================================
                                       INPUT FILE
================================================================================
NAME = NCE_1_M06L_def2TZVP_coords.inp
|  1> %maxcore 12800
|  2> %pal
|  3>  nprocs= 8
|  4> end
|  5> ! RI-DSD-BLYP D3BJ def2-TZVP def2/J def2-TZVP/C RIJCOSX CPCM TightSCF
|  6> %TDDFT DCORR 4
|  7>    NROOTS   30
|  8> 
|  9>    TDA      FALSE
| 10> END
| 11> 
| 12> %CPCM
| 13>    SMD          TRUE
| 14>    SMDsolvent   "ACETONITRILE"
| 15> END
| 16>    
| 17> 
| 18> * xyz 0 1
| 19> C                   1.88629500    4.20967500    0.00975300
| 20> C                   0.58312800    3.79831200    0.00210500
| 21> C                   0.25769100    2.42219400   -0.00134700
| 22> C                   1.30920500    1.45669500    0.00107500
| 23> C                   2.64691800    1.92250500    0.01243900
| 24> C                   2.92695500    3.26158300    0.01602800
| 25> C                  -1.07371400    1.98976500   -0.00338400
| 26> C                   0.98468200    0.07504500   -0.00581700
| 27> C                  -0.35228100   -0.31916500   -0.01347600
| 28> C                  -1.40159000    0.65276500   -0.00694200
| 29> C                  -2.78227100    0.19662400   -0.00248100
| 30> C                  -3.03132000   -1.17416000   -0.00726700
| 31> C                  -0.68796500   -1.74830700   -0.03892000
| 32> H                  -1.84891700    2.74447200   -0.00088500
| 33> H                   2.12316200    5.26611500    0.01239500
| 34> H                  -0.22628700    4.51846200   -0.00072200
| 35> H                   3.45640600    1.20471800    0.01849500
| 36> H                   3.95616700    3.59676900    0.02445700
| 37> C                   2.11411600   -0.89034300    0.00271100
| 38> C                   2.72559400   -1.27145900   -1.18861100
| 39> C                   2.62603400   -1.36512600    1.20739000
| 40> C                   3.80945300   -2.13635800   -1.17698700
| 41> H                   2.34182200   -0.89323000   -2.12894300
| 42> C                   3.71094200   -2.22830500    1.21828200
| 43> H                   2.16267700   -1.06177500    2.13897800
| 44> C                   4.30390800   -2.62059300    0.02608700
| 45> H                   4.27114100   -2.43019900   -2.11161500
| 46> H                   4.09560600   -2.59412600    2.16233200
| 47> H                   5.15107000   -3.29480400    0.03504000
| 48> O                   0.08459400   -2.67312200   -0.07461200
| 49> O                  -2.01530000   -2.08680800   -0.02449300
| 50> C                  -3.89782100    1.04425400    0.01055500
| 51> C                  -4.31611200   -1.69787100    0.00165800
| 52> C                  -5.39467800   -0.83571300    0.01492800
| 53> H                  -6.40094900   -1.23393300    0.02187300
| 54> C                  -5.18255600    0.54027400    0.01893300
| 55> H                  -6.02502100    1.21919700    0.02905900
| 56> H                  -3.75312400    2.11601700    0.01476600
| 57> H                  -4.44577800   -2.77198100   -0.00265200
| 58> *
| 59> 
| 60> 
| 61>                          ****END OF INPUT****
================================================================================

                       ****************************
                       * Single Point Calculation *
                       ****************************

---------------------------------
CARTESIAN COORDINATES (ANGSTROEM)
---------------------------------
  C      1.886295    4.209675    0.009753
  C      0.583128    3.798312    0.002105
  C      0.257691    2.422194   -0.001347
  C      1.309205    1.456695    0.001075
  C      2.646918    1.922505    0.012439
  C      2.926955    3.261583    0.016028
  C     -1.073714    1.989765   -0.003384
  C      0.984682    0.075045   -0.005817
  C     -0.352281   -0.319165   -0.013476
  C     -1.401590    0.652765   -0.006942
  C     -2.782271    0.196624   -0.002481
  C     -3.031320   -1.174160   -0.007267
  C     -0.687965   -1.748307   -0.038920
  H     -1.848917    2.744472   -0.000885
  H      2.123162    5.266115    0.012395
  H     -0.226287    4.518462   -0.000722
  H      3.456406    1.204718    0.018495
  H      3.956167    3.596769    0.024457
  C      2.114116   -0.890343    0.002711
  C      2.725594   -1.271459   -1.188611
  C      2.626034   -1.365126    1.207390
  C      3.809453   -2.136358   -1.176987
  H      2.341822   -0.893230   -2.128943
  C      3.710942   -2.228305    1.218282
  H      2.162677   -1.061775    2.138978
  C      4.303908   -2.620593    0.026087
  H      4.271141   -2.430199   -2.111615
  H      4.095606   -2.594126    2.162332
  H      5.151070   -3.294804    0.035040
  O      0.084594   -2.673122   -0.074612
  O     -2.015300   -2.086808   -0.024493
  C     -3.897821    1.044254    0.010555
  C     -4.316112   -1.697871    0.001658
  C     -5.394678   -0.835713    0.014928
  H     -6.400949   -1.233933    0.021873
  C     -5.182556    0.540274    0.018933
  H     -6.025021    1.219197    0.029059
  H     -3.753124    2.116017    0.014766
  H     -4.445778   -2.771981   -0.002652

----------------------------
CARTESIAN COORDINATES (A.U.)
----------------------------
  NO LB      ZA    FRAG     MASS         X           Y           Z
   0 C     6.0000    0    12.011    3.564581    7.955133    0.018430
   1 C     6.0000    0    12.011    1.101952    7.177769    0.003978
   2 C     6.0000    0    12.011    0.486965    4.577283   -0.002545
   3 C     6.0000    0    12.011    2.474039    2.752755    0.002031
   4 C     6.0000    0    12.011    5.001950    3.633008    0.023506
   5 C     6.0000    0    12.011    5.531143    6.163499    0.030289
   6 C     6.0000    0    12.011   -2.029025    3.760111   -0.006395
   7 C     6.0000    0    12.011    1.860779    0.141814   -0.010993
   8 C     6.0000    0    12.011   -0.665715   -0.603134   -0.025466
   9 C     6.0000    0    12.011   -2.648621    1.233547   -0.013118
  10 C     6.0000    0    12.011   -5.257730    0.371566   -0.004688
  11 C     6.0000    0    12.011   -5.728365   -2.218841   -0.013733
  12 C     6.0000    0    12.011   -1.300065   -3.303821   -0.073548
  13 H     1.0000    0     1.008   -3.493947    5.186300   -0.001672
  14 H     1.0000    0     1.008    4.012195    9.951515    0.023423
  15 H     1.0000    0     1.008   -0.427620    8.538656   -0.001364
  16 H     1.0000    0     1.008    6.531661    2.276587    0.034950
  17 H     1.0000    0     1.008    7.476072    6.796908    0.046217
  18 C     6.0000    0    12.011    3.995100   -1.682504    0.005123
  19 C     6.0000    0    12.011    5.150626   -2.402709   -2.246149
  20 C     6.0000    0    12.011    4.962485   -2.579714    2.281636
  21 C     6.0000    0    12.011    7.198823   -4.037132   -2.224183
  22 H     1.0000    0     1.008    4.425402   -1.687960   -4.023119
  23 C     6.0000    0    12.011    7.012664   -4.210886    2.302219
  24 H     1.0000    0     1.008    4.086867   -2.006464    4.042083
  25 C     6.0000    0    12.011    8.133207   -4.952203    0.049297
  26 H     1.0000    0     1.008    8.071287   -4.592411   -3.990374
  27 H     1.0000    0     1.008    7.739574   -4.902188    4.086215
  28 H     1.0000    0     1.008    9.734112   -6.226277    0.066216
  29 O     8.0000    0    15.999    0.159859   -5.051469   -0.140996
  30 O     8.0000    0    15.999   -3.808365   -3.943496   -0.046285
  31 C     6.0000    0    12.011   -7.365814    1.973354    0.019946
  32 C     6.0000    0    12.011   -8.156270   -3.208511    0.003133
  33 C     6.0000    0    12.011  -10.194464   -1.579269    0.028210
  34 H     1.0000    0     1.008  -12.096041   -2.331795    0.041334
  35 C     6.0000    0    12.011   -9.793612    1.020970    0.035778
  36 H     1.0000    0     1.008  -11.385640    2.303948    0.054914
  37 H     1.0000    0     1.008   -7.092377    3.998693    0.027904
  38 H     1.0000    0     1.008   -8.401303   -5.238285   -0.005012

--------------------------------
INTERNAL COORDINATES (ANGSTROEM)
--------------------------------
 C      0   0   0     0.000000000000     0.00000000     0.00000000
 C      1   0   0     1.366573173878     0.00000000     0.00000000
 C      2   1   0     1.414079880062   120.82469085     0.00000000
 C      3   2   1     1.427541900359   119.25232000   359.89981226
 C      4   3   2     1.416539504202   118.24291716     0.25479541
 C      5   4   3     1.368050983105   121.01084696   359.76251016
 C      3   2   1     1.399870802408   121.29883448   179.72259167
 C      4   3   2     1.419267205178   119.33907165   180.15905176
 C      8   4   3     1.393890328451   119.64736610   359.93598611
 C      7   3   2     1.376620619757   121.77232527   179.99044994
 C     10   7   3     1.454085463844   122.06025617   179.69348552
 C     11  10   7     1.393232602566   118.57857264   179.96494920
 C      9   8   4     1.468256789923   119.64760172   179.17761652
 H      7   3   2     1.081909696813   117.77385291   359.91951772
 H      1   2   3     1.082671893721   120.15674637   180.00386023
 H      2   1   3     1.083409736274   120.82126580   179.95432194
 H      5   4   3     1.081908348544   119.23863789   179.75318745
 H      6   5   4     1.082450018976   119.85109147   180.01779804
 C      8   4   3     1.485822290075   117.30158278   180.24580534
 C     19   8   4     1.392265368967   120.45068604   274.66048038
 C     19   8   4     1.392383003650   120.39682770    90.86700070
 C     20  19   8     1.386699581545   120.45365049   177.75072872
 H     20  19   8     1.083772298340   119.43038049   357.20571814
 C     21  19   8     1.386442205852   120.44993610   182.34095609
 H     21  19   8     1.083779378100   119.41073825     2.94045885
 C     22  20  19     1.387932394508   120.22009836   359.36071694
 H     22  20  19     1.083064098292   119.68075025   179.56211646
 H     24  21  19     1.083061309177   119.67342611   180.32738764
 H     26  22  20     1.082739157403   120.20919889   180.08595951
 O     13   9   8     1.205572109652   126.91890158   358.82686168
 O     12  11  10     1.365840308155   121.63453537   359.57988229
 C     11  10   7     1.401106118999   124.48917426   359.75881917
 C     12  11  10     1.387459314867   122.47186086   179.74525548
 C     33  12  11     1.380868250855   119.18767357     0.04303508
 H     34  33  12     1.082223972598   119.77398276   179.99400518
 C     32  11  10     1.380076103521   121.35367786   180.23547530
 H     36  32  11     1.082028766729   119.71793362   179.99345778
 H     32  11  10     1.081494744554   119.54052713     0.19865402
 H     33  12  11     1.081916882092   119.05776485   180.00194426

---------------------------
INTERNAL COORDINATES (A.U.)
---------------------------
 C      0   0   0     0.000000000000     0.00000000     0.00000000
 C      1   0   0     2.582449040592     0.00000000     0.00000000
 C      2   1   0     2.672223704806   120.82469085     0.00000000
 C      3   2   1     2.697663236376   119.25232000   359.89981226
 C      4   3   2     2.676871720822   118.24291716     0.25479541
 C      5   4   3     2.585241695310   121.01084696   359.76251016
 C      3   2   1     2.645372439424   121.29883448   179.72259167
 C      4   3   2     2.682026328642   119.33907165   180.15905176
 C      8   4   3     2.634070981494   119.64736610   359.93598611
 C      7   3   2     2.601435961650   121.77232527   179.99044994
 C     10   7   3     2.747823301981   122.06025617   179.69348552
 C     11  10   7     2.632828059700   118.57857264   179.96494920
 C      9   8   4     2.774603227225   119.64760172   179.17761652
 H      7   3   2     2.044513028611   117.77385291   359.91951772
 H      1   2   3     2.045953372026   120.15674637   180.00386023
 H      2   1   3     2.047347692382   120.82126580   179.95432194
 H      5   4   3     2.044510480751   119.23863789   179.75318745
 H      6   5   4     2.045534089522   119.85109147   180.01779804
 C      8   4   3     2.807797211918   117.30158278   180.24580534
 C     19   8   4     2.631000253090   120.45068604   274.66048038
 C     19   8   4     2.631222550426   120.39682770    90.86700070
 C     20  19   8     2.620482439144   120.45365049   177.75072872
 H     20  19   8     2.048032835393   119.43038049   357.20571814
 C     21  19   8     2.619996069571   120.44993610   182.34095609
 H     21  19   8     2.048046214200   119.41073825     2.94045885
 C     22  20  19     2.622812118019   120.22009836   359.36071694
 H     22  20  19     2.046694531254   119.68075025   179.56211646
 H     24  21  19     2.046689260591   119.67342611   180.32738764
 H     26  22  20     2.046080481965   120.20919889   180.08595951
 O     13   9   8     2.278201121935   126.91890158   358.82686168
 O     12  11  10     2.581064125083   121.63453537   359.57988229
 C     11  10   7     2.647706849469   124.48917426   359.75881917
 C     12  11  10     2.621918127056   122.47186086   179.74525548
 C     33  12  11     2.609462821143   119.18767357     0.04303508
 H     34  33  12     2.045106923775   119.77398276   179.99400518
 C     32  11  10     2.607965879623   121.35367786   180.23547530
 H     36  32  11     2.044738038143   119.71793362   179.99345778
 H     32  11  10     2.043728882483   119.54052713     0.19865402
 H     33  12  11     2.044526606820   119.05776485   180.00194426

---------------------
BASIS SET INFORMATION
---------------------
There are 3 groups of distinct atoms

 Group   1 Type C   : 11s6p2d1f contracted to 5s3p2d1f pattern {62111/411/11/1}
 Group   2 Type H   : 5s1p contracted to 3s1p pattern {311/1}
 Group   3 Type O   : 11s6p2d1f contracted to 5s3p2d1f pattern {62111/411/11/1}

Atom   0C    basis set group =>   1
Atom   1C    basis set group =>   1
Atom   2C    basis set group =>   1
Atom   3C    basis set group =>   1
Atom   4C    basis set group =>   1
Atom   5C    basis set group =>   1
Atom   6C    basis set group =>   1
Atom   7C    basis set group =>   1
Atom   8C    basis set group =>   1
Atom   9C    basis set group =>   1
Atom  10C    basis set group =>   1
Atom  11C    basis set group =>   1
Atom  12C    basis set group =>   1
Atom  13H    basis set group =>   2
Atom  14H    basis set group =>   2
Atom  15H    basis set group =>   2
Atom  16H    basis set group =>   2
Atom  17H    basis set group =>   2
Atom  18C    basis set group =>   1
Atom  19C    basis set group =>   1
Atom  20C    basis set group =>   1
Atom  21C    basis set group =>   1
Atom  22H    basis set group =>   2
Atom  23C    basis set group =>   1
Atom  24H    basis set group =>   2
Atom  25C    basis set group =>   1
Atom  26H    basis set group =>   2
Atom  27H    basis set group =>   2
Atom  28H    basis set group =>   2
Atom  29O    basis set group =>   3
Atom  30O    basis set group =>   3
Atom  31C    basis set group =>   1
Atom  32C    basis set group =>   1
Atom  33C    basis set group =>   1
Atom  34H    basis set group =>   2
Atom  35C    basis set group =>   1
Atom  36H    basis set group =>   2
Atom  37H    basis set group =>   2
Atom  38H    basis set group =>   2
---------------------------------
AUXILIARY/J BASIS SET INFORMATION
---------------------------------
There are 3 groups of distinct atoms

 Group   1 Type C   : 12s5p4d2f1g contracted to 6s4p3d1f1g pattern {711111/2111/211/2/1}
 Group   2 Type H   : 5s2p1d contracted to 3s1p1d pattern {311/2/1}
 Group   3 Type O   : 12s5p4d2f1g contracted to 6s4p3d1f1g pattern {711111/2111/211/2/1}

Atom   0C    basis set group =>   1
Atom   1C    basis set group =>   1
Atom   2C    basis set group =>   1
Atom   3C    basis set group =>   1
Atom   4C    basis set group =>   1
Atom   5C    basis set group =>   1
Atom   6C    basis set group =>   1
Atom   7C    basis set group =>   1
Atom   8C    basis set group =>   1
Atom   9C    basis set group =>   1
Atom  10C    basis set group =>   1
Atom  11C    basis set group =>   1
Atom  12C    basis set group =>   1
Atom  13H    basis set group =>   2
Atom  14H    basis set group =>   2
Atom  15H    basis set group =>   2
Atom  16H    basis set group =>   2
Atom  17H    basis set group =>   2
Atom  18C    basis set group =>   1
Atom  19C    basis set group =>   1
Atom  20C    basis set group =>   1
Atom  21C    basis set group =>   1
Atom  22H    basis set group =>   2
Atom  23C    basis set group =>   1
Atom  24H    basis set group =>   2
Atom  25C    basis set group =>   1
Atom  26H    basis set group =>   2
Atom  27H    basis set group =>   2
Atom  28H    basis set group =>   2
Atom  29O    basis set group =>   3
Atom  30O    basis set group =>   3
Atom  31C    basis set group =>   1
Atom  32C    basis set group =>   1
Atom  33C    basis set group =>   1
Atom  34H    basis set group =>   2
Atom  35C    basis set group =>   1
Atom  36H    basis set group =>   2
Atom  37H    basis set group =>   2
Atom  38H    basis set group =>   2
---------------------------------
AUXILIARY/C BASIS SET INFORMATION
---------------------------------
There are 3 groups of distinct atoms

 Group   1 Type C   : 8s6p5d3f1g contracted to 8s6p4d3f1g pattern {11111111/111111/2111/111/1}
 Group   2 Type H   : 4s3p2d contracted to 4s2p1d pattern {1111/21/2}
 Group   3 Type O   : 8s6p5d3f1g contracted to 8s6p4d3f1g pattern {11111111/111111/2111/111/1}

Atom   0C    basis set group =>   1
Atom   1C    basis set group =>   1
Atom   2C    basis set group =>   1
Atom   3C    basis set group =>   1
Atom   4C    basis set group =>   1
Atom   5C    basis set group =>   1
Atom   6C    basis set group =>   1
Atom   7C    basis set group =>   1
Atom   8C    basis set group =>   1
Atom   9C    basis set group =>   1
Atom  10C    basis set group =>   1
Atom  11C    basis set group =>   1
Atom  12C    basis set group =>   1
Atom  13H    basis set group =>   2
Atom  14H    basis set group =>   2
Atom  15H    basis set group =>   2
Atom  16H    basis set group =>   2
Atom  17H    basis set group =>   2
Atom  18C    basis set group =>   1
Atom  19C    basis set group =>   1
Atom  20C    basis set group =>   1
Atom  21C    basis set group =>   1
Atom  22H    basis set group =>   2
Atom  23C    basis set group =>   1
Atom  24H    basis set group =>   2
Atom  25C    basis set group =>   1
Atom  26H    basis set group =>   2
Atom  27H    basis set group =>   2
Atom  28H    basis set group =>   2
Atom  29O    basis set group =>   3
Atom  30O    basis set group =>   3
Atom  31C    basis set group =>   1
Atom  32C    basis set group =>   1
Atom  33C    basis set group =>   1
Atom  34H    basis set group =>   2
Atom  35C    basis set group =>   1
Atom  36H    basis set group =>   2
Atom  37H    basis set group =>   2
Atom  38H    basis set group =>   2


           ************************************************************
           *        Program running with 8 parallel MPI-processes     *
           *              working on a common directory               *
           ************************************************************
------------------------------------------------------------------------------
                           ORCA GTO INTEGRAL CALCULATION
                           -- RI-GTO INTEGRALS CHOSEN --
------------------------------------------------------------------------------
------------------------------------------------------------------------------
                   ___                                                        
                  /   \      - P O W E R E D   B Y -                         
                 /     \                                                     
                 |  |  |   _    _      __       _____    __    __             
                 |  |  |  | |  | |    /  \     |  _  \  |  |  /  |          
                  \  \/   | |  | |   /    \    | | | |  |  | /  /          
                 / \  \   | |__| |  /  /\  \   | |_| |  |  |/  /          
                |  |  |   |  __  | /  /__\  \  |    /   |      \           
                |  |  |   | |  | | |   __   |  |    \   |  |\   \          
                \     /   | |  | | |  |  |  |  | |\  \  |  | \   \       
                 \___/    |_|  |_| |__|  |__|  |_| \__\ |__|  \__/        
                                                                              
                      - O R C A' S   B I G   F R I E N D -                    
                                      &                                       
                       - I N T E G R A L  F E E D E R -                       
                                                                              
 v1 FN, 2020, v2 2021                                                         
------------------------------------------------------------------------------


Reading SHARK input file NCE_1_M06L_def2TZVP_coords.SHARKINP.tmp ... ok
----------------------
SHARK INTEGRAL PACKAGE
----------------------

Number of atoms                             ...     39
Number of basis functions                   ...    859
Number of shells                            ...    331
Maximum angular momentum                    ...      3
Integral batch strategy                     ... SHARK/LIBINT Hybrid
RI-J (if used) integral strategy            ... SPLIT-RIJ (Revised 2003 algorithm where possible)
Printlevel                                  ...      1
Contraction scheme used                     ... SEGMENTED contraction
Coulomb Range Separation                    ... NOT USED
Exchange Range Separation                   ... NOT USED
Finite Nucleus Model                        ... NOT USED
Auxiliary Coulomb fitting basis             ... AVAILABLE
   # of basis functions in Aux-J            ...   1379
   # of shells in Aux-J                     ...    445
   Maximum angular momentum in Aux-J        ...      4
Auxiliary J/K fitting basis                 ... NOT available
Auxiliary Correlation fitting basis         ... AVAILABLE
   # of basis functions in Aux-C            ...   2110
   # of shells in Aux-C                     ...    648
   Maximum angular momentum in Aux-C        ...      4
Auxiliary 'external' fitting basis          ... NOT available
Integral threshold                          ...     2.500000e-11
Primitive cut-off                           ...     2.500000e-12
Primitive pair pre-selection threshold      ...     2.500000e-12

Calculating pre-screening integrals         ... done (  0.1 sec) Dimension = 331
Organizing shell pair data                  ... done (  0.3 sec)
Shell pair information
Total number of shell pairs                 ...     54946
Shell pairs after pre-screening             ...     38493
Total number of primitive shell pairs       ...    171412
Primitive shell pairs kept                  ...     79235
          la=0 lb=0:   9219 shell pairs
          la=1 lb=0:  10919 shell pairs
          la=1 lb=1:   3206 shell pairs
          la=2 lb=0:   5621 shell pairs
          la=2 lb=1:   3361 shell pairs
          la=2 lb=2:    892 shell pairs
          la=3 lb=0:   2642 shell pairs
          la=3 lb=1:   1604 shell pairs
          la=3 lb=2:    820 shell pairs
          la=3 lb=3:    209 shell pairs

Calculating one electron integrals          ... done (  0.0 sec)
Calculating RI/J V-Matrix + Cholesky decomp.... done (  0.1 sec)
Calculating RI/C V-Matrix + Cholesky decomp.... done (  0.1 sec)
Calculating Nuclear repulsion               ... done (  0.0 sec) ENN=   1988.929685490817 Eh

SHARK setup successfully completed in   1.0 seconds

Maximum memory used throughout the entire GTOINT-calculation: 63.1 MB


           ************************************************************
           *        Program running with 8 parallel MPI-processes     *
           *              working on a common directory               *
           ************************************************************
-------------------------------------------------------------------------------
                                 ORCA SCF
-------------------------------------------------------------------------------

------------
SCF SETTINGS
------------
Hamiltonian:
 Density Functional     Method          .... DFT(GTOs)
 Exchange Functional    Exchange        .... B88
   X-Alpha parameter    XAlpha          ....  0.666667
   Becke's b parameter  XBeta           ....  0.004200
 Correlation Functional Correlation     .... LYP
 LDA part of GGA corr.  LDAOpt          .... VWN-5
 Gradients option       PostSCFGGA      .... off
 Hybrid DFT is turned on
   Fraction HF Exchange ScalHFX         ....  0.690000
   Scaling of DF-GGA-X  ScalDFX         ....  0.310000
   Scaling of DF-GGA-C  ScalDFC         ....  0.540000
   Scaling of DF-LDA-C  ScalLDAC        ....  0.540000
   Perturbative correction              ....  1.000000
   Density functional embedding theory  .... OFF
   NL short-range parameter             .... 12.000000
 RI-approximation to the Coulomb term is turned on
   Number of AuxJ basis functions       .... 1379
   RIJ-COSX (HFX calculated with COS-X)).... on


General Settings:
 Integral files         IntName         .... NCE_1_M06L_def2TZVP_coords
 Hartree-Fock type      HFTyp           .... RHF
 Total Charge           Charge          ....    0
 Multiplicity           Mult            ....    1
 Number of Electrons    NEL             ....  168
 Basis Dimension        Dim             ....  859
 Nuclear Repulsion      ENuc            ....   1988.9296854908 Eh

Convergence Acceleration:
 DIIS                   CNVDIIS         .... on
   Start iteration      DIISMaxIt       ....    12
   Startup error        DIISStart       ....  0.200000
   # of expansion vecs  DIISMaxEq       ....     5
   Bias factor          DIISBfac        ....   1.050
   Max. coefficient     DIISMaxC        ....  10.000
 Trust-Rad. Augm. Hess. CNVTRAH         .... auto
   Auto Start mean grad. ratio tolernc. ....  1.125000
   Auto Start start iteration           ....    20
   Auto Start num. interpolation iter.  ....    10
   Max. Number of Micro iterations      ....    16
   Max. Number of Macro iterations      .... Maxiter - #DIIS iter
   Number of Davidson start vectors     ....     2
   Converg. threshold I  (grad. norm)   ....   1.000e-05
   Converg. threshold II (energy diff.) ....   1.000e-08
   Grad. Scal. Fac. for Micro threshold ....   0.100
   Minimum threshold for Micro iter.    ....   0.010
   NR start threshold (gradient norm)   ....   0.001
   Initial trust radius                 ....   0.400
   Minimum AH scaling param. (alpha)    ....   1.000
   Maximum AH scaling param. (alpha)    .... 1000.000
   Orbital update algorithm             .... Taylor
   White noise on init. David. guess    .... on
   Maximum white noise                  ....   0.010
   Quad. conv. algorithm                .... NR
 SOSCF                  CNVSOSCF        .... on
   Start iteration      SOSCFMaxIt      ....   150
   Startup grad/error   SOSCFStart      ....  0.003300
 Level Shifting         CNVShift        .... on
   Level shift para.    LevelShift      ....    0.2500
   Turn off err/grad.   ShiftErr        ....    0.0010
 Zerner damping         CNVZerner       .... off
 Static damping         CNVDamp         .... on
   Fraction old density DampFac         ....    0.7000
   Max. Damping (<1)    DampMax         ....    0.9800
   Min. Damping (>=0)   DampMin         ....    0.0000
   Turn off err/grad.   DampErr         ....    0.1000
 Fernandez-Rico         CNVRico         .... off

SCF Procedure:
 Maximum # iterations   MaxIter         ....   125
 SCF integral mode      SCFMode         .... Direct
   Integral package                     .... SHARK and LIBINT hybrid scheme
 Reset frequency        DirectResetFreq ....    20
 Integral Threshold     Thresh          ....  2.500e-11 Eh
 Primitive CutOff       TCut            ....  2.500e-12 Eh

Convergence Tolerance:
 Convergence Check Mode ConvCheckMode   .... Total+1el-Energy
 Convergence forced     ConvForced      .... 1
 Energy Change          TolE            ....  1.000e-08 Eh
 1-El. energy change                    ....  1.000e-05 Eh
 Orbital Gradient       TolG            ....  1.000e-05
 Orbital Rotation angle TolX            ....  1.000e-05
 DIIS Error             TolErr          ....  5.000e-07


Diagonalization of the overlap matrix:
Smallest eigenvalue                        ... 2.651e-06
Time for diagonalization                   ...    0.135 sec
Threshold for overlap eigenvalues          ... 1.000e-08
Number of eigenvalues below threshold      ... 0
Time for construction of square roots      ...    0.119 sec
Total time needed                          ...    0.257 sec

Time for model grid setup =    0.220 sec

------------------------------
INITIAL GUESS: MODEL POTENTIAL
------------------------------
Loading Hartree-Fock densities                     ... done
Calculating cut-offs                               ... done
Initializing the effective Hamiltonian             ... done
Setting up the integral package (SHARK)            ... done
Starting the Coulomb interaction                   ... done (   0.4 sec)
Reading the grid                                   ... done
Mapping shells                                     ... done
Starting the XC term evaluation                    ... done (   0.2 sec)
  promolecular density results
     # of electrons  =    168.006293716
     EX              =   -138.935626523
     EC              =     -0.745082049
     EX+EC           =   -139.680708572
Transforming the Hamiltonian                       ... done (   0.1 sec)
Diagonalizing the Hamiltonian                      ... done (   0.1 sec)
Back transforming the eigenvectors                 ... done (   0.0 sec)
Now organizing SCF variables                       ... done
                      ------------------
                      INITIAL GUESS DONE (   1.1 sec)
                      ------------------
-------------------
DFT GRID GENERATION
-------------------

General Integration Accuracy     IntAcc      ... 4.388
Radial Grid Type                 RadialGrid  ... OptM3 with GC (2021)
Angular Grid (max. ang.)         AngularGrid ... 4 (Lebedev-302)
Angular grid pruning method      GridPruning ... 4 (adaptive)
Weight generation scheme         WeightScheme... Becke
Basis function cutoff            BFCut       ... 1.0000e-11
Integration weight cutoff        WCut        ... 1.0000e-14
Angular grids for H and He will be reduced by one unit
Partially contracted basis set               ... off
Rotationally invariant grid construction     ... off

Total number of grid points                  ...   193523
Total number of batches                      ...     3043
Average number of points per batch           ...       63
Average number of grid points per atom       ...     4962
Time for grid setup =    1.011 sec

--------------------
COSX GRID GENERATION
--------------------

GRIDX 1
-------
General Integration Accuracy     IntAcc      ... 3.816
Radial Grid Type                 RadialGrid  ... OptM3 with GC (2021)
Angular Grid (max. ang.)         AngularGrid ... 1 (Lebedev-50)
Angular grid pruning method      GridPruning ... 4 (adaptive)
Weight generation scheme         WeightScheme... Becke
Basis function cutoff            BFCut       ... 1.0000e-11
Integration weight cutoff        WCut        ... 1.0000e-14
Angular grids for H and He will be reduced by one unit
Partially contracted basis set               ... on
Rotationally invariant grid construction     ... off

Total number of grid points                  ...    24576
Total number of batches                      ...      403
Average number of points per batch           ...       60
Average number of grid points per atom       ...      630
UseSFitting                                  ... on

GRIDX 2
-------
General Integration Accuracy     IntAcc      ... 4.020
Radial Grid Type                 RadialGrid  ... OptM3 with GC (2021)
Angular Grid (max. ang.)         AngularGrid ... 2 (Lebedev-110)
Angular grid pruning method      GridPruning ... 4 (adaptive)
Weight generation scheme         WeightScheme... Becke
Basis function cutoff            BFCut       ... 1.0000e-11
Integration weight cutoff        WCut        ... 1.0000e-14
Angular grids for H and He will be reduced by one unit
Partially contracted basis set               ... on
Rotationally invariant grid construction     ... off

Total number of grid points                  ...    54060
Total number of batches                      ...      865
Average number of points per batch           ...       62
Average number of grid points per atom       ...     1386
UseSFitting                                  ... on

GRIDX 3
-------
General Integration Accuracy     IntAcc      ... 4.338
Radial Grid Type                 RadialGrid  ... OptM3 with GC (2021)
Angular Grid (max. ang.)         AngularGrid ... 3 (Lebedev-194)
Angular grid pruning method      GridPruning ... 4 (adaptive)
Weight generation scheme         WeightScheme... Becke
Basis function cutoff            BFCut       ... 1.0000e-11
Integration weight cutoff        WCut        ... 1.0000e-14
Angular grids for H and He will be reduced by one unit
Partially contracted basis set               ... on
Rotationally invariant grid construction     ... off

Total number of grid points                  ...   118402
Total number of batches                      ...     1869
Average number of points per batch           ...       63
Average number of grid points per atom       ...     3036
UseSFitting                                  ... on

Time for X-Grid setup             =    1.268 sec


--------------------
CPCM SOLVATION MODEL
--------------------
CPCM parameters:
  Epsilon                                         ...      35.6880
  Refrac                                          ...       1.3442
  Rsolv                                           ...       1.3000
  Surface type                                    ... GAUSSIAN VDW
  Epsilon function type                           ...         CPCM
Solvent:                                     ... ACETONITRILE
SMD-CDS solvent descriptors:
  Soln                                       ...    1.3442
  Soln25                                     ...    1.3416
  Sola                                       ...    0.0700
  Solb                                       ...    0.3200
  Solg                                       ...   41.2500
  Solc                                       ...    0.0000
  Solh                                       ...    0.0000
Radii:
 Radius for C  used is    3.4960 Bohr (=   1.8500 Ang.)
 Radius for H  used is    2.2677 Bohr (=   1.2000 Ang.)
 Radius for O  used is    4.0969 Bohr (=   2.1680 Ang.)
Calculating surface                               ...        done! (  0.0s)
GEPOL surface points                              ...         2134
GEPOL Volume                                      ...    2264.3160
GEPOL Surface-area                                ...    1179.5978
Calculating surface distance matrix               ...        done! (  0.0s)
Performing Cholesky decomposition & store         ...        done! (  0.1s)
Overall time for CPCM initialization              ...                 0.2s
--------------
SCF ITERATIONS
--------------
ITER       Energy         Delta-E        Max-DP      RMS-DP      [F,P]     Damp
               ***  Starting incremental Fock matrix formation  ***
  0  -1031.7494544134   0.000000000000 0.08523942  0.00077333  0.3006513 0.7000
  1  -1032.0041236609  -0.254669247455 0.08401403  0.00066500  0.1591277 0.7000
                               ***Turning on DIIS***
  2  -1032.1471907565  -0.143067095628 0.14772973  0.00138239  0.0732742 0.0000
  3  -1032.4086188500  -0.261428093451 0.08316648  0.00054867  0.0607214 0.0000
  4  -1032.4318068215  -0.023187971484 0.02406872  0.00016154  0.0158670 0.0000
  5  -1032.4328767927  -0.001069971279 0.01999063  0.00010993  0.0099219 0.0000
                      *** Initiating the SOSCF procedure ***
                           *** Shutting down DIIS ***
                      *** Re-Reading the Fockian *** 
                      *** Removing any level shift *** 
ITER      Energy       Delta-E        Grad      Rot      Max-DP    RMS-DP
  6  -1032.43311103  -0.0002342383  0.000796  0.000796  0.005702  0.000036
               *** Restarting incremental Fock matrix formation ***
  7  -1032.43293336   0.0001776716  0.000461  0.001227  0.026792  0.000241
  8  -1032.43295128  -0.0000179235  0.000229  0.001504  0.009304  0.000083
  9  -1032.43295492  -0.0000036381  0.000107  0.000235  0.008140  0.000070
 10  -1032.43295595  -0.0000010327  0.000027  0.000081  0.000751  0.000008
 11  -1032.43295598  -0.0000000278  0.000017  0.000059  0.000363  0.000004
 12  -1032.43295603  -0.0000000493  0.000006  0.000048  0.000362  0.000003
 13  -1032.43295603   0.0000000057  0.000003  0.000025  0.000179  0.000002
                  ***Gradient check signals convergence***
              ***Rediagonalizing the Fockian in SOSCF/NRSCF***

               *****************************************************
               *                     SUCCESS                       *
               *           SCF CONVERGED AFTER  14 CYCLES          *
               *****************************************************

Old exchange energy                            =    -97.343107316 Eh
New exchange energy                            =    -97.343210694 Eh
Exchange energy change after final integration =     -0.000103377 Eh
Total energy after final integration           =  -1032.433059457 Eh
Final COS-X integration done in                =    24.346 sec

SMD CDS free energy correction energy :                -5.76887     Kcal/mol
Total Energy after SMD CDS correction =             -1032.442252735 Eh

----------------
TOTAL SCF ENERGY
----------------

Total Energy       :        -1032.44225274 Eh          -28094.18198 eV

Components:
Nuclear Repulsion  :         1988.92968549 Eh           54121.52823 eV
Electronic Energy  :        -3021.37193823 Eh          -82215.71021 eV
One Electron Energy:        -5354.55470543 Eh         -145704.84103 eV
Two Electron Energy:         2333.18276721 Eh           63489.13082 eV
Max COSX asymmetry :            0.00000902 Eh               0.00025 eV
CPCM Dielectric    :           -0.02638269 Eh              -0.71791 eV
SMD CDS (Gcds)     :           -0.00919328 Eh              -0.25016 eV

Virial components:
Potential Energy   :        -2062.11546704 Eh          -56113.01459 eV
Kinetic Energy     :         1029.67321431 Eh           28018.83261 eV
Virial Ratio       :            2.00268924


DFT components:
N(Alpha)           :       84.000089333539 electrons
N(Beta)            :       84.000089333539 electrons
N(Total)           :      168.000178667077 electrons
E(X)               :      -43.807509579741 Eh       
E(C)               :       -3.114294657620 Eh       
E(XC)              :      -46.921804237362 Eh       
DFET-embed. en.    :        0.000000000000 Eh       
CPCM Solvation Model Properties:
Surface-charge          :           -0.06003717
Charge-correction       :            0.00008795 Eh               0.00239 eV
Free-energy (cav+disp)  :           -0.00919328 Eh              -0.25016 eV

---------------
SCF CONVERGENCE
---------------

  Last Energy change         ...   -5.4878e-08  Tolerance :   1.0000e-08
  Last MAX-Density change    ...    2.4425e-15  Tolerance :   1.0000e-07
  Last RMS-Density change    ...    1.3239e-17  Tolerance :   5.0000e-09
  Last Orbital Gradient      ...    9.2282e-07  Tolerance :   1.0000e-05
  Last Orbital Rotation      ...    4.7107e-06  Tolerance :   1.0000e-05

             **** THE GBW FILE WAS UPDATED (NCE_1_M06L_def2TZVP_coords.gbw) ****
             **** DENSITY NCE_1_M06L_def2TZVP_coords.scfp WAS UPDATED ****
             **** ENERGY FILE WAS UPDATED (NCE_1_M06L_def2TZVP_coords.en.tmp) ****
             **** THE GBW FILE WAS UPDATED (NCE_1_M06L_def2TZVP_coords.gbw) ****
             **** DENSITY NCE_1_M06L_def2TZVP_coords.scfp WAS UPDATED ****
----------------
ORBITAL ENERGIES
----------------

  NO   OCC          E(Eh)            E(eV) 
   0   2.0000     -20.074570      -546.2568 
   1   2.0000     -19.996930      -544.1441 
   2   2.0000     -10.982903      -298.8600 
   3   2.0000     -10.906042      -296.7685 
   4   2.0000     -10.868218      -295.7393 
   5   2.0000     -10.861181      -295.5477 
   6   2.0000     -10.858541      -295.4759 
   7   2.0000     -10.850649      -295.2612 
   8   2.0000     -10.848856      -295.2124 
   9   2.0000     -10.848172      -295.1938 
  10   2.0000     -10.839749      -294.9646 
  11   2.0000     -10.837130      -294.8933 
  12   2.0000     -10.835562      -294.8506 
  13   2.0000     -10.834976      -294.8347 
  14   2.0000     -10.834498      -294.8217 
  15   2.0000     -10.833755      -294.8015 
  16   2.0000     -10.831775      -294.7476 
  17   2.0000     -10.831616      -294.7433 
  18   2.0000     -10.830605      -294.7157 
  19   2.0000     -10.827591      -294.6337 
  20   2.0000     -10.825493      -294.5766 
  21   2.0000     -10.825294      -294.5712 
  22   2.0000     -10.824141      -294.5399 
  23   2.0000     -10.824031      -294.5368 
  24   2.0000     -10.823270      -294.5162 
  25   2.0000      -1.345492       -36.6127 
  26   2.0000      -1.248266       -33.9671 
  27   2.0000      -1.088583       -29.6219 
  28   2.0000      -1.057286       -28.7702 
  29   2.0000      -1.045505       -28.4496 
  30   2.0000      -1.023605       -27.8537 
  31   2.0000      -0.979854       -26.6632 
  32   2.0000      -0.950826       -25.8733 
  33   2.0000      -0.929477       -25.2924 
  34   2.0000      -0.921325       -25.0705 
  35   2.0000      -0.915840       -24.9213 
  36   2.0000      -0.913239       -24.8505 
  37   2.0000      -0.880519       -23.9602 
  38   2.0000      -0.825257       -22.4564 
  39   2.0000      -0.794893       -21.6301 
  40   2.0000      -0.779934       -21.2231 
  41   2.0000      -0.758559       -20.6414 
  42   2.0000      -0.748719       -20.3737 
  43   2.0000      -0.742902       -20.2154 
  44   2.0000      -0.706965       -19.2375 
  45   2.0000      -0.700611       -19.0646 
  46   2.0000      -0.684962       -18.6388 
  47   2.0000      -0.646658       -17.5965 
  48   2.0000      -0.642246       -17.4764 
  49   2.0000      -0.622188       -16.9306 
  50   2.0000      -0.603142       -16.4123 
  51   2.0000      -0.597885       -16.2693 
  52   2.0000      -0.591952       -16.1078 
  53   2.0000      -0.581247       -15.8165 
  54   2.0000      -0.571430       -15.5494 
  55   2.0000      -0.567667       -15.4470 
  56   2.0000      -0.564843       -15.3702 
  57   2.0000      -0.554435       -15.0869 
  58   2.0000      -0.543137       -14.7795 
  59   2.0000      -0.540358       -14.7039 
  60   2.0000      -0.530068       -14.4239 
  61   2.0000      -0.523249       -14.2383 
  62   2.0000      -0.521579       -14.1929 
  63   2.0000      -0.500450       -13.6179 
  64   2.0000      -0.497009       -13.5243 
  65   2.0000      -0.494414       -13.4537 
  66   2.0000      -0.487886       -13.2761 
  67   2.0000      -0.465842       -12.6762 
  68   2.0000      -0.459321       -12.4988 
  69   2.0000      -0.454736       -12.3740 
  70   2.0000      -0.449004       -12.2180 
  71   2.0000      -0.446123       -12.1396 
  72   2.0000      -0.437271       -11.8987 
  73   2.0000      -0.435762       -11.8577 
  74   2.0000      -0.420355       -11.4384 
  75   2.0000      -0.414803       -11.2874 
  76   2.0000      -0.396530       -10.7901 
  77   2.0000      -0.364972        -9.9314 
  78   2.0000      -0.338754        -9.2180 
  79   2.0000      -0.311352        -8.4723 
  80   2.0000      -0.305526        -8.3138 
  81   2.0000      -0.300596        -8.1796 
  82   2.0000      -0.296483        -8.0677 
  83   2.0000      -0.259886        -7.0719 
  84   0.0000      -0.001063        -0.0289 
  85   0.0000       0.013616         0.3705 
  86   0.0000       0.063360         1.7241 
  87   0.0000       0.069259         1.8846 
  88   0.0000       0.072255         1.9662 
  89   0.0000       0.083710         2.2779 
  90   0.0000       0.102562         2.7908 
  91   0.0000       0.115759         3.1499 
  92   0.0000       0.125025         3.4021 
  93   0.0000       0.130123         3.5408 
  94   0.0000       0.135042         3.6747 
  95   0.0000       0.135904         3.6981 
  96   0.0000       0.139615         3.7991 
  97   0.0000       0.150079         4.0838 
  98   0.0000       0.153731         4.1832 
  99   0.0000       0.156426         4.2566 
 100   0.0000       0.165192         4.4951 
 101   0.0000       0.171549         4.6681 
 102   0.0000       0.178053         4.8451 
 103   0.0000       0.181122         4.9286 
 104   0.0000       0.181691         4.9441 
 105   0.0000       0.187836         5.1113 
 106   0.0000       0.196499         5.3470 
 107   0.0000       0.200571         5.4578 
 108   0.0000       0.209925         5.7124 
 109   0.0000       0.215925         5.8756 
 110   0.0000       0.230828         6.2811 
 111   0.0000       0.238858         6.4996 
 112   0.0000       0.240797         6.5524 
 113   0.0000       0.245283         6.6745 
 114   0.0000       0.251867         6.8536 
 115   0.0000       0.258615         7.0373 
 116   0.0000       0.266338         7.2474 
 117   0.0000       0.267872         7.2892 
 118   0.0000       0.271206         7.3799 
 119   0.0000       0.275460         7.4956 
 120   0.0000       0.281054         7.6479 
 121   0.0000       0.282759         7.6943 
 122   0.0000       0.286908         7.8072 
 123   0.0000       0.288542         7.8516 
 124   0.0000       0.292940         7.9713 
 125   0.0000       0.294422         8.0116 
 126   0.0000       0.298972         8.1354 
 127   0.0000       0.303219         8.2510 
 128   0.0000       0.307260         8.3610 
 129   0.0000       0.313185         8.5222 
 130   0.0000       0.318456         8.6656 
 131   0.0000       0.325303         8.8519 
 132   0.0000       0.326408         8.8820 
 133   0.0000       0.327525         8.9124 
 134   0.0000       0.337577         9.1859 
 135   0.0000       0.341013         9.2794 
 136   0.0000       0.342903         9.3309 
 137   0.0000       0.350986         9.5508 
 138   0.0000       0.353015         9.6060 
 139   0.0000       0.353973         9.6321 
 140   0.0000       0.359746         9.7892 
 141   0.0000       0.361902         9.8479 
 142   0.0000       0.367698        10.0056 
 143   0.0000       0.371488        10.1087 
 144   0.0000       0.377142        10.2626 
 145   0.0000       0.380151        10.3444 
 146   0.0000       0.391660        10.6576 
 147   0.0000       0.393026        10.6948 
 148   0.0000       0.397937        10.8284 
 149   0.0000       0.401495        10.9252 
 150   0.0000       0.410534        11.1712 
 151   0.0000       0.418801        11.3962 
 152   0.0000       0.420181        11.4337 
 153   0.0000       0.427568        11.6347 
 154   0.0000       0.431689        11.7468 
 155   0.0000       0.434775        11.8308 
 156   0.0000       0.438421        11.9300 
 157   0.0000       0.439903        11.9704 
 158   0.0000       0.441292        12.0082 
 159   0.0000       0.452313        12.3080 
 160   0.0000       0.456050        12.4097 
 161   0.0000       0.457732        12.4555 
 162   0.0000       0.464653        12.6439 
 163   0.0000       0.467379        12.7180 
 164   0.0000       0.469818        12.7844 
 165   0.0000       0.477023        12.9805 
 166   0.0000       0.483277        13.1506 
 167   0.0000       0.486813        13.2469 
 168   0.0000       0.491300        13.3689 
 169   0.0000       0.492062        13.3897 
 170   0.0000       0.495971        13.4961 
 171   0.0000       0.500541        13.6204 
 172   0.0000       0.503212        13.6931 
 173   0.0000       0.504285        13.7223 
 174   0.0000       0.508310        13.8318 
 175   0.0000       0.514229        13.9929 
 176   0.0000       0.514577        14.0024 
 177   0.0000       0.519701        14.1418 
 178   0.0000       0.522141        14.2082 
 179   0.0000       0.527022        14.3410 
 180   0.0000       0.532959        14.5025 
 181   0.0000       0.537483        14.6257 
 182   0.0000       0.541384        14.7318 
 183   0.0000       0.549366        14.9490 
 184   0.0000       0.551746        15.0138 
 185   0.0000       0.556779        15.1507 
 186   0.0000       0.560669        15.2566 
 187   0.0000       0.568259        15.4631 
 188   0.0000       0.571563        15.5530 
 189   0.0000       0.575329        15.6555 
 190   0.0000       0.590235        16.0611 
 191   0.0000       0.591636        16.0992 
 192   0.0000       0.592610        16.1257 
 193   0.0000       0.599397        16.3104 
 194   0.0000       0.601742        16.3742 
 195   0.0000       0.605708        16.4822 
 196   0.0000       0.608198        16.5499 
 197   0.0000       0.615042        16.7362 
 198   0.0000       0.618501        16.8303 
 199   0.0000       0.620535        16.8856 
 200   0.0000       0.625038        17.0081 
 201   0.0000       0.628232        17.0951 
 202   0.0000       0.634383        17.2624 
 203   0.0000       0.641246        17.4492 
 204   0.0000       0.653917        17.7940 
 205   0.0000       0.668299        18.1853 
 206   0.0000       0.669726        18.2242 
 207   0.0000       0.672137        18.2898 
 208   0.0000       0.681302        18.5392 
 209   0.0000       0.689948        18.7744 
 210   0.0000       0.701238        19.0816 
 211   0.0000       0.705673        19.2023 
 212   0.0000       0.714804        19.4508 
 213   0.0000       0.723320        19.6825 
 214   0.0000       0.734518        19.9873 
 215   0.0000       0.740390        20.1470 
 216   0.0000       0.743983        20.2448 
 217   0.0000       0.748287        20.3619 
 218   0.0000       0.753213        20.4960 
 219   0.0000       0.759351        20.6630 
 220   0.0000       0.763164        20.7667 
 221   0.0000       0.764952        20.8154 
 222   0.0000       0.774967        21.0879 
 223   0.0000       0.781707        21.2713 
 224   0.0000       0.783591        21.3226 
 225   0.0000       0.785353        21.3705 
 226   0.0000       0.787618        21.4322 
 227   0.0000       0.792736        21.5714 
 228   0.0000       0.797129        21.6910 
 229   0.0000       0.802335        21.8326 
 230   0.0000       0.808147        21.9908 
 231   0.0000       0.813693        22.1417 
 232   0.0000       0.818792        22.2805 
 233   0.0000       0.826824        22.4990 
 234   0.0000       0.829575        22.5739 
 235   0.0000       0.832652        22.6576 
 236   0.0000       0.839564        22.8457 
 237   0.0000       0.841240        22.8913 
 238   0.0000       0.846487        23.0341 
 239   0.0000       0.847678        23.0665 
 240   0.0000       0.850964        23.1559 
 241   0.0000       0.857900        23.3446 
 242   0.0000       0.861084        23.4313 
 243   0.0000       0.870210        23.6796 
 244   0.0000       0.876578        23.8529 
 245   0.0000       0.878830        23.9142 
 246   0.0000       0.882741        24.0206 
 247   0.0000       0.888944        24.1894 
 248   0.0000       0.894704        24.3461 
 249   0.0000       0.898727        24.4556 
 250   0.0000       0.908563        24.7233 
 251   0.0000       0.913896        24.8684 
 252   0.0000       0.915674        24.9167 
 253   0.0000       0.922601        25.1052 
 254   0.0000       0.925185        25.1756 
 255   0.0000       0.928330        25.2611 
 256   0.0000       0.932344        25.3704 
 257   0.0000       0.947141        25.7730 
 258   0.0000       0.951861        25.9014 
 259   0.0000       0.959934        26.1211 
 260   0.0000       0.966015        26.2866 
 261   0.0000       0.968634        26.3579 
 262   0.0000       0.977541        26.6002 
 263   0.0000       0.981630        26.7115 
 264   0.0000       0.986705        26.8496 
 265   0.0000       0.988087        26.8872 
 266   0.0000       0.996189        27.1077 
 267   0.0000       0.997741        27.1499 
 268   0.0000       0.999110        27.1872 
 269   0.0000       1.005829        27.3700 
 270   0.0000       1.021178        27.7877 
 271   0.0000       1.023162        27.8416 
 272   0.0000       1.027892        27.9704 
 273   0.0000       1.032762        28.1029 
 274   0.0000       1.038465        28.2581 
 275   0.0000       1.042013        28.3546 
 276   0.0000       1.055650        28.7257 
 277   0.0000       1.061488        28.8846 
 278   0.0000       1.076470        29.2922 
 279   0.0000       1.078830        29.3565 
 280   0.0000       1.086361        29.5614 
 281   0.0000       1.087021        29.5794 
 282   0.0000       1.110791        30.2262 
 283   0.0000       1.125006        30.6130 
 284   0.0000       1.128345        30.7038 
 285   0.0000       1.132857        30.8266 
 286   0.0000       1.145359        31.1668 
 287   0.0000       1.153028        31.3755 
 288   0.0000       1.155751        31.4496 
 289   0.0000       1.168602        31.7993 
 290   0.0000       1.169641        31.8276 
 291   0.0000       1.182645        32.1814 
 292   0.0000       1.199873        32.6502 
 293   0.0000       1.207709        32.8634 
 294   0.0000       1.214174        33.0393 
 295   0.0000       1.217903        33.1408 
 296   0.0000       1.226877        33.3850 
 297   0.0000       1.238885        33.7118 
 298   0.0000       1.255159        34.1546 
 299   0.0000       1.260934        34.3117 
 300   0.0000       1.266126        34.4530 
 301   0.0000       1.267561        34.4921 
 302   0.0000       1.270646        34.5760 
 303   0.0000       1.278299        34.7843 
 304   0.0000       1.291496        35.1434 
 305   0.0000       1.294310        35.2200 
 306   0.0000       1.308301        35.6007 
 307   0.0000       1.317903        35.8620 
 308   0.0000       1.323179        36.0055 
 309   0.0000       1.330998        36.2183 
 310   0.0000       1.336232        36.3607 
 311   0.0000       1.340831        36.4859 
 312   0.0000       1.358458        36.9655 
 313   0.0000       1.364414        37.1276 
 314   0.0000       1.368937        37.2507 
 315   0.0000       1.375385        37.4261 
 316   0.0000       1.376294        37.4509 
 317   0.0000       1.386573        37.7306 
 318   0.0000       1.391281        37.8587 
 319   0.0000       1.399964        38.0950 
 320   0.0000       1.401720        38.1427 
 321   0.0000       1.408744        38.3339 
 322   0.0000       1.411570        38.4108 
 323   0.0000       1.421220        38.6734 
 324   0.0000       1.428530        38.8723 
 325   0.0000       1.436319        39.0842 
 326   0.0000       1.449597        39.4455 
 327   0.0000       1.454118        39.5686 
 328   0.0000       1.455172        39.5972 
 329   0.0000       1.473005        40.0825 
 330   0.0000       1.478725        40.2382 
 331   0.0000       1.486317        40.4448 
 332   0.0000       1.493483        40.6398 
 333   0.0000       1.507795        41.0292 
 334   0.0000       1.510381        41.0996 
 335   0.0000       1.524974        41.4967 
 336   0.0000       1.527028        41.5525 
 337   0.0000       1.538346        41.8605 
 338   0.0000       1.550884        42.2017 
 339   0.0000       1.553449        42.2715 
 340   0.0000       1.570958        42.7479 
 341   0.0000       1.575637        42.8753 
 342   0.0000       1.578205        42.9452 
 343   0.0000       1.582623        43.0654 
 344   0.0000       1.589063        43.2406 
 345   0.0000       1.595775        43.4232 
 346   0.0000       1.601881        43.5894 
 347   0.0000       1.614380        43.9295 
 348   0.0000       1.619336        44.0644 
 349   0.0000       1.623515        44.1781 
 350   0.0000       1.638585        44.5882 
 351   0.0000       1.640412        44.6379 
 352   0.0000       1.641734        44.6738 
 353   0.0000       1.655752        45.0553 
 354   0.0000       1.658706        45.1357 
 355   0.0000       1.664493        45.2932 
 356   0.0000       1.669506        45.4296 
 357   0.0000       1.673961        45.5508 
 358   0.0000       1.679350        45.6974 
 359   0.0000       1.682561        45.7848 
 360   0.0000       1.689707        45.9793 
 361   0.0000       1.697871        46.2014 
 362   0.0000       1.700348        46.2688 
 363   0.0000       1.704067        46.3700 
 364   0.0000       1.719080        46.7785 
 365   0.0000       1.730585        47.0916 
 366   0.0000       1.733869        47.1810 
 367   0.0000       1.749071        47.5946 
 368   0.0000       1.750862        47.6434 
 369   0.0000       1.754399        47.7396 
 370   0.0000       1.772466        48.2312 
 371   0.0000       1.776351        48.3370 
 372   0.0000       1.779126        48.4125 
 373   0.0000       1.783140        48.5217 
 374   0.0000       1.788744        48.6742 
 375   0.0000       1.799119        48.9565 
 376   0.0000       1.815254        49.3956 
 377   0.0000       1.823032        49.6072 
 378   0.0000       1.824842        49.6565 
 379   0.0000       1.836644        49.9776 
 380   0.0000       1.839242        50.0483 
 381   0.0000       1.848251        50.2935 
 382   0.0000       1.854969        50.4763 
 383   0.0000       1.856846        50.5274 
 384   0.0000       1.859234        50.5923 
 385   0.0000       1.866813        50.7986 
 386   0.0000       1.873683        50.9855 
 387   0.0000       1.876418        51.0599 
 388   0.0000       1.882473        51.2247 
 389   0.0000       1.888065        51.3769 
 390   0.0000       1.896435        51.6046 
 391   0.0000       1.903983        51.8100 
 392   0.0000       1.908272        51.9267 
 393   0.0000       1.911584        52.0168 
 394   0.0000       1.914599        52.0989 
 395   0.0000       1.929055        52.4923 
 396   0.0000       1.933861        52.6230 
 397   0.0000       1.936871        52.7049 
 398   0.0000       1.937933        52.7338 
 399   0.0000       1.947664        52.9986 
 400   0.0000       1.955238        53.2047 
 401   0.0000       1.979867        53.8749 
 402   0.0000       1.989997        54.1506 
 403   0.0000       2.001848        54.4731 
 404   0.0000       2.009184        54.6727 
 405   0.0000       2.023353        55.0582 
 406   0.0000       2.031761        55.2870 
 407   0.0000       2.033168        55.3253 
 408   0.0000       2.044544        55.6349 
 409   0.0000       2.053945        55.8907 
 410   0.0000       2.067791        56.2674 
 411   0.0000       2.080258        56.6067 
 412   0.0000       2.092404        56.9372 
 413   0.0000       2.096784        57.0564 
 414   0.0000       2.107829        57.3570 
 415   0.0000       2.120598        57.7044 
 416   0.0000       2.122513        57.7565 
 417   0.0000       2.133214        58.0477 
 418   0.0000       2.150765        58.5253 
 419   0.0000       2.153900        58.6106 
 420   0.0000       2.163080        58.8604 
 421   0.0000       2.174081        59.1597 
 422   0.0000       2.178364        59.2763 
 423   0.0000       2.188349        59.5480 
 424   0.0000       2.196402        59.7671 
 425   0.0000       2.210977        60.1637 
 426   0.0000       2.217972        60.3541 
 427   0.0000       2.230173        60.6861 
 428   0.0000       2.238498        60.9126 
 429   0.0000       2.257983        61.4429 
 430   0.0000       2.268495        61.7289 
 431   0.0000       2.286810        62.2273 
 432   0.0000       2.288421        62.2711 
 433   0.0000       2.296371        62.4874 
 434   0.0000       2.298799        62.5535 
 435   0.0000       2.305333        62.7313 
 436   0.0000       2.311079        62.8877 
 437   0.0000       2.323496        63.2255 
 438   0.0000       2.333874        63.5079 
 439   0.0000       2.339227        63.6536 
 440   0.0000       2.344233        63.7898 
 441   0.0000       2.349113        63.9226 
 442   0.0000       2.350582        63.9626 
 443   0.0000       2.358188        64.1696 
 444   0.0000       2.366153        64.3863 
 445   0.0000       2.382900        64.8420 
 446   0.0000       2.387424        64.9651 
 447   0.0000       2.392257        65.0966 
 448   0.0000       2.399668        65.2983 
 449   0.0000       2.409172        65.5569 
 450   0.0000       2.413752        65.6815 
 451   0.0000       2.426800        66.0366 
 452   0.0000       2.437594        66.3303 
 453   0.0000       2.441998        66.4501 
 454   0.0000       2.452584        66.7382 
 455   0.0000       2.459256        66.9197 
 456   0.0000       2.472097        67.2692 
 457   0.0000       2.481167        67.5160 
 458   0.0000       2.488981        67.7286 
 459   0.0000       2.495784        67.9137 
 460   0.0000       2.511563        68.3431 
 461   0.0000       2.530129        68.8483 
 462   0.0000       2.535597        68.9971 
 463   0.0000       2.543526        69.2129 
 464   0.0000       2.558008        69.6069 
 465   0.0000       2.563500        69.7564 
 466   0.0000       2.567522        69.8658 
 467   0.0000       2.580724        70.2251 
 468   0.0000       2.612641        71.0936 
 469   0.0000       2.617089        71.2146 
 470   0.0000       2.619122        71.2699 
 471   0.0000       2.649006        72.0831 
 472   0.0000       2.658991        72.3548 
 473   0.0000       2.667342        72.5821 
 474   0.0000       2.678600        72.8884 
 475   0.0000       2.683625        73.0252 
 476   0.0000       2.696217        73.3678 
 477   0.0000       2.699051        73.4449 
 478   0.0000       2.712440        73.8092 
 479   0.0000       2.719407        73.9988 
 480   0.0000       2.721859        74.0656 
 481   0.0000       2.732710        74.3608 
 482   0.0000       2.734409        74.4071 
 483   0.0000       2.748028        74.7776 
 484   0.0000       2.759947        75.1020 
 485   0.0000       2.772690        75.4487 
 486   0.0000       2.776594        75.5550 
 487   0.0000       2.783926        75.7545 
 488   0.0000       2.796109        76.0860 
 489   0.0000       2.810472        76.4768 
 490   0.0000       2.812109        76.5214 
 491   0.0000       2.814149        76.5769 
 492   0.0000       2.821339        76.7725 
 493   0.0000       2.829110        76.9840 
 494   0.0000       2.837470        77.2115 
 495   0.0000       2.839469        77.2659 
 496   0.0000       2.843154        77.3661 
 497   0.0000       2.850713        77.5718 
 498   0.0000       2.855349        77.6980 
 499   0.0000       2.860065        77.8263 
 500   0.0000       2.865426        77.9722 
 501   0.0000       2.867541        78.0298 
 502   0.0000       2.871153        78.1281 
 503   0.0000       2.878674        78.3327 
 504   0.0000       2.880876        78.3926 
 505   0.0000       2.894015        78.7501 
 506   0.0000       2.897462        78.8440 
 507   0.0000       2.900487        78.9263 
 508   0.0000       2.901519        78.9543 
 509   0.0000       2.908828        79.1532 
 510   0.0000       2.918584        79.4187 
 511   0.0000       2.921166        79.4890 
 512   0.0000       2.928260        79.6820 
 513   0.0000       2.929140        79.7060 
 514   0.0000       2.939329        79.9832 
 515   0.0000       2.941569        80.0442 
 516   0.0000       2.953311        80.3637 
 517   0.0000       2.956928        80.4621 
 518   0.0000       2.959821        80.5408 
 519   0.0000       2.960935        80.5712 
 520   0.0000       2.972574        80.8879 
 521   0.0000       2.984900        81.2233 
 522   0.0000       2.987502        81.2941 
 523   0.0000       2.989234        81.3412 
 524   0.0000       2.991079        81.3914 
 525   0.0000       3.001037        81.6624 
 526   0.0000       3.004748        81.7633 
 527   0.0000       3.008657        81.8697 
 528   0.0000       3.014645        82.0327 
 529   0.0000       3.025693        82.3333 
 530   0.0000       3.027551        82.3838 
 531   0.0000       3.037333        82.6500 
 532   0.0000       3.040388        82.7332 
 533   0.0000       3.044875        82.8553 
 534   0.0000       3.046321        82.8946 
 535   0.0000       3.056545        83.1728 
 536   0.0000       3.057777        83.2063 
 537   0.0000       3.065085        83.4052 
 538   0.0000       3.073037        83.6216 
 539   0.0000       3.077438        83.7413 
 540   0.0000       3.081165        83.8428 
 541   0.0000       3.093005        84.1649 
 542   0.0000       3.093564        84.1802 
 543   0.0000       3.102608        84.4263 
 544   0.0000       3.104230        84.4704 
 545   0.0000       3.113150        84.7131 
 546   0.0000       3.120794        84.9211 
 547   0.0000       3.126842        85.0857 
 548   0.0000       3.129509        85.1583 
 549   0.0000       3.133002        85.2533 
 550   0.0000       3.143284        85.5331 
 551   0.0000       3.154344        85.8341 
 552   0.0000       3.158292        85.9415 
 553   0.0000       3.168183        86.2106 
 554   0.0000       3.170957        86.2861 
 555   0.0000       3.173705        86.3609 
 556   0.0000       3.175724        86.4158 
 557   0.0000       3.188577        86.7656 
 558   0.0000       3.198218        87.0279 
 559   0.0000       3.210004        87.3487 
 560   0.0000       3.217187        87.5441 
 561   0.0000       3.219353        87.6031 
 562   0.0000       3.222633        87.6923 
 563   0.0000       3.232658        87.9651 
 564   0.0000       3.241466        88.2048 
 565   0.0000       3.250690        88.4558 
 566   0.0000       3.253617        88.5354 
 567   0.0000       3.263656        88.8086 
 568   0.0000       3.277890        89.1959 
 569   0.0000       3.283204        89.3405 
 570   0.0000       3.288197        89.4764 
 571   0.0000       3.290741        89.5456 
 572   0.0000       3.299657        89.7882 
 573   0.0000       3.302013        89.8524 
 574   0.0000       3.310228        90.0759 
 575   0.0000       3.316698        90.2520 
 576   0.0000       3.319582        90.3304 
 577   0.0000       3.325017        90.4783 
 578   0.0000       3.335538        90.7646 
 579   0.0000       3.342902        90.9650 
 580   0.0000       3.345313        91.0306 
 581   0.0000       3.347587        91.0925 
 582   0.0000       3.350127        91.1616 
 583   0.0000       3.353545        91.2546 
 584   0.0000       3.365551        91.5813 
 585   0.0000       3.366760        91.6142 
 586   0.0000       3.376917        91.8906 
 587   0.0000       3.384836        92.1061 
 588   0.0000       3.385400        92.1214 
 589   0.0000       3.395737        92.4027 
 590   0.0000       3.400110        92.5217 
 591   0.0000       3.406782        92.7033 
 592   0.0000       3.412246        92.8519 
 593   0.0000       3.415649        92.9445 
 594   0.0000       3.418326        93.0174 
 595   0.0000       3.428897        93.3050 
 596   0.0000       3.436355        93.5080 
 597   0.0000       3.440277        93.6147 
 598   0.0000       3.448321        93.8336 
 599   0.0000       3.449860        93.8755 
 600   0.0000       3.466933        94.3400 
 601   0.0000       3.476608        94.6033 
 602   0.0000       3.482653        94.7678 
 603   0.0000       3.487004        94.8862 
 604   0.0000       3.489374        94.9507 
 605   0.0000       3.491960        95.0211 
 606   0.0000       3.498467        95.1981 
 607   0.0000       3.499932        95.2380 
 608   0.0000       3.516099        95.6779 
 609   0.0000       3.517280        95.7101 
 610   0.0000       3.521548        95.8262 
 611   0.0000       3.526051        95.9487 
 612   0.0000       3.533337        96.1470 
 613   0.0000       3.537075        96.2487 
 614   0.0000       3.540403        96.3393 
 615   0.0000       3.549452        96.5855 
 616   0.0000       3.550291        96.6083 
 617   0.0000       3.556173        96.7684 
 618   0.0000       3.564669        96.9996 
 619   0.0000       3.578155        97.3665 
 620   0.0000       3.581121        97.4473 
 621   0.0000       3.584177        97.5304 
 622   0.0000       3.588320        97.6432 
 623   0.0000       3.596447        97.8643 
 624   0.0000       3.610834        98.2558 
 625   0.0000       3.612975        98.3140 
 626   0.0000       3.613958        98.3408 
 627   0.0000       3.621385        98.5429 
 628   0.0000       3.624492        98.6274 
 629   0.0000       3.634157        98.8904 
 630   0.0000       3.637234        98.9742 
 631   0.0000       3.644188        99.1634 
 632   0.0000       3.648064        99.2689 
 633   0.0000       3.654595        99.4466 
 634   0.0000       3.662239        99.6546 
 635   0.0000       3.666791        99.7785 
 636   0.0000       3.672735        99.9402 
 637   0.0000       3.675077       100.0039 
 638   0.0000       3.677452       100.0686 
 639   0.0000       3.689351       100.3924 
 640   0.0000       3.693578       100.5074 
 641   0.0000       3.696465       100.5859 
 642   0.0000       3.705460       100.8307 
 643   0.0000       3.709056       100.9285 
[...]
    77a ->  85a  :     0.086252 
    77a ->  89a  :     0.016114 
    78a ->  84a  :     0.023376 
    78a ->  85a  :     0.220577 
    78a ->  90a  :     0.034138 
    79a ->  85a  :     0.010827 
    80a ->  84a  :     0.011658 
    82a ->  89a  :     0.062288 
    83a ->  86a  :     0.023238 
    83a ->  87a  :     0.021491 
    83a ->  88a  :     0.048984 
    83a ->  89a  :     0.056932 
    83a ->  90a  :     0.029079 

STATE 18:  E=   0.173531 au      4.722 eV    38085.6 cm**-1 <S**2> =   0.000000
    77a ->  84a  :     0.034207 
    77a ->  87a  :     0.023810 
    78a ->  84a  :     0.018466 
    79a ->  85a  :     0.036379 
    79a ->  88a  :     0.028454 
    80a ->  86a  :     0.038030 
    81a ->  87a  :     0.017207 
    82a ->  87a  :     0.037393 
    83a ->  87a  :     0.608709 
    83a ->  88a  :     0.046448 
    83a ->  89a  :     0.017120 

STATE 19:  E=   0.183141 au      4.984 eV    40194.9 cm**-1 <S**2> =   0.000000
    77a ->  84a  :     0.088884 
    77a ->  85a  :     0.021363 
    78a ->  84a  :     0.119865 
    78a ->  85a  :     0.027249 
    79a ->  85a  :     0.111824 
    79a ->  86a  :     0.011921 
    79a ->  88a  :     0.056423 
    80a ->  86a  :     0.078923 
    80a ->  88a  :     0.016842 
    80a ->  89a  :     0.010731 
    81a ->  87a  :     0.104633 
    83a ->  87a  :     0.210881 
    83a ->  90a  :     0.016795 

STATE 20:  E=   0.176673 au      4.808 eV    38775.2 cm**-1 <S**2> =   0.000000
    77a ->  84a  :     0.039540 
    77a ->  85a  :     0.027340 
    78a ->  84a  :     0.022526 
    78a ->  85a  :     0.151104 
    79a ->  85a  :     0.355928 
    79a ->  86a  :     0.017364 
    80a ->  84a  :     0.010110 
    80a ->  85a  :     0.052303 
    80a ->  86a  :     0.024520 
    80a ->  88a  :     0.073194 
    80a ->  89a  :     0.012311 
    80a ->  90a  :     0.010755 
    81a ->  87a  :     0.057815 
    82a ->  86a  :     0.014751 
    83a ->  86a  :     0.015984 
    83a ->  88a  :     0.024873 
    83a ->  89a  :     0.023265 

STATE 21:  E=   0.190813 au      5.192 eV    41878.6 cm**-1 <S**2> =   0.000000
    77a ->  85a  :     0.036393 
    78a ->  84a  :     0.019482 
    78a ->  85a  :     0.045412 
    79a ->  87a  :     0.140464 
    79a ->  88a  :     0.013489 
    80a ->  87a  :     0.038037 
    81a ->  85a  :     0.011624 
    81a ->  86a  :     0.051428 
    81a ->  88a  :     0.060363 
    81a ->  89a  :     0.017214 
    82a ->  86a  :     0.092241 
    83a ->  86a  :     0.091467 
    83a ->  88a  :     0.100880 
    83a ->  89a  :     0.161978 

STATE 22:  E=   0.201634 au      5.487 eV    44253.6 cm**-1 <S**2> =   0.000000
    77a ->  85a  :     0.046284 
    78a ->  84a  :     0.016110 
    78a ->  85a  :     0.040544 
    79a ->  87a  :     0.216158 
    80a ->  86a  :     0.011762 
    80a ->  87a  :     0.041973 
    81a ->  85a  :     0.032923 
    81a ->  86a  :     0.132510 
    81a ->  88a  :     0.130533 
    81a ->  89a  :     0.027039 
    82a ->  86a  :     0.038702 
    83a ->  86a  :     0.040324 
    83a ->  88a  :     0.033230 
    83a ->  89a  :     0.060482 

STATE 23:  E=   0.171777 au      4.674 eV    37700.7 cm**-1 <S**2> =   0.000000
    77a ->  84a  :     0.108585 
    77a ->  85a  :     0.156656 
    78a ->  84a  :     0.055716 
    78a ->  85a  :     0.029871 
    79a ->  85a  :     0.081642 
    80a ->  85a  :     0.020249 
    81a ->  87a  :     0.022967 
    82a ->  86a  :     0.037274 
    82a ->  89a  :     0.038825 
    82a ->  94a  :     0.020569 
    83a ->  86a  :     0.044531 
    83a ->  88a  :     0.122402 
    83a ->  89a  :     0.150608 

STATE 24:  E=   0.164099 au      4.465 eV    36015.7 cm**-1 <S**2> =   0.000000
    77a ->  84a  :     0.089251 
    78a ->  85a  :     0.085202 
    79a ->  85a  :     0.037703 
    79a ->  88a  :     0.013384 
    79a ->  89a  :     0.010458 
    80a ->  86a  :     0.031158 
    82a ->  85a  :     0.023850 
    83a ->  86a  :     0.010917 
    83a ->  89a  :     0.057539 
    83a ->  90a  :     0.530677 
    83a ->  94a  :     0.026449 

STATE 25:  E=   0.203876 au      5.548 eV    44745.6 cm**-1 <S**2> =   0.000000
    77a ->  84a  :     0.022867 
    78a ->  84a  :     0.010870 
    79a ->  85a  :     0.133748 
    79a ->  86a  :     0.153034 
    79a ->  88a  :     0.110781 
    79a ->  89a  :     0.054543 
    80a ->  85a  :     0.032995 
    80a ->  88a  :     0.087081 
    80a ->  89a  :     0.012960 
    81a ->  87a  :     0.178838 
    82a ->  85a  :     0.011165 
    82a ->  86a  :     0.045521 
    83a ->  89a  :     0.010766 
    83a ->  90a  :     0.039905 

STATE 26:  E=   0.189800 au      5.165 eV    41656.3 cm**-1 <S**2> =   0.000000
    65a ->  84a  :     0.013846 
    69a ->  84a  :     0.032450 
    70a ->  84a  :     0.017848 
    74a ->  84a  :     0.665356 
    76a ->  84a  :     0.030956 
    83a ->  91a  :     0.065407 
    83a ->  92a  :     0.010161 
    83a ->  95a  :     0.012068 
    83a ->  96a  :     0.012455 

STATE 27:  E=   0.186148 au      5.065 eV    40854.7 cm**-1 <S**2> =   0.000000
    75a ->  84a  :     0.011484 
    77a ->  85a  :     0.035293 
    77a ->  86a  :     0.022987 
    77a ->  88a  :     0.019643 
    78a ->  86a  :     0.027616 
    78a ->  88a  :     0.015103 
    79a ->  85a  :     0.019624 
    79a ->  89a  :     0.011475 
    80a ->  84a  :     0.014326 
    80a ->  85a  :     0.015598 
    80a ->  88a  :     0.016903 
    80a ->  89a  :     0.026544 
    82a ->  86a  :     0.132536 
    82a ->  88a  :     0.122073 
    82a ->  90a  :     0.027491 
    83a ->  86a  :     0.017587 
    83a ->  88a  :     0.079868 
    83a ->  90a  :     0.023801 
    83a ->  91a  :     0.090610 
    83a ->  94a  :     0.106286 
    83a ->  95a  :     0.029224 

STATE 28:  E=   0.228195 au      6.209 eV    50082.9 cm**-1 <S**2> =   0.000000
    74a ->  84a  :     0.083704 
    82a ->  86a  :     0.020608 
    82a ->  88a  :     0.023339 
    83a ->  88a  :     0.016959 
    83a ->  91a  :     0.451167 
    83a ->  92a  :     0.019399 
    83a ->  94a  :     0.025285 
    83a ->  95a  :     0.096636 
    83a ->  96a  :     0.041149 
    83a -> 101a  :     0.031618 

STATE 29:  E=   0.195319 au      5.315 eV    42867.5 cm**-1 <S**2> =   0.000000
    77a ->  84a  :     0.028106 
    77a ->  85a  :     0.284938 
    77a ->  90a  :     0.022365 
    78a ->  84a  :     0.011391 
    78a ->  85a  :     0.025425 
    78a ->  89a  :     0.013862 
    80a ->  90a  :     0.010732 
    82a ->  86a  :     0.032367 
    82a ->  87a  :     0.129195 
    82a ->  88a  :     0.051201 
    82a ->  89a  :     0.155161 
    82a ->  90a  :     0.080422 
    83a ->  90a  :     0.014927 

STATE 30:  E=   0.187500 au      5.102 eV    41151.5 cm**-1 <S**2> =   0.000000
    75a ->  87a  :     0.011543 
    77a ->  85a  :     0.031028 
    79a ->  87a  :     0.043743 
    82a ->  87a  :     0.663505 
    82a ->  88a  :     0.037610 
    82a ->  89a  :     0.049683 
    82a ->  90a  :     0.013041 
    83a ->  87a  :     0.040279 
    83a ->  92a  :     0.014662 


-------------------------
TD-DFT-EXCITATION SPECTRA
-------------------------

Center of mass = ( -0.0281, -0.0368, -0.0012)
Calculating the Dipole integrals                  ... done
Transforming integrals                            ... done
Calculating the Linear Momentum integrals         ... done
Transforming integrals                            ... done
Calculating angular momentum integrals            ... done
Transforming integrals                            ... done

-----------------------------------------------------------------------------
         ABSORPTION SPECTRUM VIA TRANSITION ELECTRIC DIPOLE MOMENTS
-----------------------------------------------------------------------------
State   Energy    Wavelength  fosc         T2        TX        TY        TZ  
        (cm-1)      (nm)                 (au**2)    (au)      (au)      (au) 
-----------------------------------------------------------------------------
   1   25820.3    387.3   0.073984065   0.94331   0.51999  -0.82030   0.00557
   2   28564.6    350.1   0.241547469   2.78387   1.48573   0.75924  -0.00549
   3   31945.7    313.0   0.930677518   9.59097   2.62232   1.64744   0.01787
   4   25301.9    395.2   0.003000731   0.03904  -0.11458  -0.15994   0.01823
   5   31037.7    322.2   0.110860368   1.17588   0.83787   0.68834   0.00624
   6   33651.3    297.2   0.363287636   3.55406   0.81242  -1.70117  -0.00697
   7   34424.6    290.5   0.001499808   0.01434  -0.06263   0.01039   0.10155
   8   36558.3    273.5   0.331099136   2.98159   1.37889   1.03934   0.00241
   9   39609.1    252.5   0.002544675   0.02115   0.13421  -0.01957  -0.05248
  10   40647.5    246.0   0.071932268   0.58259   0.01270  -0.76272  -0.02637
  11   32150.2    311.0   0.009549627   0.09779  -0.13854  -0.27525  -0.05323
  12   33358.3    299.8   0.033962222   0.33517  -0.21703  -0.52741   0.09957
  13   43705.2    228.8   0.289880790   2.18354   1.34968  -0.60125   0.01985
  14   37089.4    269.6   0.235638800   2.09157  -0.19427  -1.43228  -0.04908
  15   34511.9    289.8   0.080794747   0.77071  -0.40202  -0.76194   0.16893
  16   31128.3    321.3   0.036828802   0.38950  -0.16378  -0.31620  -0.51254
  17   36730.5    272.3   0.017394660   0.15591  -0.37915   0.10303   0.03916
  18   38085.6    262.6   0.155593163   1.34495   1.01547  -0.55890  -0.03734
  19   40194.9    248.8   0.381049476   3.12095  -1.43281   1.03086  -0.07301
  20   38775.2    257.9   0.020671421   0.17551  -0.28103  -0.29099   0.10885
  21   41878.7    238.8   0.224667471   1.76613   0.73456  -0.13229  -1.09957
  22   44253.6    226.0   0.292945830   2.17928  -0.48934   0.15198  -1.38446
  23   37700.7    265.2   0.037974917   0.33161  -0.46838  -0.27890   0.18558
  24   36015.7    277.7   0.037569745   0.34342   0.53844  -0.23131   0.00002
  25   44745.6    223.5   0.256863703   1.88985   0.92602  -1.01561   0.02963
  26   41656.3    240.1   0.002964938   0.02343  -0.03693  -0.00133   0.14855
  27   40854.7    244.8   0.069274967   0.55823  -0.69676   0.26464   0.05213
  28   50082.9    199.7   0.017826266   0.11718   0.29462  -0.12056   0.12587
  29   42867.5    233.3   0.056161864   0.43131   0.57376  -0.31658  -0.04341
  30   41151.5    243.0   0.009304634   0.07444   0.17784  -0.19453   0.07050

-----------------------------------------------------------------------------
         ABSORPTION SPECTRUM VIA TRANSITION VELOCITY DIPOLE MOMENTS
-----------------------------------------------------------------------------
State   Energy    Wavelength   fosc        P2         PX        PY        PZ  
        (cm-1)      (nm)                 (au**2)     (au)      (au)      (au) 
-----------------------------------------------------------------------------
   1   25820.3    387.3   0.118573674   0.02092  -0.07790   0.12188  -0.00080
   2   28564.6    350.1   0.347675765   0.06787  -0.23171  -0.11910   0.00085
   3   31945.7    313.0   1.447750866   0.31609  -0.47679  -0.29791  -0.00313
   4   25301.9    395.2   0.007771509   0.00134   0.02160   0.02959  -0.00132
   5   31037.7    322.2   0.201818132   0.04281  -0.16003  -0.13115  -0.00120
   6   33651.3    297.2   0.629280329   0.14473  -0.16339   0.34355   0.00134
   7   34424.6    290.5   0.002685002   0.00063   0.01293  -0.00224  -0.02144
   8   36558.3    273.5   0.543851575   0.13589  -0.29482  -0.22128  -0.00062
   9   39609.1    252.5   0.003805361   0.00103  -0.02945   0.00480   0.01183
  10   40647.5    246.0   0.100939563   0.02804  -0.00358   0.16732   0.00566
  11   32150.2    311.0   0.022281072   0.00490   0.03059   0.06133   0.01412
  12   33358.3    299.8   0.073180249   0.01668   0.04783   0.11757  -0.02395
  13   43705.2    228.8   0.391088435   0.11682  -0.31179   0.13995  -0.00469
  14   37089.4    269.6   0.441473941   0.11191   0.04200   0.33168   0.01155
  15   34511.9    289.8   0.184526509   0.04352   0.09394   0.18195  -0.03991
  16   31128.3    321.3   0.104038817   0.02213   0.03841   0.07569   0.12218
  17   36730.5    272.3   0.036072191   0.00906   0.09151  -0.02436  -0.00936
  18   38085.6    262.6   0.311255141   0.08102  -0.24932   0.13693   0.01036
  19   40194.9    248.8   0.692528189   0.19025   0.35403  -0.25408   0.01875
  20   38775.2    257.9   0.042551919   0.01128   0.07070   0.07420  -0.02779
  21   41878.7    238.8   0.407246177   0.11656  -0.18858   0.03524   0.28242
  22   44253.6    226.0   0.481271277   0.14556   0.12618  -0.04033   0.35779
  23   37700.7    265.2   0.084390630   0.02174   0.11933   0.07205  -0.04810
  24   36015.7    277.7   0.098155941   0.02416  -0.14262   0.06180  -0.00010
  25   44745.6    223.5   0.433206462   0.13248  -0.24481   0.26923  -0.00789
  26   41656.3    240.1   0.006376389   0.00182   0.01001   0.00028  -0.04141
  27   40854.7    244.8   0.148300391   0.04141   0.18958  -0.07252  -0.01444
  28   50082.9    199.7   0.025624227   0.00877  -0.08036   0.03306  -0.03493
  29   42867.5    233.3   0.111596109   0.03270  -0.15852   0.08622   0.01152
  30   41151.5    243.0   0.020227393   0.00569  -0.04948   0.05381  -0.01857

-------------------------------------------------------------------
                             CD SPECTRUM
-------------------------------------------------------------------
State  Energy     Wavelength     R         MX        MY        MZ   
       (cm-1)       (nm)     (1e40*cgs)   (au)      (au)      (au)  
-------------------------------------------------------------------
   1   25820.3    387.3      0.55973   0.00217  -0.00250  -0.35787
   2   28564.6    350.1      0.52454   0.00055  -0.00204  -0.33474
   3   31945.7    313.0     -9.86438  -0.00023  -0.00491  -0.68420
   4   25301.9    395.2     -0.56630  -0.07661   0.06806   0.04970
   5   31037.7    322.2      1.81033   0.00547  -0.00275   0.18462
   6   33651.3    297.2      7.87555  -0.00156  -0.00897  -0.38878
   7   34424.6    290.5      1.28157  -0.05353  -0.14720   0.00882
   8   36558.3    273.5     -0.70835   0.01432  -0.02169   0.53912
   9   39609.1    252.5     -8.64399  -0.01456   0.06835   0.28665
  10   40647.5    246.0     -5.67983   0.02636  -0.00373   0.57755
  11   32150.2    311.0    -24.89578  -0.16844   0.19656   0.41404
  12   33358.3    299.8     70.10241   0.08804  -0.20694   0.58919
  13   43705.2    228.8      3.82822  -0.00460  -0.02751  -0.11129
  14   37089.4    269.6    -57.07110   0.02407   0.03368   1.38822
  15   34511.9    289.8    144.49820  -0.10660  -0.11629   1.03617
  16   31128.3    321.3    -162.16642   0.33735   0.34595   0.34989
  17   36730.5    272.3      4.45740  -0.00573  -0.04191   0.29618
  18   38085.6    262.6     72.56409   0.13342  -0.00871  -0.36321
  19   40194.9    248.8    -61.95797   0.11032   0.04644   0.29081
  20   38775.2    257.9     -8.18219  -0.03747  -0.07274  -0.45063
  21   41878.7    238.8    -15.07999   0.53074   0.96715   0.26729
  22   44253.6    226.0     30.67053   0.67239   1.24246  -0.14826
  23   37700.7    265.2     18.01678  -0.08820  -0.15354  -0.24742
  24   36015.7    277.7     -2.77743  -0.01256  -0.00377  -0.11334
  25   44745.6    223.5      4.07152  -0.00182  -0.01809  -0.27169
  26   41656.3    240.1      2.22836  -0.18040  -0.09442  -0.01388
  27   40854.7    244.8     20.90074  -0.06262   0.00857  -0.02999
  28   50082.9    199.7    -24.38575  -0.16697   0.01672  -0.00411
  29   42867.5    233.3     -8.51165  -0.01210   0.03289   0.01620
  30   41151.5    243.0     15.18025   0.05925  -0.09086   0.05656

Total run time:     2217.941 sec

           *** ORCA-CIS/TD-DFT FINISHED WITHOUT ERROR ***

Maximum memory used throughout the entire CIS-calculation: 3623.9 MB

-----------------------
CIS/TD-DFT TOTAL ENERGY
-----------------------

    E(SCF)  =  -1032.442252735 Eh
    DE(CIS) =      0.117645756 Eh (Root  1)
    ----------------------------- ---------
    E(tot)  =  -1032.324606979 Eh



-------------------------------------------------------------------------------
                          DFT DISPERSION CORRECTION                            
                                                                               
                              DFTD3 V3.1  Rev 1                                
                          USING Becke-Johnson damping                          
-------------------------------------------------------------------------------
The DSD-BLYP functional is recognized
Active option DFTDOPT                   ...         4   

molecular C6(AA) [au] = 21383.211135 


            DFT-D V3
 parameters
 s6 scaling factor         :     0.5000 
 a1 scaling factor         :     0.0000 
 s8 scaling factor         :     0.2130 
 a2 scaling factor         :     6.0520 
 ad hoc parameters k1-k3   :    16.0000     1.3333    -4.0000 

 Edisp/kcal,au: -24.936754600574  -0.039739243743 
 E6   /kcal   : -19.257531548 
 E8   /kcal   :  -5.679223052 
 % E8         :  22.774507521 

-------------------------   ----------------
Dispersion correction           -0.039739244
-------------------------   ----------------


-------------------------   --------------------
FINAL SINGLE POINT ENERGY     -1032.364346222942
-------------------------   --------------------


                            ***************************************
                            *     ORCA property calculations      *
                            ***************************************


  WARNING: The energy has been calculated at the MP2 level but the densities
           used in the property calculations are still SCF densities
           MP2 response densities have not been calculated 
           use %mp2 Density relaxed end
           or  %mp2 Density unrelaxed end

                                    ---------------------
                                    Active property flags
                                    ---------------------
   (+) Dipole Moment


------------------------------------------------------------------------------
                       ORCA ELECTRIC PROPERTIES CALCULATION
------------------------------------------------------------------------------

Dipole Moment Calculation                       ... on
Quadrupole Moment Calculation                   ... off
Polarizability Calculation                      ... off
GBWName                                         ... NCE_1_M06L_def2TZVP_coords.gbw
Electron density                                ... NCE_1_M06L_def2TZVP_coords.scfp
The origin for moment calculation is the CENTER OF MASS  = (-0.028125, -0.036766 -0.001229)

-------------
DIPOLE MOMENT
-------------
                                X             Y             Z
Electronic contribution:     -5.28914      -3.61600      -0.14926
Nuclear contribution   :      4.72501       6.17663       0.20653
                        -----------------------------------------
Total Dipole Moment    :     -0.56413       2.56064       0.05727
                        -----------------------------------------
Magnitude (a.u.)       :      2.62267
Magnitude (Debye)      :      6.66629



--------------------
Rotational spectrum 
--------------------
 
Rotational constants in cm-1:     0.011605     0.006121     0.004181 
Rotational constants in MHz :   347.917303   183.508149   125.354082 

 Dipole components along the rotational axes: 
x,y,z [a.u.] :    -0.537109     2.566469     0.055917 
x,y,z [Debye]:    -1.365222     6.523447     0.142131 

 

Timings for individual modules:

Sum of individual times         ...     2542.949 sec (=  42.382 min)
GTO integral calculation        ...        1.360 sec (=   0.023 min)   0.1 %
SCF iterations                  ...      188.169 sec (=   3.136 min)   7.4 %
MP2 module                      ...      134.893 sec (=   2.248 min)   5.3 %
CIS module                      ...     2218.527 sec (=  36.975 min)  87.2 %
                             ****ORCA TERMINATED NORMALLY****
TOTAL RUN TIME: 0 days 0 hours 42 minutes 24 seconds 786 msec
