 Entering Gaussian System, Link 0=g09
 Input=/home/png4rjv/fotokatalizis/benchmark/OPCs/Me2-Acr_3_B3LYP-D3_def2TZVP.gjf
 Output=/home/png4rjv/fotokatalizis/benchmark/OPCs/Me2-Acr_3_B3LYP-D3_def2TZVP.log
 Initial command:
 /opt/nce/packages/global/g09/l1.exe "/home/png4rjv/fotokatalizis/benchmark/OPCs/Me2-Acr_3_B3LYP-D3_def2TZVP/Gau-60262.inp" -scrdir="/home/png4rjv/fotokatalizis/benchmark/OPCs/Me2-Acr_3_B3LYP-D3_def2TZVP/"
 Default is to use a total of  12 processors:
                               12 via shared-memory
                                1 via Linda
 Entering Link 1 = /opt/nce/packages/global/g09/l1.exe PID=     60263.
  
 Copyright (c) 1988,1990,1992,1993,1995,1998,2003,2009,2015,
            Gaussian, Inc.  All Rights Reserved.
  
 This is part of the Gaussian(R) 09 program.  It is based on
 the Gaussian(R) 03 system (copyright 2003, Gaussian, Inc.),
 the Gaussian(R) 98 system (copyright 1998, Gaussian, Inc.),
 the Gaussian(R) 94 system (copyright 1995, Gaussian, Inc.),
 the Gaussian 92(TM) system (copyright 1992, Gaussian, Inc.),
 the Gaussian 90(TM) system (copyright 1990, Gaussian, Inc.),
 the Gaussian 88(TM) system (copyright 1988, Gaussian, Inc.),
 the Gaussian 86(TM) system (copyright 1986, Carnegie Mellon
 University), and the Gaussian 82(TM) system (copyright 1983,
 Carnegie Mellon University). Gaussian is a federally registered
 trademark of Gaussian, Inc.
  
 This software contains proprietary and confidential information,
 including trade secrets, belonging to Gaussian, Inc.
  
 This software is provided under written license and may be
 used, copied, transmitted, or stored only in accord with that
 written license.
  
 The following legend is applicable only to US Government
 contracts under FAR:
  
                    RESTRICTED RIGHTS LEGEND
  
 Use, reproduction and disclosure by the US Government is
 subject to restrictions as set forth in subparagraphs (a)
 and (c) of the Commercial Computer Software - Restricted
 Rights clause in FAR 52.227-19.
  
 Gaussian, Inc.
 340 Quinnipiac St., Bldg. 40, Wallingford CT 06492
  
  
 ---------------------------------------------------------------
 Warning -- This program may not be used in any manner that
 competes with the business of Gaussian, Inc. or will provide
 assistance to any competitor of Gaussian, Inc.  The licensee
 of this program is prohibited from giving any competitor of
 Gaussian, Inc. access to this program.  By using this program,
 the user acknowledges that Gaussian, Inc. is engaged in the
 business of creating and licensing software in the field of
 computational chemistry and represents and warrants to the
 licensee that it is not a competitor of Gaussian, Inc. and that
 it will not use this program in any manner prohibited above.
 ---------------------------------------------------------------
  

 Cite this work as:
 Gaussian 09, Revision E.01,
 M. J. Frisch, G. W. Trucks, H. B. Schlegel, G. E. Scuseria, 
 M. A. Robb, J. R. Cheeseman, G. Scalmani, V. Barone, B. Mennucci, 
 G. A. Petersson, H. Nakatsuji, M. Caricato, X. Li, H. P. Hratchian, 
 A. F. Izmaylov, J. Bloino, G. Zheng, J. L. Sonnenberg, M. Hada, 
 M. Ehara, K. Toyota, R. Fukuda, J. Hasegawa, M. Ishida, T. Nakajima, 
 Y. Honda, O. Kitao, H. Nakai, T. Vreven, J. A. Montgomery, Jr., 
 J. E. Peralta, F. Ogliaro, M. Bearpark, J. J. Heyd, E. Brothers, 
 K. N. Kudin, V. N. Staroverov, T. Keith, R. Kobayashi, J. Normand, 
 K. Raghavachari, A. Rendell, J. C. Burant, S. S. Iyengar, J. Tomasi, 
 M. Cossi, N. Rega, J. M. Millam, M. Klene, J. E. Knox, J. B. Cross, 
 V. Bakken, C. Adamo, J. Jaramillo, R. Gomperts, R. E. Stratmann, 
 O. Yazyev, A. J. Austin, R. Cammi, C. Pomelli, J. W. Ochterski, 
 R. L. Martin, K. Morokuma, V. G. Zakrzewski, G. A. Voth, 
 P. Salvador, J. J. Dannenberg, S. Dapprich, A. D. Daniels, 
 O. Farkas, J. B. Foresman, J. V. Ortiz, J. Cioslowski, 
 and D. J. Fox, Gaussian, Inc., Wallingford CT, 2013.
 
 ******************************************
 Gaussian 09:  ES64L-G09RevE.01 30-Nov-2015
                14-Feb-2021 
 ******************************************
 %chk=cp.chk
 Default route:  MaxDisk=500GB
 ----------------------------------------------------------------------
 #p b3lyp/def2TZVP opt freq=noraman nosymm int=ultrafine scrf=(SMD,solv
 ent=n,n-DiMethylFormamide) EmpiricalDispersion=GD3BJ
 ----------------------------------------------------------------------
 1/14=-1,18=20,19=15,26=4,38=1/1,3;
 2/9=110,12=2,15=1,17=6,18=5,40=1/2;
 3/5=44,7=101,11=2,16=1,25=1,30=1,70=32201,71=1,72=148,74=-5,75=-5,124=41/1,2,3;
 4//1;
 5/5=2,38=5,53=148/2;
 6/7=2,8=2,9=2,10=2,28=1/1;
 7/30=1/1,2,3,16;
 1/14=-1,18=20,19=15,26=4/3(2);
 2/9=110,15=1/2;
 99//99;
 2/9=110,15=1/2;
 3/5=44,7=101,11=2,16=1,25=1,30=1,70=32205,71=1,72=148,74=-5,75=-5,124=41/1,2,3;
 4/5=5,16=3,69=1/1;
 5/5=2,38=5,53=148/2;
 7/30=1/1,2,3,16;
 1/14=-1,18=20,19=15,26=4/3(-5);
 2/9=110,15=1/2;
 6/7=2,8=2,9=2,10=2,19=2,28=1/1;
 99/9=1/99;
 Leave Link    1 at Sun Feb 14 10:50:47 2021, MaxMem=           0 cpu:         1.0
 (Enter /opt/nce/packages/global/g09/l101.exe)
 -----
 Title
 -----
 Symbolic Z-matrix:
 Charge =  0 Multiplicity = 1
 C                     3.65569   0.76137  -0.40332 
 C                     2.43136   1.39755  -0.5431 
 C                     1.22226   0.67512  -0.46716 
 C                     1.26474  -0.71664  -0.23616 
 C                     2.51578  -1.32414  -0.09868 
 C                     3.729    -0.62348  -0.17617 
 C                     0.00069  -1.5787   -0.16683 
 C                    -1.2639   -0.71884  -0.25293 
 C                    -1.22042   0.6749   -0.47141 
 C                    -2.42905   1.39854  -0.54264 
 H                    -2.40146   2.47272  -0.7162 
 C                    -3.65375   0.76236  -0.4062 
 C                    -3.72829  -0.62566  -0.20005 
 C                    -2.51562  -1.32817  -0.13075 
 H                     2.40379   2.47372  -0.70387 
 H                     2.552    -2.40426   0.0465 
 H                    -4.56717   1.35384  -0.49118 
 N                     0.00115   1.34172  -0.61315 
 C                     0.00136   2.75835  -0.82379 
 C                    -0.00005   3.63046   0.30658 
 C                     0.00268   3.26212  -2.10739 
 C                    -0.00117   3.14581   1.64234 
 C                    -0.00016   5.04617   0.0762 
 C                     0.00255   4.66024  -2.32918 
 H                     0.00353   2.566    -2.94809 
 C                    -0.00235   4.0238    2.70506 
 H                    -0.00087   2.06874   1.81351 
 C                    -0.0015    5.92186   1.19702 
 C                     0.00114   5.53096  -1.26078 
 H                     0.00344   5.04243  -3.35215 
 C                    -0.00256   5.42369   2.48195 
 H                    -0.00292   3.64035   3.7279 
 H                    -0.00153   7.00028   1.01994 
 H                     0.00099   6.611    -1.42723 
 H                    -0.00337   6.10678   3.3344 
 H                    -2.55126  -2.40249   0.05229 
 H                     4.56791   1.3595   -0.44226 
 C                     0.00795  -2.57197  -1.3549 
 H                     0.012    -2.02934  -2.31178 
 H                     0.89799  -3.21829  -1.32429 
 H                    -0.88175  -3.21926  -1.33213 
 C                    -0.00587  -2.36294   1.16718 
 H                     0.88068  -3.00758   1.25342 
 H                    -0.01176  -1.67141   2.02273 
 H                    -0.89058  -3.01104   1.24488 
 C                     5.02632  -1.31597  -0.02334 
 C                     5.15965  -2.43661   0.82056 
 C                     6.17114  -0.87574  -0.71689 
 C                     6.37673  -3.09278   0.96596 
 H                     4.29853  -2.78345   1.39423 
 C                     7.3947   -1.52111  -0.57746 
 H                     6.09355  -0.0267   -1.39802 
 C                     7.51093  -2.64058   0.2669 
 H                     6.46252  -3.95418   1.63054 
 H                     8.2686   -1.17057  -1.12924 
 C                    -5.02654  -1.31969  -0.06208 
 C                    -5.19964  -2.64107  -0.52 
 C                    -6.13253  -0.68001   0.53215 
 C                    -6.41767  -3.29874  -0.39 
 H                    -4.37066  -3.1531   -1.01148 
 C                    -7.35667  -1.32558   0.66517 
 H                    -6.0224    0.33393   0.92027 
 C                    -7.51279  -2.64614   0.20531 
 H                    -6.53496  -4.31939  -0.75818 
 H                    -8.19966  -0.81675   1.1358 
 C                    -8.77185  -3.31811   0.34121 
 C                     8.76924  -3.31172   0.41356 
 N                     9.78856  -3.85554   0.53232 
 N                    -9.79179  -3.86258   0.45143 
 
 NAtoms=     69 NQM=       69 NQMF=       0 NMMI=      0 NMMIF=      0
                NMic=       0 NMicF=      0.
                    Isotopes and Nuclear Properties:
 (Nuclear quadrupole moments (NQMom) in fm**2, nuclear magnetic moments (NMagM)
  in nuclear magnetons)

  Atom         1           2           3           4           5           6           7           8           9          10
 IAtWgt=          12          12          12          12          12          12          12          12          12          12
 AtmWgt=  12.0000000  12.0000000  12.0000000  12.0000000  12.0000000  12.0000000  12.0000000  12.0000000  12.0000000  12.0000000
 NucSpn=           0           0           0           0           0           0           0           0           0           0
 AtZEff=   0.0000000   0.0000000   0.0000000   0.0000000   0.0000000   0.0000000   0.0000000   0.0000000   0.0000000   0.0000000
 NQMom=    0.0000000   0.0000000   0.0000000   0.0000000   0.0000000   0.0000000   0.0000000   0.0000000   0.0000000   0.0000000
 NMagM=    0.0000000   0.0000000   0.0000000   0.0000000   0.0000000   0.0000000   0.0000000   0.0000000   0.0000000   0.0000000
 AtZNuc=   6.0000000   6.0000000   6.0000000   6.0000000   6.0000000   6.0000000   6.0000000   6.0000000   6.0000000   6.0000000

  Atom        11          12          13          14          15          16          17          18          19          20
 IAtWgt=           1          12          12          12           1           1           1          14          12          12
 AtmWgt=   1.0078250  12.0000000  12.0000000  12.0000000   1.0078250   1.0078250   1.0078250  14.0030740  12.0000000  12.0000000
 NucSpn=           1           0           0           0           1           1           1           2           0           0
 AtZEff=   0.0000000   0.0000000   0.0000000   0.0000000   0.0000000   0.0000000   0.0000000   0.0000000   0.0000000   0.0000000
 NQMom=    0.0000000   0.0000000   0.0000000   0.0000000   0.0000000   0.0000000   0.0000000   2.0440000   0.0000000   0.0000000
 NMagM=    2.7928460   0.0000000   0.0000000   0.0000000   2.7928460   2.7928460   2.7928460   0.4037610   0.0000000   0.0000000
 AtZNuc=   1.0000000   6.0000000   6.0000000   6.0000000   1.0000000   1.0000000   1.0000000   7.0000000   6.0000000   6.0000000

  Atom        21          22          23          24          25          26          27          28          29          30
 IAtWgt=          12          12          12          12           1          12           1          12          12           1
 AtmWgt=  12.0000000  12.0000000  12.0000000  12.0000000   1.0078250  12.0000000   1.0078250  12.0000000  12.0000000   1.0078250
 NucSpn=           0           0           0           0           1           0           1           0           0           1
 AtZEff=   0.0000000   0.0000000   0.0000000   0.0000000   0.0000000   0.0000000   0.0000000   0.0000000   0.0000000   0.0000000
 NQMom=    0.0000000   0.0000000   0.0000000   0.0000000   0.0000000   0.0000000   0.0000000   0.0000000   0.0000000   0.0000000
 NMagM=    0.0000000   0.0000000   0.0000000   0.0000000   2.7928460   0.0000000   2.7928460   0.0000000   0.0000000   2.7928460
 AtZNuc=   6.0000000   6.0000000   6.0000000   6.0000000   1.0000000   6.0000000   1.0000000   6.0000000   6.0000000   1.0000000

  Atom        31          32          33          34          35          36          37          38          39          40
 IAtWgt=          12           1           1           1           1           1           1          12           1           1
 AtmWgt=  12.0000000   1.0078250   1.0078250   1.0078250   1.0078250   1.0078250   1.0078250  12.0000000   1.0078250   1.0078250
 NucSpn=           0           1           1           1           1           1           1           0           1           1
 AtZEff=   0.0000000   0.0000000   0.0000000   0.0000000   0.0000000   0.0000000   0.0000000   0.0000000   0.0000000   0.0000000
 NQMom=    0.0000000   0.0000000   0.0000000   0.0000000   0.0000000   0.0000000   0.0000000   0.0000000   0.0000000   0.0000000
 NMagM=    0.0000000   2.7928460   2.7928460   2.7928460   2.7928460   2.7928460   2.7928460   0.0000000   2.7928460   2.7928460
 AtZNuc=   6.0000000   1.0000000   1.0000000   1.0000000   1.0000000   1.0000000   1.0000000   6.0000000   1.0000000   1.0000000

  Atom        41          42          43          44          45          46          47          48          49          50
 IAtWgt=           1          12           1           1           1          12          12          12          12           1
 AtmWgt=   1.0078250  12.0000000   1.0078250   1.0078250   1.0078250  12.0000000  12.0000000  12.0000000  12.0000000   1.0078250
 NucSpn=           1           0           1           1           1           0           0           0           0           1
 AtZEff=   0.0000000   0.0000000   0.0000000   0.0000000   0.0000000   0.0000000   0.0000000   0.0000000   0.0000000   0.0000000
 NQMom=    0.0000000   0.0000000   0.0000000   0.0000000   0.0000000   0.0000000   0.0000000   0.0000000   0.0000000   0.0000000
 NMagM=    2.7928460   0.0000000   2.7928460   2.7928460   2.7928460   0.0000000   0.0000000   0.0000000   0.0000000   2.7928460
 AtZNuc=   1.0000000   6.0000000   1.0000000   1.0000000   1.0000000   6.0000000   6.0000000   6.0000000   6.0000000   1.0000000

  Atom        51          52          53          54          55          56          57          58          59          60
 IAtWgt=          12           1          12           1           1          12          12          12          12           1
 AtmWgt=  12.0000000   1.0078250  12.0000000   1.0078250   1.0078250  12.0000000  12.0000000  12.0000000  12.0000000   1.0078250
 NucSpn=           0           1           0           1           1           0           0           0           0           1
 AtZEff=   0.0000000   0.0000000   0.0000000   0.0000000   0.0000000   0.0000000   0.0000000   0.0000000   0.0000000   0.0000000
 NQMom=    0.0000000   0.0000000   0.0000000   0.0000000   0.0000000   0.0000000   0.0000000   0.0000000   0.0000000   0.0000000
 NMagM=    0.0000000   2.7928460   0.0000000   2.7928460   2.7928460   0.0000000   0.0000000   0.0000000   0.0000000   2.7928460
 AtZNuc=   6.0000000   1.0000000   6.0000000   1.0000000   1.0000000   6.0000000   6.0000000   6.0000000   6.0000000   1.0000000

  Atom        61          62          63          64          65          66          67          68          69
 IAtWgt=          12           1          12           1           1          12          12          14          14
 AtmWgt=  12.0000000   1.0078250  12.0000000   1.0078250   1.0078250  12.0000000  12.0000000  14.0030740  14.0030740
 NucSpn=           0           1           0           1           1           0           0           2           2
 AtZEff=   0.0000000   0.0000000   0.0000000   0.0000000   0.0000000   0.0000000   0.0000000   0.0000000   0.0000000
 NQMom=    0.0000000   0.0000000   0.0000000   0.0000000   0.0000000   0.0000000   0.0000000   2.0440000   2.0440000
 NMagM=    0.0000000   2.7928460   0.0000000   2.7928460   2.7928460   0.0000000   0.0000000   0.4037610   0.4037610
 AtZNuc=   6.0000000   1.0000000   6.0000000   1.0000000   1.0000000   6.0000000   6.0000000   7.0000000   7.0000000
 Leave Link  101 at Sun Feb 14 10:50:47 2021, MaxMem=  5242880000 cpu:         4.7
 (Enter /opt/nce/packages/global/g09/l103.exe)

 GradGradGradGradGradGradGradGradGradGradGradGradGradGradGradGradGradGrad
 Berny optimization.
 Initialization pass.
                           ----------------------------
                           !    Initial Parameters    !
                           ! (Angstroms and Degrees)  !
 --------------------------                            --------------------------
 ! Name  Definition              Value          Derivative Info.                !
 --------------------------------------------------------------------------------
 ! R1    R(1,2)                  1.3868         estimate D2E/DX2                !
 ! R2    R(1,6)                  1.4053         estimate D2E/DX2                !
 ! R3    R(1,37)                 1.0915         estimate D2E/DX2                !
 ! R4    R(2,3)                  1.4105         estimate D2E/DX2                !
 ! R5    R(2,15)                 1.0885         estimate D2E/DX2                !
 ! R6    R(3,4)                  1.4114         estimate D2E/DX2                !
 ! R7    R(3,18)                 1.3988         estimate D2E/DX2                !
 ! R8    R(4,5)                  1.3975         estimate D2E/DX2                !
 ! R9    R(4,7)                  1.5316         estimate D2E/DX2                !
 ! R10   R(5,6)                  1.4032         estimate D2E/DX2                !
 ! R11   R(5,16)                 1.0904         estimate D2E/DX2                !
 ! R12   R(6,46)                 1.4785         estimate D2E/DX2                !
 ! R13   R(7,8)                  1.5317         estimate D2E/DX2                !
 ! R14   R(7,38)                 1.5486         estimate D2E/DX2                !
 ! R15   R(7,42)                 1.5475         estimate D2E/DX2                !
 ! R16   R(8,9)                  1.4114         estimate D2E/DX2                !
 ! R17   R(8,14)                 1.3975         estimate D2E/DX2                !
 ! R18   R(9,10)                 1.4105         estimate D2E/DX2                !
 ! R19   R(9,18)                 1.3989         estimate D2E/DX2                !
 ! R20   R(10,11)                1.0885         estimate D2E/DX2                !
 ! R21   R(10,12)                1.3868         estimate D2E/DX2                !
 ! R22   R(12,13)                1.4052         estimate D2E/DX2                !
 ! R23   R(12,17)                1.0915         estimate D2E/DX2                !
 ! R24   R(13,14)                1.4032         estimate D2E/DX2                !
 ! R25   R(13,56)                1.4786         estimate D2E/DX2                !
 ! R26   R(14,36)                1.0904         estimate D2E/DX2                !
 ! R27   R(18,19)                1.4322         estimate D2E/DX2                !
 ! R28   R(19,20)                1.4277         estimate D2E/DX2                !
 ! R29   R(19,21)                1.3789         estimate D2E/DX2                !
 ! R30   R(20,22)                1.421          estimate D2E/DX2                !
 ! R31   R(20,23)                1.4343         estimate D2E/DX2                !
 ! R32   R(21,24)                1.4156         estimate D2E/DX2                !
 ! R33   R(21,25)                1.0915         estimate D2E/DX2                !
 ! R34   R(22,26)                1.3785         estimate D2E/DX2                !
 ! R35   R(22,27)                1.0906         estimate D2E/DX2                !
 ! R36   R(23,28)                1.4223         estimate D2E/DX2                !
 ! R37   R(23,29)                1.4222         estimate D2E/DX2                !
 ! R38   R(24,29)                1.3783         estimate D2E/DX2                !
 ! R39   R(24,30)                1.092          estimate D2E/DX2                !
 ! R40   R(26,31)                1.4176         estimate D2E/DX2                !
 ! R41   R(26,32)                1.0924         estimate D2E/DX2                !
 ! R42   R(28,31)                1.3781         estimate D2E/DX2                !
 ! R43   R(28,33)                1.0929         estimate D2E/DX2                !
 ! R44   R(29,34)                1.0928         estimate D2E/DX2                !
 ! R45   R(31,35)                1.0924         estimate D2E/DX2                !
 ! R46   R(38,39)                1.1            estimate D2E/DX2                !
 ! R47   R(38,40)                1.1004         estimate D2E/DX2                !
 ! R48   R(38,41)                1.1005         estimate D2E/DX2                !
 ! R49   R(42,43)                1.0995         estimate D2E/DX2                !
 ! R50   R(42,44)                1.1001         estimate D2E/DX2                !
 ! R51   R(42,45)                1.0994         estimate D2E/DX2                !
 ! R52   R(46,47)                1.4092         estimate D2E/DX2                !
 ! R53   R(46,48)                1.4091         estimate D2E/DX2                !
 ! R54   R(47,49)                1.3903         estimate D2E/DX2                !
 ! R55   R(47,50)                1.0913         estimate D2E/DX2                !
 ! R56   R(48,51)                1.3903         estimate D2E/DX2                !
 ! R57   R(48,52)                1.0912         estimate D2E/DX2                !
 ! R58   R(49,53)                1.407          estimate D2E/DX2                !
 ! R59   R(49,54)                1.0913         estimate D2E/DX2                !
 ! R60   R(51,53)                1.407          estimate D2E/DX2                !
 ! R61   R(51,55)                1.0913         estimate D2E/DX2                !
 ! R62   R(53,67)                1.4336         estimate D2E/DX2                !
 ! R63   R(56,57)                1.4091         estimate D2E/DX2                !
 ! R64   R(56,58)                1.4091         estimate D2E/DX2                !
 ! R65   R(57,59)                1.3903         estimate D2E/DX2                !
 ! R66   R(57,60)                1.0913         estimate D2E/DX2                !
 ! R67   R(58,61)                1.3903         estimate D2E/DX2                !
 ! R68   R(58,62)                1.0913         estimate D2E/DX2                !
 ! R69   R(59,63)                1.407          estimate D2E/DX2                !
 ! R70   R(59,64)                1.0913         estimate D2E/DX2                !
 ! R71   R(61,63)                1.407          estimate D2E/DX2                !
 ! R72   R(61,65)                1.0913         estimate D2E/DX2                !
 ! R73   R(63,66)                1.4336         estimate D2E/DX2                !
 ! R74   R(66,69)                1.1614         estimate D2E/DX2                !
 ! R75   R(67,68)                1.1614         estimate D2E/DX2                !
 ! A1    A(2,1,6)              120.9587         estimate D2E/DX2                !
 ! A2    A(2,1,37)             118.8713         estimate D2E/DX2                !
 ! A3    A(6,1,37)             120.1444         estimate D2E/DX2                !
 ! A4    A(1,2,3)              121.0907         estimate D2E/DX2                !
 ! A5    A(1,2,15)             119.3934         estimate D2E/DX2                !
 ! A6    A(3,2,15)             119.5129         estimate D2E/DX2                !
 ! A7    A(2,3,4)              119.2111         estimate D2E/DX2                !
 ! A8    A(2,3,18)             119.9074         estimate D2E/DX2                !
 ! A9    A(4,3,18)             120.8805         estimate D2E/DX2                !
 ! A10   A(3,4,5)              118.1438         estimate D2E/DX2                !
 ! A11   A(3,4,7)              122.518          estimate D2E/DX2                !
 ! A12   A(5,4,7)              119.3203         estimate D2E/DX2                !
 ! A13   A(4,5,6)              123.4712         estimate D2E/DX2                !
 ! A14   A(4,5,16)             118.2567         estimate D2E/DX2                !
 ! A15   A(6,5,16)             118.2454         estimate D2E/DX2                !
 ! A16   A(1,6,5)              117.1233         estimate D2E/DX2                !
 ! A17   A(1,6,46)             121.6048         estimate D2E/DX2                !
 ! A18   A(5,6,46)             121.2719         estimate D2E/DX2                !
 ! A19   A(4,7,8)              111.2776         estimate D2E/DX2                !
 ! A20   A(4,7,38)             108.8089         estimate D2E/DX2                !
 ! A21   A(4,7,42)             109.133          estimate D2E/DX2                !
 ! A22   A(8,7,38)             108.7132         estimate D2E/DX2                !
 ! A23   A(8,7,42)             109.2362         estimate D2E/DX2                !
 ! A24   A(38,7,42)            109.6538         estimate D2E/DX2                !
 ! A25   A(7,8,9)              122.5221         estimate D2E/DX2                !
 ! A26   A(7,8,14)             119.3286         estimate D2E/DX2                !
 ! A27   A(9,8,14)             118.1431         estimate D2E/DX2                !
 ! A28   A(8,9,10)             119.211          estimate D2E/DX2                !
 ! A29   A(8,9,18)             120.8828         estimate D2E/DX2                !
 ! A30   A(10,9,18)            119.9059         estimate D2E/DX2                !
 ! A31   A(9,10,11)            119.5143         estimate D2E/DX2                !
 ! A32   A(9,10,12)            121.0912         estimate D2E/DX2                !
 ! A33   A(11,10,12)           119.3923         estimate D2E/DX2                !
 ! A34   A(10,12,13)           120.9568         estimate D2E/DX2                !
 ! A35   A(10,12,17)           118.8668         estimate D2E/DX2                !
 ! A36   A(13,12,17)           120.1517         estimate D2E/DX2                !
 ! A37   A(12,13,14)           117.125          estimate D2E/DX2                !
 ! A38   A(12,13,56)           121.5947         estimate D2E/DX2                !
 ! A39   A(14,13,56)           121.2803         estimate D2E/DX2                !
 ! A40   A(8,14,13)            123.468          estimate D2E/DX2                !
 ! A41   A(8,14,36)            118.2647         estimate D2E/DX2                !
 ! A42   A(13,14,36)           118.25           estimate D2E/DX2                !
 ! A43   A(3,18,9)             121.6376         estimate D2E/DX2                !
 ! A44   A(3,18,19)            119.1156         estimate D2E/DX2                !
 ! A45   A(9,18,19)            119.112          estimate D2E/DX2                !
 ! A46   A(18,19,20)           119.1938         estimate D2E/DX2                !
 ! A47   A(18,19,21)           119.8859         estimate D2E/DX2                !
 ! A48   A(20,19,21)           120.9203         estimate D2E/DX2                !
 ! A49   A(19,20,22)           122.4071         estimate D2E/DX2                !
 ! A50   A(19,20,23)           118.4082         estimate D2E/DX2                !
 ! A51   A(22,20,23)           119.1847         estimate D2E/DX2                !
 ! A52   A(19,21,24)           120.4423         estimate D2E/DX2                !
 ! A53   A(19,21,25)           118.9457         estimate D2E/DX2                !
 ! A54   A(24,21,25)           120.6119         estimate D2E/DX2                !
 ! A55   A(20,22,26)           120.4957         estimate D2E/DX2                !
 ! A56   A(20,22,27)           118.972          estimate D2E/DX2                !
 ! A57   A(26,22,27)           120.5323         estimate D2E/DX2                !
 ! A58   A(20,23,28)           118.7575         estimate D2E/DX2                !
 ! A59   A(20,23,29)           119.1737         estimate D2E/DX2                !
 ! A60   A(28,23,29)           122.0688         estimate D2E/DX2                !
 ! A61   A(21,24,29)           120.1657         estimate D2E/DX2                !
 ! A62   A(21,24,30)           119.4998         estimate D2E/DX2                !
 ! A63   A(29,24,30)           120.3345         estimate D2E/DX2                !
 ! A64   A(22,26,31)           120.5071         estimate D2E/DX2                !
 ! A65   A(22,26,32)           119.887          estimate D2E/DX2                !
 ! A66   A(31,26,32)           119.6059         estimate D2E/DX2                !
 ! A67   A(23,28,31)           120.8084         estimate D2E/DX2                !
 ! A68   A(23,28,33)           118.6754         estimate D2E/DX2                !
 ! A69   A(31,28,33)           120.5163         estimate D2E/DX2                !
 ! A70   A(23,29,24)           120.8897         estimate D2E/DX2                !
 ! A71   A(23,29,34)           118.6918         estimate D2E/DX2                !
 ! A72   A(24,29,34)           120.4185         estimate D2E/DX2                !
 ! A73   A(26,31,28)           120.2467         estimate D2E/DX2                !
 ! A74   A(26,31,35)           119.6509         estimate D2E/DX2                !
 ! A75   A(28,31,35)           120.1024         estimate D2E/DX2                !
 ! A76   A(7,38,39)            110.547          estimate D2E/DX2                !
 ! A77   A(7,38,40)            111.0502         estimate D2E/DX2                !
 ! A78   A(7,38,41)            110.9524         estimate D2E/DX2                !
 ! A79   A(39,38,40)           108.1171         estimate D2E/DX2                !
 ! A80   A(39,38,41)           108.1266         estimate D2E/DX2                !
 ! A81   A(40,38,41)           107.9307         estimate D2E/DX2                !
 ! A82   A(7,42,43)            111.1811         estimate D2E/DX2                !
 ! A83   A(7,42,44)            110.6027         estimate D2E/DX2                !
 ! A84   A(7,42,45)            111.2892         estimate D2E/DX2                !
 ! A85   A(43,42,44)           108.1714         estimate D2E/DX2                !
 ! A86   A(43,42,45)           107.3171         estimate D2E/DX2                !
 ! A87   A(44,42,45)           108.137          estimate D2E/DX2                !
 ! A88   A(6,46,47)            121.1576         estimate D2E/DX2                !
 ! A89   A(6,46,48)            121.0441         estimate D2E/DX2                !
 ! A90   A(47,46,48)           117.7982         estimate D2E/DX2                !
 ! A91   A(46,47,49)           121.3843         estimate D2E/DX2                !
 ! A92   A(46,47,50)           119.5314         estimate D2E/DX2                !
 ! A93   A(49,47,50)           119.0637         estimate D2E/DX2                !
 ! A94   A(46,48,51)           121.3741         estimate D2E/DX2                !
 ! A95   A(46,48,52)           119.5079         estimate D2E/DX2                !
 ! A96   A(51,48,52)           119.0993         estimate D2E/DX2                !
 ! A97   A(47,49,53)           120.1345         estimate D2E/DX2                !
 ! A98   A(47,49,54)           120.3325         estimate D2E/DX2                !
 ! A99   A(53,49,54)           119.5294         estimate D2E/DX2                !
 ! A100  A(48,51,53)           120.1459         estimate D2E/DX2                !
 ! A101  A(48,51,55)           120.3245         estimate D2E/DX2                !
 ! A102  A(53,51,55)           119.5264         estimate D2E/DX2                !
 ! A103  A(49,53,51)           119.1627         estimate D2E/DX2                !
 ! A104  A(49,53,67)           120.4148         estimate D2E/DX2                !
 ! A105  A(51,53,67)           120.4226         estimate D2E/DX2                !
 ! A106  A(13,56,57)           121.1771         estimate D2E/DX2                !
 ! A107  A(13,56,58)           121.0268         estimate D2E/DX2                !
 ! A108  A(57,56,58)           117.7962         estimate D2E/DX2                !
 ! A109  A(56,57,59)           121.3855         estimate D2E/DX2                !
 ! A110  A(56,57,60)           119.5388         estimate D2E/DX2                !
 ! A111  A(59,57,60)           119.0553         estimate D2E/DX2                !
 ! A112  A(56,58,61)           121.3748         estimate D2E/DX2                !
 ! A113  A(56,58,62)           119.5106         estimate D2E/DX2                !
 ! A114  A(61,58,62)           119.0957         estimate D2E/DX2                !
 ! A115  A(57,59,63)           120.1355         estimate D2E/DX2                !
 ! A116  A(57,59,64)           120.3311         estimate D2E/DX2                !
 ! A117  A(63,59,64)           119.53           estimate D2E/DX2                !
 ! A118  A(58,61,63)           120.1475         estimate D2E/DX2                !
 ! A119  A(58,61,65)           120.3227         estimate D2E/DX2                !
 ! A120  A(63,61,65)           119.5266         estimate D2E/DX2                !
 ! A121  A(59,63,61)           119.1602         estimate D2E/DX2                !
 ! A122  A(59,63,66)           120.4162         estimate D2E/DX2                !
 ! A123  A(61,63,66)           120.4236         estimate D2E/DX2                !
 ! A124  L(63,66,69,64,-1)     179.998          estimate D2E/DX2                !
 ! A125  L(53,67,68,54,-1)     179.9974         estimate D2E/DX2                !
 ! A126  L(63,66,69,64,-2)     179.9896         estimate D2E/DX2                !
 ! A127  L(53,67,68,54,-2)     179.9929         estimate D2E/DX2                !
 ! D1    D(6,1,2,3)             -0.2544         estimate D2E/DX2                !
 ! D2    D(6,1,2,15)           179.1132         estimate D2E/DX2                !
 ! D3    D(37,1,2,3)          -178.4163         estimate D2E/DX2                !
 ! D4    D(37,1,2,15)            0.9513         estimate D2E/DX2                !
 ! D5    D(2,1,6,5)              0.0105         estimate D2E/DX2                !
 ! D6    D(2,1,6,46)          -179.9227         estimate D2E/DX2                !
 ! D7    D(37,1,6,5)           178.1491         estimate D2E/DX2                !
 ! D8    D(37,1,6,46)           -1.7841         estimate D2E/DX2                !
 ! D9    D(1,2,3,4)              0.4205         estimate D2E/DX2                !
 ! D10   D(1,2,3,18)          -179.9306         estimate D2E/DX2                !
 ! D11   D(15,2,3,4)          -178.9464         estimate D2E/DX2                !
 ! D12   D(15,2,3,18)            0.7025         estimate D2E/DX2                !
 ! D13   D(2,3,4,5)             -0.3379         estimate D2E/DX2                !
 ! D14   D(2,3,4,7)           -178.7892         estimate D2E/DX2                !
 ! D15   D(18,3,4,5)          -179.9833         estimate D2E/DX2                !
 ! D16   D(18,3,4,7)             1.5654         estimate D2E/DX2                !
 ! D17   D(2,3,18,9)          -176.4331         estimate D2E/DX2                !
 ! D18   D(2,3,18,19)           -0.6914         estimate D2E/DX2                !
 ! D19   D(4,3,18,9)             3.2098         estimate D2E/DX2                !
 ! D20   D(4,3,18,19)          178.9515         estimate D2E/DX2                !
 ! D21   D(3,4,5,6)              0.1015         estimate D2E/DX2                !
 ! D22   D(3,4,5,16)          -177.9877         estimate D2E/DX2                !
 ! D23   D(7,4,5,6)            178.6037         estimate D2E/DX2                !
 ! D24   D(7,4,5,16)             0.5145         estimate D2E/DX2                !
 ! D25   D(3,4,7,8)             -5.0457         estimate D2E/DX2                !
 ! D26   D(3,4,7,38)           114.7141         estimate D2E/DX2                !
 ! D27   D(3,4,7,42)          -125.6657         estimate D2E/DX2                !
 ! D28   D(5,4,7,8)            176.5205         estimate D2E/DX2                !
 ! D29   D(5,4,7,38)           -63.7197         estimate D2E/DX2                !
 ! D30   D(5,4,7,42)            55.9006         estimate D2E/DX2                !
 ! D31   D(4,5,6,1)              0.0645         estimate D2E/DX2                !
 ! D32   D(4,5,6,46)           179.998          estimate D2E/DX2                !
 ! D33   D(16,5,6,1)           178.1539         estimate D2E/DX2                !
 ! D34   D(16,5,6,46)           -1.9127         estimate D2E/DX2                !
 ! D35   D(1,6,46,47)          147.4412         estimate D2E/DX2                !
 ! D36   D(1,6,46,48)          -32.514          estimate D2E/DX2                !
 ! D37   D(5,6,46,47)          -32.4892         estimate D2E/DX2                !
 ! D38   D(5,6,46,48)          147.5556         estimate D2E/DX2                !
 ! D39   D(4,7,8,9)              4.4629         estimate D2E/DX2                !
 ! D40   D(4,7,8,14)          -176.458          estimate D2E/DX2                !
 ! D41   D(38,7,8,9)          -115.3537         estimate D2E/DX2                !
 ! D42   D(38,7,8,14)           63.7253         estimate D2E/DX2                !
 ! D43   D(42,7,8,9)           125.0221         estimate D2E/DX2                !
 ! D44   D(42,7,8,14)          -55.8988         estimate D2E/DX2                !
 ! D45   D(4,7,38,39)          -60.742          estimate D2E/DX2                !
 ! D46   D(4,7,38,40)           59.2638         estimate D2E/DX2                !
 ! D47   D(4,7,38,41)          179.3041         estimate D2E/DX2                !
 ! D48   D(8,7,38,39)           60.5989         estimate D2E/DX2                !
 ! D49   D(8,7,38,40)         -179.3952         estimate D2E/DX2                !
 ! D50   D(8,7,38,41)          -59.355          estimate D2E/DX2                !
 ! D51   D(42,7,38,39)         179.9624         estimate D2E/DX2                !
 ! D52   D(42,7,38,40)         -60.0317         estimate D2E/DX2                !
 ! D53   D(42,7,38,41)          60.0085         estimate D2E/DX2                !
 ! D54   D(4,7,42,43)          -59.2561         estimate D2E/DX2                !
 ! D55   D(4,7,42,44)           60.9411         estimate D2E/DX2                !
 ! D56   D(4,7,42,45)         -178.8336         estimate D2E/DX2                !
 ! D57   D(8,7,42,43)          178.8818         estimate D2E/DX2                !
 ! D58   D(8,7,42,44)          -60.921          estimate D2E/DX2                !
 ! D59   D(8,7,42,45)           59.3044         estimate D2E/DX2                !
 ! D60   D(38,7,42,43)          59.8401         estimate D2E/DX2                !
 ! D61   D(38,7,42,44)        -179.9627         estimate D2E/DX2                !
 ! D62   D(38,7,42,45)         -59.7374         estimate D2E/DX2                !
 ! D63   D(7,8,9,10)           179.8062         estimate D2E/DX2                !
 ! D64   D(7,8,9,18)            -0.3806         estimate D2E/DX2                !
 ! D65   D(14,8,9,10)            0.7168         estimate D2E/DX2                !
 ! D66   D(14,8,9,18)         -179.4701         estimate D2E/DX2                !
 ! D67   D(7,8,14,13)         -179.8027         estimate D2E/DX2                !
 ! D68   D(7,8,14,36)            1.7402         estimate D2E/DX2                !
 ! D69   D(9,8,14,13)           -0.6833         estimate D2E/DX2                !
 ! D70   D(9,8,14,36)         -179.1404         estimate D2E/DX2                !
 ! D71   D(8,9,10,11)         -179.6791         estimate D2E/DX2                !
 ! D72   D(8,9,10,12)           -0.2188         estimate D2E/DX2                !
 ! D73   D(18,9,10,11)           0.5059         estimate D2E/DX2                !
 ! D74   D(18,9,10,12)         179.9661         estimate D2E/DX2                !
 ! D75   D(8,9,18,3)            -3.8025         estimate D2E/DX2                !
 ! D76   D(8,9,18,19)         -179.5443         estimate D2E/DX2                !
 ! D77   D(10,9,18,3)          176.0094         estimate D2E/DX2                !
 ! D78   D(10,9,18,19)           0.2675         estimate D2E/DX2                !
 ! D79   D(9,10,12,13)          -0.3624         estimate D2E/DX2                !
 ! D80   D(9,10,12,17)        -178.5567         estimate D2E/DX2                !
 ! D81   D(11,10,12,13)        179.0985         estimate D2E/DX2                !
 ! D82   D(11,10,12,17)          0.9042         estimate D2E/DX2                !
 ! D83   D(10,12,13,14)          0.4102         estimate D2E/DX2                !
 ! D84   D(10,12,13,56)       -179.5706         estimate D2E/DX2                !
 ! D85   D(17,12,13,14)        178.5814         estimate D2E/DX2                !
 ! D86   D(17,12,13,56)         -1.3994         estimate D2E/DX2                !
 ! D87   D(12,13,14,8)           0.1201         estimate D2E/DX2                !
 ! D88   D(12,13,14,36)        178.5775         estimate D2E/DX2                !
 ! D89   D(56,13,14,8)        -179.899          estimate D2E/DX2                !
 ! D90   D(56,13,14,36)         -1.4416         estimate D2E/DX2                !
 ! D91   D(12,13,56,57)        147.3881         estimate D2E/DX2                !
 ! D92   D(12,13,56,58)        -32.5929         estimate D2E/DX2                !
 ! D93   D(14,13,56,57)        -32.5919         estimate D2E/DX2                !
 ! D94   D(14,13,56,58)        147.4271         estimate D2E/DX2                !
 ! D95   D(3,18,19,20)         -87.8954         estimate D2E/DX2                !
 ! D96   D(3,18,19,21)          92.1158         estimate D2E/DX2                !
 ! D97   D(9,18,19,20)          87.9551         estimate D2E/DX2                !
 ! D98   D(9,18,19,21)         -92.0337         estimate D2E/DX2                !
 ! D99   D(18,19,20,22)          0.024          estimate D2E/DX2                !
 ! D100  D(18,19,20,23)       -179.9843         estimate D2E/DX2                !
 ! D101  D(21,19,20,22)       -179.9874         estimate D2E/DX2                !
 ! D102  D(21,19,20,23)          0.0043         estimate D2E/DX2                !
 ! D103  D(18,19,21,24)        179.9835         estimate D2E/DX2                !
 ! D104  D(18,19,21,25)          0.0014         estimate D2E/DX2                !
 ! D105  D(20,19,21,24)         -0.005          estimate D2E/DX2                !
 ! D106  D(20,19,21,25)       -179.9872         estimate D2E/DX2                !
 ! D107  D(19,20,22,26)        179.9919         estimate D2E/DX2                !
 ! D108  D(19,20,22,27)          0.0042         estimate D2E/DX2                !
 ! D109  D(23,20,22,26)          0.0002         estimate D2E/DX2                !
 ! D110  D(23,20,22,27)       -179.9875         estimate D2E/DX2                !
 ! D111  D(19,20,23,28)       -179.997          estimate D2E/DX2                !
 ! D112  D(19,20,23,29)         -0.0005         estimate D2E/DX2                !
 ! D113  D(22,20,23,28)         -0.005          estimate D2E/DX2                !
 ! D114  D(22,20,23,29)        179.9915         estimate D2E/DX2                !
 ! D115  D(19,21,24,29)          0.0018         estimate D2E/DX2                !
 ! D116  D(19,21,24,30)       -179.9896         estimate D2E/DX2                !
 ! D117  D(25,21,24,29)        179.9837         estimate D2E/DX2                !
 ! D118  D(25,21,24,30)         -0.0078         estimate D2E/DX2                !
 ! D119  D(20,22,26,31)          0.0041         estimate D2E/DX2                !
 ! D120  D(20,22,26,32)       -179.9827         estimate D2E/DX2                !
 ! D121  D(27,22,26,31)        179.9916         estimate D2E/DX2                !
 ! D122  D(27,22,26,32)          0.0048         estimate D2E/DX2                !
 ! D123  D(20,23,28,31)          0.0057         estimate D2E/DX2                !
 ! D124  D(20,23,28,33)        179.9965         estimate D2E/DX2                !
 ! D125  D(29,23,28,31)       -179.9907         estimate D2E/DX2                !
 ! D126  D(29,23,28,33)          0.0001         estimate D2E/DX2                !
 ! D127  D(20,23,29,24)         -0.0026         estimate D2E/DX2                !
 ! D128  D(20,23,29,34)        179.9963         estimate D2E/DX2                !
 ! D129  D(28,23,29,24)        179.9938         estimate D2E/DX2                !
 ! D130  D(28,23,29,34)         -0.0073         estimate D2E/DX2                !
 ! D131  D(21,24,29,23)          0.002          estimate D2E/DX2                !
 ! D132  D(21,24,29,34)       -179.9969         estimate D2E/DX2                !
 ! D133  D(30,24,29,23)        179.9934         estimate D2E/DX2                !
 ! D134  D(30,24,29,34)         -0.0055         estimate D2E/DX2                !
 ! D135  D(22,26,31,28)         -0.0035         estimate D2E/DX2                !
 ! D136  D(22,26,31,35)       -179.9923         estimate D2E/DX2                !
 ! D137  D(32,26,31,28)        179.9834         estimate D2E/DX2                !
 ! D138  D(32,26,31,35)         -0.0054         estimate D2E/DX2                !
 ! D139  D(23,28,31,26)         -0.0015         estimate D2E/DX2                !
 ! D140  D(23,28,31,35)        179.9872         estimate D2E/DX2                !
 ! D141  D(33,28,31,26)       -179.9922         estimate D2E/DX2                !
 ! D142  D(33,28,31,35)         -0.0035         estimate D2E/DX2                !
 ! D143  D(6,46,47,49)         179.8852         estimate D2E/DX2                !
 ! D144  D(6,46,47,50)          -1.7818         estimate D2E/DX2                !
 ! D145  D(48,46,47,49)         -0.1582         estimate D2E/DX2                !
 ! D146  D(48,46,47,50)        178.1748         estimate D2E/DX2                !
 ! D147  D(6,46,48,51)         179.9484         estimate D2E/DX2                !
 ! D148  D(6,46,48,52)          -1.6416         estimate D2E/DX2                !
 ! D149  D(47,46,48,51)         -0.0083         estimate D2E/DX2                !
 ! D150  D(47,46,48,52)        178.4018         estimate D2E/DX2                !
 ! D151  D(46,47,49,53)          0.187          estimate D2E/DX2                !
 ! D152  D(46,47,49,54)        179.4989         estimate D2E/DX2                !
 ! D153  D(50,47,49,53)       -178.1536         estimate D2E/DX2                !
 ! D154  D(50,47,49,54)          1.1583         estimate D2E/DX2                !
 ! D155  D(46,48,51,53)          0.1446         estimate D2E/DX2                !
 ! D156  D(46,48,51,55)        179.4924         estimate D2E/DX2                !
 ! D157  D(52,48,51,53)       -178.2718         estimate D2E/DX2                !
 ! D158  D(52,48,51,55)          1.076          estimate D2E/DX2                !
 ! D159  D(47,49,53,51)         -0.0471         estimate D2E/DX2                !
 ! D160  D(47,49,53,67)        179.9282         estimate D2E/DX2                !
 ! D161  D(54,49,53,51)       -179.3646         estimate D2E/DX2                !
 ! D162  D(54,49,53,67)          0.6107         estimate D2E/DX2                !
 ! D163  D(48,51,53,49)         -0.1163         estimate D2E/DX2                !
 ! D164  D(48,51,53,67)        179.9084         estimate D2E/DX2                !
 ! D165  D(55,51,53,49)       -179.4693         estimate D2E/DX2                !
 ! D166  D(55,51,53,67)          0.5554         estimate D2E/DX2                !
 ! D167  D(13,56,57,59)        179.8667         estimate D2E/DX2                !
 ! D168  D(13,56,57,60)         -1.7894         estimate D2E/DX2                !
 ! D169  D(58,56,57,59)         -0.1517         estimate D2E/DX2                !
 ! D170  D(58,56,57,60)        178.1922         estimate D2E/DX2                !
 ! D171  D(13,56,58,61)        179.9782         estimate D2E/DX2                !
 ! D172  D(13,56,58,62)         -1.6186         estimate D2E/DX2                !
 ! D173  D(57,56,58,61)         -0.0034         estimate D2E/DX2                !
 ! D174  D(57,56,58,62)        178.3998         estimate D2E/DX2                !
 ! D175  D(56,57,59,63)          0.1762         estimate D2E/DX2                !
 ! D176  D(56,57,59,64)        179.4948         estimate D2E/DX2                !
 ! D177  D(60,57,59,63)       -178.1755         estimate D2E/DX2                !
 ! D178  D(60,57,59,64)          1.143          estimate D2E/DX2                !
 ! D179  D(56,58,61,63)          0.1327         estimate D2E/DX2                !
 ! D180  D(56,58,61,65)        179.4846         estimate D2E/DX2                !
 ! D181  D(62,58,61,63)       -178.277          estimate D2E/DX2                !
 ! D182  D(62,58,61,65)          1.0749         estimate D2E/DX2                !
 ! D183  D(57,59,63,61)         -0.0434         estimate D2E/DX2                !
 ! D184  D(57,59,63,66)        179.9373         estimate D2E/DX2                !
 ! D185  D(64,59,63,61)       -179.3674         estimate D2E/DX2                !
 ! D186  D(64,59,63,66)          0.6133         estimate D2E/DX2                !
 ! D187  D(58,61,63,59)         -0.1089         estimate D2E/DX2                !
 ! D188  D(58,61,63,66)        179.9104         estimate D2E/DX2                !
 ! D189  D(65,61,63,59)       -179.4659         estimate D2E/DX2                !
 ! D190  D(65,61,63,66)          0.5534         estimate D2E/DX2                !
 --------------------------------------------------------------------------------
 Trust Radius=3.00D-01 FncErr=1.00D-07 GrdErr=1.00D-06
 Number of steps in this run=    402 maximum allowed number of steps=    414.
 GradGradGradGradGradGradGradGradGradGradGradGradGradGradGradGradGradGrad

 Leave Link  103 at Sun Feb 14 10:50:47 2021, MaxMem=  5242880000 cpu:         1.2
 (Enter /opt/nce/packages/global/g09/l202.exe)
 Symmetry turned off by external request.
 Stoichiometry    C39H27N3
 Framework group  C1[X(C39H27N3)]
 Deg. of freedom   201
 Full point group                 C1      NOp   1
                          Input orientation:                          
 ---------------------------------------------------------------------
 Center     Atomic      Atomic             Coordinates (Angstroms)
 Number     Number       Type             X           Y           Z
 ---------------------------------------------------------------------
      1          6           0        3.655688    0.761369   -0.403318
      2          6           0        2.431360    1.397545   -0.543103
      3          6           0        1.222255    0.675122   -0.467164
      4          6           0        1.264744   -0.716643   -0.236159
      5          6           0        2.515776   -1.324140   -0.098681
      6          6           0        3.729002   -0.623482   -0.176165
      7          6           0        0.000687   -1.578702   -0.166834
      8          6           0       -1.263899   -0.718838   -0.252928
      9          6           0       -1.220416    0.674895   -0.471414
     10          6           0       -2.429045    1.398539   -0.542641
     11          1           0       -2.401456    2.472717   -0.716202
     12          6           0       -3.653750    0.762364   -0.406195
     13          6           0       -3.728285   -0.625663   -0.200052
     14          6           0       -2.515618   -1.328168   -0.130752
     15          1           0        2.403789    2.473719   -0.703874
     16          1           0        2.552001   -2.404264    0.046496
     17          1           0       -4.567165    1.353841   -0.491183
     18          7           0        0.001151    1.341720   -0.613153
     19          6           0        0.001362    2.758345   -0.823789
     20          6           0       -0.000051    3.630455    0.306583
     21          6           0        0.002682    3.262123   -2.107392
     22          6           0       -0.001169    3.145814    1.642337
     23          6           0       -0.000162    5.046165    0.076202
     24          6           0        0.002553    4.660240   -2.329176
     25          1           0        0.003528    2.566002   -2.948090
     26          6           0       -0.002350    4.023802    2.705059
     27          1           0       -0.000873    2.068735    1.813510
     28          6           0       -0.001501    5.921856    1.197020
     29          6           0        0.001141    5.530962   -1.260783
     30          1           0        0.003438    5.042430   -3.352148
     31          6           0       -0.002555    5.423689    2.481951
     32          1           0       -0.002917    3.640350    3.727896
     33          1           0       -0.001526    7.000283    1.019938
     34          1           0        0.000985    6.610996   -1.427228
     35          1           0       -0.003368    6.106781    3.334397
     36          1           0       -2.551262   -2.402492    0.052294
     37          1           0        4.567914    1.359503   -0.442262
     38          6           0        0.007954   -2.571970   -1.354903
     39          1           0        0.012000   -2.029339   -2.311785
     40          1           0        0.897987   -3.218286   -1.324290
     41          1           0       -0.881746   -3.219263   -1.332129
     42          6           0       -0.005873   -2.362935    1.167182
     43          1           0        0.880677   -3.007580    1.253421
     44          1           0       -0.011756   -1.671412    2.022726
     45          1           0       -0.890579   -3.011044    1.244881
     46          6           0        5.026325   -1.315974   -0.023337
     47          6           0        5.159649   -2.436608    0.820559
     48          6           0        6.171142   -0.875738   -0.716893
     49          6           0        6.376726   -3.092781    0.965960
     50          1           0        4.298532   -2.783449    1.394225
     51          6           0        7.394704   -1.521109   -0.577461
     52          1           0        6.093549   -0.026700   -1.398023
     53          6           0        7.510934   -2.640578    0.266899
     54          1           0        6.462517   -3.954180    1.630543
     55          1           0        8.268598   -1.170572   -1.129243
     56          6           0       -5.026544   -1.319694   -0.062075
     57          6           0       -5.199638   -2.641070   -0.520002
     58          6           0       -6.132528   -0.680008    0.532151
     59          6           0       -6.417670   -3.298741   -0.389997
     60          1           0       -4.370664   -3.153098   -1.011479
     61          6           0       -7.356670   -1.325584    0.665167
     62          1           0       -6.022397    0.333928    0.920267
     63          6           0       -7.512789   -2.646138    0.205311
     64          1           0       -6.534962   -4.319388   -0.758182
     65          1           0       -8.199657   -0.816750    1.135798
     66          6           0       -8.771854   -3.318112    0.341205
     67          6           0        8.769237   -3.311723    0.413559
     68          7           0        9.788563   -3.855535    0.532317
     69          7           0       -9.791787   -3.862584    0.451429
 ---------------------------------------------------------------------
 Rotational constants (GHZ):      0.1019980      0.0410421      0.0312838
 Leave Link  202 at Sun Feb 14 10:50:47 2021, MaxMem=  5242880000 cpu:         0.1
 (Enter /opt/nce/packages/global/g09/l301.exe)
 Standard basis: def2TZVP (5D, 7F)
 Ernie: Thresh=  0.10000D-02 Tol=  0.10000D-05 Strict=F.
  1464 basis functions,  2358 primitive gaussians,  1674 cartesian basis functions
   141 alpha electrons      141 beta electrons
       nuclear repulsion energy      4204.9252395032 Hartrees.
 IExCor=  402 DFT=T Ex+Corr=B3LYP ExCW=0 ScaHFX=  0.200000
 ScaDFX=  0.800000  0.720000  1.000000  0.810000 ScalE2=  1.000000  1.000000
 IRadAn=      5 IRanWt=     -1 IRanGd=            0 ICorTp=0 IEmpDi=141
 NAtoms=   69 NActive=   69 NUniq=   69 SFac= 1.00D+00 NAtFMM=   60 NAOKFM=T Big=T
 Integral buffers will be    131072 words long.
 Raffenetti 2 integral format.
 Two-electron integral symmetry is turned off.
 R6Disp:  Grimme-D3(BJ) Dispersion energy=       -0.1859561922 Hartrees.
 Nuclear repulsion after empirical dispersion term =     4204.7392833110 Hartrees.
 ------------------------------------------------------------------------------
 Polarizable Continuum Model (PCM)
 =================================
 Model                : PCM (using non-symmetric T matrix).
 Atomic radii         : SMD-Coulomb.
 Polarization charges : Total charges.
 Charge compensation  : None.
 Solution method      : On-the-fly selection.
 Cavity type          : VdW (van der Waals Surface) (Alpha=1.000).
 Cavity algorithm     : GePol (No added spheres)
                        Default sphere list used, NSphG=   69.
                        Lebedev-Laikov grids with approx.  5.0 points / Ang**2.
                        Smoothing algorithm: York/Karplus (Gamma=1.0000).
                        Polarization charges: spherical gaussians, with
                                              point-specific exponents (IZeta= 3).
                        Self-potential: point-specific (ISelfS= 7).
                        Self-field    : sphere-specific E.n sum rule (ISelfD= 2).
 1st derivatives      : Analytical E(r).r(x)/FMM algorithm (CHGder, D1EAlg=3).
                        Cavity 1st derivative terms included.
 Solvent              : n,n-DiMethylFormamide, Eps=  37.219000 Eps(inf)=   2.046330
 ------------------------------------------------------------------------------
 GePol: Number of generator spheres                  =      69
 GePol: Total number of spheres                      =      69
 GePol: Number of exposed spheres                    =      69 (100.00%)
 GePol: Number of points                             =    5359
 GePol: Average weight of points                     =       0.11
 GePol: Minimum weight of points                     =   0.49D-11
 GePol: Maximum weight of points                     =    0.17992
 GePol: Number of points with low weight             =     307
 GePol: Fraction of low-weight points (<1% of avg)   =       5.73%
 GePol: Cavity surface area                          =    575.459 Ang**2
 GePol: Cavity volume                                =    565.600 Ang**3
 ------------------------------------------------------------------------------
 Atomic radii for non-electrostatic terms: SMD-CDS.
 ------------------------------------------------------------------------------
 PCM non-electrostatic energy =        -0.0036462890 Hartrees.
 Nuclear repulsion after PCM non-electrostatic terms =     4204.7356370220 Hartrees.
 Leave Link  301 at Sun Feb 14 10:50:47 2021, MaxMem=  5242880000 cpu:         1.6
 (Enter /opt/nce/packages/global/g09/l302.exe)
 NPDir=0 NMtPBC=     1 NCelOv=     1 NCel=       1 NClECP=     1 NCelD=      1
         NCelK=      1 NCelE2=     1 NClLst=     1 CellRange=     0.0.
 One-electron integrals computed using PRISM.
   1 Symmetry operations used in ECPInt.
 ECPInt:  NShTT=  162735 NPrTT=  503508 LenC2=  113989 LenP2D=  233081.
 LDataN:  DoStor=T MaxTD1= 6 Len=  172
 NBasis=  1464 RedAO= T EigKep=  3.48D-06  NBF=  1464
 NBsUse=  1464 1.00D-06 EigRej= -1.00D+00 NBFU=  1464
 Precomputing XC quadrature grid using
 IXCGrd= 4 IRadAn=           5 IRanWt=          -1 IRanGd=           0 AccXCQ= 0.00D+00.
 Generated NRdTot=       0 NPtTot=           0 NUsed=           0 NTot=          32
 NSgBfM=  1456  1456  1463  1473  1473 MxSgAt=    69 MxSgA2=    69.
 Leave Link  302 at Sun Feb 14 10:50:52 2021, MaxMem=  5242880000 cpu:        55.6
 (Enter /opt/nce/packages/global/g09/l303.exe)
 DipDrv:  MaxL=1.
 Leave Link  303 at Sun Feb 14 10:50:53 2021, MaxMem=  5242880000 cpu:         4.8
 (Enter /opt/nce/packages/global/g09/l401.exe)
 ExpMin= 9.52D-02 ExpMax= 1.97D+04 ExpMxC= 6.73D+02 IAcc=3 IRadAn=         5 AccDes= 0.00D+00
 Harris functional with IExCor=  402 and IRadAn=       5 diagonalized for initial guess.
 HarFok:  IExCor=  402 AccDes= 0.00D+00 IRadAn=         5 IDoV= 1 UseB2=F ITyADJ=14
 ICtDFT=  3500011 ScaDFX=  1.000000  1.000000  1.000000  1.000000
 FoFCou: FMM=F IPFlag=           0 FMFlag=      100000 FMFlg1=        2001
         NFxFlg=           0 DoJE=T BraDBF=F KetDBF=T FulRan=T
         wScrn=  0.000000 ICntrl=     500 IOpCl=  0 I1Cent=   200000004 NGrid=           0
         NMat0=    1 NMatS0=      1 NMatT0=    0 NMatD0=    1 NMtDS0=    0 NMtDT0=    0
 Symmetry not used in FoFCou.
 Harris En= -1667.53142527582    
 JPrj=0 DoOrth=F DoCkMO=F.
 Leave Link  401 at Sun Feb 14 10:51:10 2021, MaxMem=  5242880000 cpu:       204.8
 (Enter /opt/nce/packages/global/g09/l502.exe)
 Closed shell SCF:
 Using DIIS extrapolation, IDIIS=  1040.
 Two-electron integral symmetry not used.
 IVT=     8455648 IEndB=     8455648 NGot=  5242880000 MDV=  5237244943
 LenX=  5237244943 LenY=  5234440993
 Requested convergence on RMS density matrix=1.00D-08 within 128 cycles.
 Requested convergence on MAX density matrix=1.00D-06.
 Requested convergence on             energy=1.00D-06.
 No special actions if energy rises.
 Fock matrices will be formed incrementally for  20 cycles.

 Cycle   1  Pass 1  IDiag  1:
 FoFJK:  IHMeth= 1 ICntrl=       0 DoSepK=F KAlg= 0 I1Cent=   0 FoldK=F
 IRaf= 640000000 NMat=   1 IRICut=       1 DoRegI=T DoRafI=F ISym2E= 0.
 FoFCou: FMM=T IPFlag=           0 FMFlag=      100000 FMFlg1=        2001
         NFxFlg=           0 DoJE=F BraDBF=F KetDBF=F FulRan=T
         wScrn=  0.000000 ICntrl=       0 IOpCl=  0 I1Cent=           0 NGrid=           0
         NMat0=    1 NMatS0=      1 NMatT0=    0 NMatD0=    1 NMtDS0=    0 NMtDT0=    0
 Symmetry not used in FoFCou.
 FMM levels:  10  Number of levels for PrismC:   9
 Inv3:  Mode=1 IEnd=    86156643.
 Iteration    1 A*A^-1 deviation from unit magnitude is 1.09D-14 for   5340.
 Iteration    1 A*A^-1 deviation from orthogonality  is 8.23D-15 for   5353   4639.
 Iteration    1 A^-1*A deviation from unit magnitude is 1.07D-14 for   5340.
 Iteration    1 A^-1*A deviation from orthogonality  is 3.69D-11 for   4864   4855.
 E= -1666.60024971560    
 DIIS: error= 2.36D-02 at cycle   1 NSaved=   1.
 NSaved= 1 IEnMin= 1 EnMin= -1666.60024971560     IErMin= 1 ErrMin= 2.36D-02
 ErrMax= 2.36D-02  0.00D+00 EMaxC= 1.00D-01 BMatC= 9.43D-01 BMatP= 9.43D-01
 IDIUse=3 WtCom= 7.64D-01 WtEn= 2.36D-01
 Coeff-Com:  0.100D+01
 Coeff-En:   0.100D+01
 Coeff:      0.100D+01
 Gap=     0.149 Goal=   None    Shift=    0.000
 GapD=    0.149 DampG=1.000 DampE=0.500 DampFc=0.5000 IDamp=-1.
 Damping current iteration by 5.00D-01
 RMSDP=2.11D-03 MaxDP=2.27D-01              OVMax= 2.27D-01

 Cycle   2  Pass 1  IDiag  1:
 RMSU=  1.04D-03    CP:  9.66D-01
 E= -1666.99902085328     Delta-E=       -0.398771137686 Rises=F Damp=T
 DIIS: error= 5.07D-03 at cycle   2 NSaved=   2.
 NSaved= 2 IEnMin= 2 EnMin= -1666.99902085328     IErMin= 2 ErrMin= 5.07D-03
 ErrMax= 5.07D-03  0.00D+00 EMaxC= 1.00D-01 BMatC= 8.12D-02 BMatP= 9.43D-01
 IDIUse=3 WtCom= 9.49D-01 WtEn= 5.07D-02
 Coeff-Com:  0.272D-01 0.973D+00
 Coeff-En:   0.748D-01 0.925D+00
 Coeff:      0.296D-01 0.970D+00
 Gap=     0.116 Goal=   None    Shift=    0.000
 RMSDP=6.77D-04 MaxDP=9.22D-02 DE=-3.99D-01 OVMax= 2.54D-01

 Cycle   3  Pass 1  IDiag  1:
 RMSU=  5.88D-04    CP:  9.46D-01  6.90D-01
 E= -1667.36865877691     Delta-E=       -0.369637923630 Rises=F Damp=F
 DIIS: error= 9.11D-03 at cycle   3 NSaved=   3.
 NSaved= 3 IEnMin= 3 EnMin= -1667.36865877691     IErMin= 2 ErrMin= 5.07D-03
 ErrMax= 9.11D-03  0.00D+00 EMaxC= 1.00D-01 BMatC= 1.38D-01 BMatP= 8.12D-02
 IDIUse=3 WtCom= 9.48D-02 WtEn= 9.05D-01
 Coeff-Com: -0.643D-01 0.609D+00 0.455D+00
 Coeff-En:   0.000D+00 0.000D+00 0.100D+01
 Coeff:     -0.610D-02 0.578D-01 0.948D+00
 Gap=     0.170 Goal=   None    Shift=    0.000
 RMSDP=8.98D-04 MaxDP=1.43D-01 DE=-3.70D-01 OVMax= 2.28D-01

 Cycle   4  Pass 1  IDiag  1:
 RMSU=  6.36D-04    CP:  9.42D-01  1.12D+00  2.46D-01
 E= -1666.93701577888     Delta-E=        0.431642998029 Rises=F Damp=F
 DIIS: error= 1.96D-02 at cycle   4 NSaved=   4.
 NSaved= 4 IEnMin= 3 EnMin= -1667.36865877691     IErMin= 2 ErrMin= 5.07D-03
 ErrMax= 1.96D-02  0.00D+00 EMaxC= 1.00D-01 BMatC= 5.97D-01 BMatP= 8.12D-02
 IDIUse=2 WtCom= 0.00D+00 WtEn= 1.00D+00
 Coeff-En:   0.000D+00 0.000D+00 0.751D+00 0.249D+00
 Coeff:      0.000D+00 0.000D+00 0.751D+00 0.249D+00
 Gap=     0.138 Goal=   None    Shift=    0.000
 RMSDP=5.40D-04 MaxDP=1.02D-01 DE= 4.32D-01 OVMax= 1.28D-01

 Cycle   5  Pass 1  IDiag  1:
 RMSU=  1.22D-04    CP:  9.44D-01  8.24D-01  6.43D-01  4.46D-01
 E= -1667.46571925720     Delta-E=       -0.528703478315 Rises=F Damp=F
 DIIS: error= 4.29D-03 at cycle   5 NSaved=   5.
 NSaved= 5 IEnMin= 5 EnMin= -1667.46571925720     IErMin= 5 ErrMin= 4.29D-03
 ErrMax= 4.29D-03  0.00D+00 EMaxC= 1.00D-01 BMatC= 3.76D-02 BMatP= 8.12D-02
 IDIUse=3 WtCom= 9.57D-01 WtEn= 4.29D-02
 Coeff-Com:  0.588D-02-0.335D-02 0.327D+00-0.103D-01 0.681D+00
 Coeff-En:   0.000D+00 0.000D+00 0.269D+00 0.000D+00 0.731D+00
 Coeff:      0.563D-02-0.320D-02 0.325D+00-0.987D-02 0.683D+00
 Gap=     0.122 Goal=   None    Shift=    0.000
 RMSDP=1.43D-04 MaxDP=1.84D-02 DE=-5.29D-01 OVMax= 6.35D-02

 Cycle   6  Pass 1  IDiag  1:
 RMSU=  3.40D-05    CP:  9.45D-01  7.77D-01  7.72D-01  2.94D-01  6.53D-01
 E= -1667.50093871508     Delta-E=       -0.035219457882 Rises=F Damp=F
 DIIS: error= 7.12D-04 at cycle   6 NSaved=   6.
 NSaved= 6 IEnMin= 6 EnMin= -1667.50093871508     IErMin= 6 ErrMin= 7.12D-04
 ErrMax= 7.12D-04  0.00D+00 EMaxC= 1.00D-01 BMatC= 8.53D-04 BMatP= 3.76D-02
 IDIUse=3 WtCom= 9.93D-01 WtEn= 7.12D-03
 Coeff-Com:  0.302D-02-0.853D-02 0.133D+00-0.535D-01 0.479D+00 0.447D+00
 Coeff-En:   0.000D+00 0.000D+00 0.000D+00 0.000D+00 0.000D+00 0.100D+01
 Coeff:      0.300D-02-0.847D-02 0.132D+00-0.531D-01 0.476D+00 0.451D+00
 Gap=     0.123 Goal=   None    Shift=    0.000
 RMSDP=2.40D-05 MaxDP=3.12D-03 DE=-3.52D-02 OVMax= 9.81D-03

 Cycle   7  Pass 1  IDiag  1:
 RMSU=  1.07D-05    CP:  9.44D-01  7.70D-01  7.68D-01  2.94D-01  7.77D-01
                    CP:  6.13D-01
 E= -1667.50168666390     Delta-E=       -0.000747948817 Rises=F Damp=F
 DIIS: error= 1.51D-04 at cycle   7 NSaved=   7.
 NSaved= 7 IEnMin= 7 EnMin= -1667.50168666390     IErMin= 7 ErrMin= 1.51D-04
 ErrMax= 1.51D-04  0.00D+00 EMaxC= 1.00D-01 BMatC= 3.88D-05 BMatP= 8.53D-04
 IDIUse=3 WtCom= 9.98D-01 WtEn= 1.51D-03
 Coeff-Com:  0.105D-02-0.236D-02 0.535D-01-0.313D-01 0.226D+00 0.257D+00
 Coeff-Com:  0.496D+00
 Coeff-En:   0.000D+00 0.000D+00 0.000D+00 0.000D+00 0.000D+00 0.000D+00
 Coeff-En:   0.100D+01
 Coeff:      0.105D-02-0.236D-02 0.534D-01-0.313D-01 0.225D+00 0.257D+00
 Coeff:      0.497D+00
 Gap=     0.123 Goal=   None    Shift=    0.000
 RMSDP=4.63D-06 MaxDP=4.24D-04 DE=-7.48D-04 OVMax= 2.00D-03

 Cycle   8  Pass 1  IDiag  1:
 RMSU=  3.95D-06    CP:  9.44D-01  7.70D-01  7.69D-01  2.94D-01  7.69D-01
                    CP:  6.41D-01  8.29D-01
 E= -1667.50172391687     Delta-E=       -0.000037252975 Rises=F Damp=F
 DIIS: error= 4.34D-05 at cycle   8 NSaved=   8.
 NSaved= 8 IEnMin= 8 EnMin= -1667.50172391687     IErMin= 8 ErrMin= 4.34D-05
 ErrMax= 4.34D-05  0.00D+00 EMaxC= 1.00D-01 BMatC= 3.22D-06 BMatP= 3.88D-05
 IDIUse=1 WtCom= 1.00D+00 WtEn= 0.00D+00
 Coeff-Com:  0.170D-03-0.524D-04 0.942D-02-0.848D-02 0.467D-01 0.666D-01
 Coeff-Com:  0.253D+00 0.633D+00
 Coeff:      0.170D-03-0.524D-04 0.942D-02-0.848D-02 0.467D-01 0.666D-01
 Coeff:      0.253D+00 0.633D+00
 Gap=     0.123 Goal=   None    Shift=    0.000
 RMSDP=1.54D-06 MaxDP=1.69D-04 DE=-3.73D-05 OVMax= 4.42D-04

 Cycle   9  Pass 1  IDiag  1:
 RMSU=  1.07D-06    CP:  9.44D-01  7.69D-01  7.69D-01  2.94D-01  7.73D-01
                    CP:  6.41D-01  8.66D-01  8.64D-01
 E= -1667.50172645170     Delta-E=       -0.000002534824 Rises=F Damp=F
 DIIS: error= 1.27D-05 at cycle   9 NSaved=   9.
 NSaved= 9 IEnMin= 9 EnMin= -1667.50172645170     IErMin= 9 ErrMin= 1.27D-05
 ErrMax= 1.27D-05  0.00D+00 EMaxC= 1.00D-01 BMatC= 4.18D-07 BMatP= 3.22D-06
 IDIUse=1 WtCom= 1.00D+00 WtEn= 0.00D+00
 Coeff-Com:  0.426D-04-0.681D-05 0.156D-02-0.231D-02 0.912D-02 0.184D-01
 Coeff-Com:  0.103D+00 0.354D+00 0.516D+00
 Coeff:      0.426D-04-0.681D-05 0.156D-02-0.231D-02 0.912D-02 0.184D-01
 Coeff:      0.103D+00 0.354D+00 0.516D+00
 Gap=     0.123 Goal=   None    Shift=    0.000
 RMSDP=6.10D-07 MaxDP=6.02D-05 DE=-2.53D-06 OVMax= 1.40D-04

 Cycle  10  Pass 1  IDiag  1:
 RMSU=  4.06D-07    CP:  9.44D-01  7.70D-01  7.69D-01  2.94D-01  7.71D-01
                    CP:  6.46D-01  8.74D-01  8.86D-01  7.48D-01
 E= -1667.50172689013     Delta-E=       -0.000000438436 Rises=F Damp=F
 DIIS: error= 2.96D-06 at cycle  10 NSaved=  10.
 NSaved=10 IEnMin=10 EnMin= -1667.50172689013     IErMin=10 ErrMin= 2.96D-06
 ErrMax= 2.96D-06  0.00D+00 EMaxC= 1.00D-01 BMatC= 2.12D-08 BMatP= 4.18D-07
 IDIUse=1 WtCom= 1.00D+00 WtEn= 0.00D+00
 Coeff-Com:  0.358D-05-0.224D-04-0.297D-03-0.192D-04-0.134D-02 0.103D-02
 Coeff-Com:  0.154D-01 0.763D-01 0.222D+00 0.687D+00
 Coeff:      0.358D-05-0.224D-04-0.297D-03-0.192D-04-0.134D-02 0.103D-02
 Coeff:      0.154D-01 0.763D-01 0.222D+00 0.687D+00
 Gap=     0.123 Goal=   None    Shift=    0.000
 RMSDP=1.46D-07 MaxDP=1.22D-05 DE=-4.38D-07 OVMax= 4.59D-05

 Cycle  11  Pass 1  IDiag  1:
 RMSU=  1.06D-07    CP:  9.44D-01  7.70D-01  7.69D-01  2.94D-01  7.71D-01
                    CP:  6.46D-01  8.78D-01  8.95D-01  7.89D-01  8.58D-01
 E= -1667.50172690851     Delta-E=       -0.000000018381 Rises=F Damp=F
 DIIS: error= 1.05D-06 at cycle  11 NSaved=  11.
 NSaved=11 IEnMin=11 EnMin= -1667.50172690851     IErMin=11 ErrMin= 1.05D-06
 ErrMax= 1.05D-06  0.00D+00 EMaxC= 1.00D-01 BMatC= 3.45D-09 BMatP= 2.12D-08
 IDIUse=1 WtCom= 1.00D+00 WtEn= 0.00D+00
 Coeff-Com: -0.325D-05-0.423D-05-0.312D-03 0.153D-03-0.148D-02-0.565D-03
 Coeff-Com:  0.150D-02 0.191D-01 0.897D-01 0.396D+00 0.496D+00
 Coeff:     -0.325D-05-0.423D-05-0.312D-03 0.153D-03-0.148D-02-0.565D-03
 Coeff:      0.150D-02 0.191D-01 0.897D-01 0.396D+00 0.496D+00
 Gap=     0.123 Goal=   None    Shift=    0.000
 RMSDP=4.85D-08 MaxDP=4.78D-06 DE=-1.84D-08 OVMax= 1.42D-05

 Cycle  12  Pass 1  IDiag  1:
 RMSU=  4.03D-08    CP:  9.44D-01  7.70D-01  7.69D-01  2.94D-01  7.71D-01
                    CP:  6.46D-01  8.79D-01  8.95D-01  7.96D-01  8.90D-01
                    CP:  8.16D-01
 E= -1667.50172691184     Delta-E=       -0.000000003324 Rises=F Damp=F
 DIIS: error= 4.11D-07 at cycle  12 NSaved=  12.
 NSaved=12 IEnMin=12 EnMin= -1667.50172691184     IErMin=12 ErrMin= 4.11D-07
 ErrMax= 4.11D-07  0.00D+00 EMaxC= 1.00D-01 BMatC= 2.56D-10 BMatP= 3.45D-09
 IDIUse=1 WtCom= 1.00D+00 WtEn= 0.00D+00
 Coeff-Com: -0.317D-05 0.380D-05-0.137D-03 0.829D-04-0.613D-03-0.347D-03
 Coeff-Com: -0.142D-02-0.406D-03 0.140D-01 0.110D+00 0.231D+00 0.648D+00
 Coeff:     -0.317D-05 0.380D-05-0.137D-03 0.829D-04-0.613D-03-0.347D-03
 Coeff:     -0.142D-02-0.406D-03 0.140D-01 0.110D+00 0.231D+00 0.648D+00
 Gap=     0.123 Goal=   None    Shift=    0.000
 RMSDP=2.07D-08 MaxDP=1.38D-06 DE=-3.32D-09 OVMax= 6.05D-06

 Cycle  13  Pass 1  IDiag  1:
 RMSU=  1.69D-08    CP:  9.44D-01  7.70D-01  7.69D-01  2.94D-01  7.71D-01
                    CP:  6.46D-01  8.79D-01  8.96D-01  7.99D-01  9.05D-01
                    CP:  8.75D-01  8.76D-01
 E= -1667.50172691215     Delta-E=       -0.000000000315 Rises=F Damp=F
 DIIS: error= 1.60D-07 at cycle  13 NSaved=  13.
 NSaved=13 IEnMin=13 EnMin= -1667.50172691215     IErMin=13 ErrMin= 1.60D-07
 ErrMax= 1.60D-07  0.00D+00 EMaxC= 1.00D-01 BMatC= 4.99D-11 BMatP= 2.56D-10
 IDIUse=1 WtCom= 1.00D+00 WtEn= 0.00D+00
 Coeff-Com: -0.138D-05 0.244D-05-0.306D-04 0.208D-04-0.110D-03-0.610D-04
 Coeff-Com: -0.879D-03-0.262D-02-0.574D-02 0.237D-02 0.465D-01 0.360D+00
 Coeff-Com:  0.601D+00
 Coeff:     -0.138D-05 0.244D-05-0.306D-04 0.208D-04-0.110D-03-0.610D-04
 Coeff:     -0.879D-03-0.262D-02-0.574D-02 0.237D-02 0.465D-01 0.360D+00
 Coeff:      0.601D+00
 Gap=     0.123 Goal=   None    Shift=    0.000
 RMSDP=1.22D-08 MaxDP=8.46D-07 DE=-3.15D-10 OVMax= 2.09D-06

 Cycle  14  Pass 1  IDiag  1:
 RMSU=  1.08D-08    CP:  9.44D-01  7.70D-01  7.69D-01  2.94D-01  7.71D-01
                    CP:  6.46D-01  8.79D-01  8.96D-01  7.99D-01  9.11D-01
                    CP:  8.88D-01  9.60D-01  1.03D+00
 E= -1667.50172691217     Delta-E=       -0.000000000020 Rises=F Damp=F
 DIIS: error= 2.90D-08 at cycle  14 NSaved=  14.
 NSaved=14 IEnMin=14 EnMin= -1667.50172691217     IErMin=14 ErrMin= 2.90D-08
 ErrMax= 2.90D-08  0.00D+00 EMaxC= 1.00D-01 BMatC= 2.65D-12 BMatP= 4.99D-11
 IDIUse=1 WtCom= 1.00D+00 WtEn= 0.00D+00
 Coeff-Com: -0.392D-06 0.814D-06-0.229D-05 0.175D-05 0.363D-05 0.107D-04
 Coeff-Com: -0.235D-03-0.103D-02-0.367D-02-0.753D-02 0.134D-02 0.112D+00
 Coeff-Com:  0.274D+00 0.625D+00
 Coeff:     -0.392D-06 0.814D-06-0.229D-05 0.175D-05 0.363D-05 0.107D-04
 Coeff:     -0.235D-03-0.103D-02-0.367D-02-0.753D-02 0.134D-02 0.112D+00
 Coeff:      0.274D+00 0.625D+00
 Gap=     0.123 Goal=   None    Shift=    0.000
 RMSDP=1.32D-08 MaxDP=8.68D-07 DE=-2.00D-11 OVMax= 5.79D-07

 Cycle  15  Pass 1  IDiag  1:
 RMSU=  1.02D-08    CP:  9.44D-01  7.70D-01  7.69D-01  2.94D-01  7.71D-01
                    CP:  6.46D-01  8.79D-01  8.96D-01  7.99D-01  9.11D-01
                    CP:  8.97D-01  9.90D-01  1.30D+00  1.61D+00
 E= -1667.50172691207     Delta-E=        0.000000000096 Rises=F Damp=F
 DIIS: error= 1.30D-08 at cycle  15 NSaved=  15.
 NSaved=15 IEnMin=14 EnMin= -1667.50172691217     IErMin=15 ErrMin= 1.30D-08
 ErrMax= 1.30D-08  0.00D+00 EMaxC= 1.00D-01 BMatC= 5.23D-13 BMatP= 2.65D-12
 IDIUse=1 WtCom= 1.00D+00 WtEn= 0.00D+00
 Coeff-Com: -0.133D-06 0.369D-06 0.484D-06-0.240D-07 0.671D-05 0.524D-05
 Coeff-Com: -0.736D-04-0.397D-03-0.157D-02-0.411D-02-0.279D-02 0.333D-01
 Coeff-Com:  0.103D+00 0.360D+00 0.512D+00
 Coeff:     -0.133D-06 0.369D-06 0.484D-06-0.240D-07 0.671D-05 0.524D-05
 Coeff:     -0.736D-04-0.397D-03-0.157D-02-0.411D-02-0.279D-02 0.333D-01
 Coeff:      0.103D+00 0.360D+00 0.512D+00
 Gap=     0.123 Goal=   None    Shift=    0.000
 RMSDP=1.50D-08 MaxDP=9.44D-07 DE= 9.64D-11 OVMax= 1.60D-07

 Cycle  16  Pass 1  IDiag  1:
 RMSU=  7.05D-09    CP:  9.44D-01  7.70D-01  7.69D-01  2.94D-01  7.71D-01
                    CP:  6.46D-01  8.79D-01  8.96D-01  7.99D-01  9.12D-01
                    CP:  9.03D-01  1.02D+00  1.57D+00  2.38D+00  1.89D+00
 E= -1667.50172691211     Delta-E=       -0.000000000035 Rises=F Damp=F
 DIIS: error= 1.94D-08 at cycle  16 NSaved=  16.
 NSaved=16 IEnMin=14 EnMin= -1667.50172691217     IErMin=15 ErrMin= 1.30D-08
 ErrMax= 1.94D-08  0.00D+00 EMaxC= 1.00D-01 BMatC= 2.85D-13 BMatP= 5.23D-13
 IDIUse=1 WtCom= 1.00D+00 WtEn= 0.00D+00
 Coeff-Com: -0.124D-06 0.347D-06 0.426D-06-0.317D-08 0.608D-05 0.462D-05
 Coeff-Com: -0.686D-04-0.369D-03-0.145D-02-0.379D-02-0.258D-02 0.309D-01
 Coeff-Com:  0.957D-01 0.333D+00 0.474D+00 0.745D-01
 Coeff:     -0.124D-06 0.347D-06 0.426D-06-0.317D-08 0.608D-05 0.462D-05
 Coeff:     -0.686D-04-0.369D-03-0.145D-02-0.379D-02-0.258D-02 0.309D-01
 Coeff:      0.957D-01 0.333D+00 0.474D+00 0.745D-01
 Gap=     0.123 Goal=   None    Shift=    0.000
 RMSDP=2.97D-09 MaxDP=1.79D-07 DE=-3.46D-11 OVMax= 7.10D-09

 Error on total polarization charges =  0.08265
 SCF Done:  E(RB3LYP) =  -1667.50172691     A.U. after   16 cycles
            NFock= 16  Conv=0.30D-08     -V/T= 2.0059
 KE= 1.657715028243D+03 PE=-1.227466702326D+04 EE= 4.744714631088D+03
 SMD-CDS (non-electrostatic) energy       (kcal/mol) =      -2.29
 (included in total energy above)
 Leave Link  502 at Sun Feb 14 11:44:21 2021, MaxMem=  5242880000 cpu:     38200.7
 (Enter /opt/nce/packages/global/g09/l601.exe)
 Copying SCF densities to generalized density rwf, IOpCl= 0 IROHF=0.

 **********************************************************************

            Population analysis using the SCF density.

 **********************************************************************

 Alpha  occ. eigenvalues --  -14.36150 -14.32435 -14.32431 -10.22680 -10.22677
 Alpha  occ. eigenvalues --  -10.22620 -10.22619 -10.22031 -10.21926 -10.21921
 Alpha  occ. eigenvalues --  -10.20338 -10.20329 -10.19965 -10.19680 -10.19676
 Alpha  occ. eigenvalues --  -10.19674 -10.19672 -10.19365 -10.19307 -10.18617
 Alpha  occ. eigenvalues --  -10.18612 -10.18611 -10.18608 -10.18555 -10.18550
 Alpha  occ. eigenvalues --  -10.18463 -10.18456 -10.18396 -10.18304 -10.18207
 Alpha  occ. eigenvalues --  -10.18087 -10.18074 -10.18011 -10.17954 -10.17832
 Alpha  occ. eigenvalues --  -10.17827 -10.17713 -10.17712 -10.17490 -10.17489
 Alpha  occ. eigenvalues --  -10.15794 -10.15738  -0.98545  -0.91998  -0.91994
 Alpha  occ. eigenvalues --   -0.88339  -0.88041  -0.87741  -0.86026  -0.85881
 Alpha  occ. eigenvalues --   -0.82669  -0.82085  -0.80036  -0.78639  -0.77616
 Alpha  occ. eigenvalues --   -0.76235  -0.76136  -0.75353  -0.74761  -0.74534
 Alpha  occ. eigenvalues --   -0.73462  -0.72924  -0.70785  -0.68199  -0.66643
 Alpha  occ. eigenvalues --   -0.65952  -0.63735  -0.63039  -0.62902  -0.62116
 Alpha  occ. eigenvalues --   -0.61674  -0.61028  -0.60868  -0.59310  -0.57358
 Alpha  occ. eigenvalues --   -0.55835  -0.55774  -0.54847  -0.54664  -0.53489
 Alpha  occ. eigenvalues --   -0.51905  -0.50287  -0.50255  -0.49474  -0.49037
 Alpha  occ. eigenvalues --   -0.48200  -0.47160  -0.45984  -0.45682  -0.45613
 Alpha  occ. eigenvalues --   -0.45185  -0.44872  -0.44168  -0.43601  -0.43556
 Alpha  occ. eigenvalues --   -0.43192  -0.43146  -0.42929  -0.42622  -0.42406
 Alpha  occ. eigenvalues --   -0.42047  -0.41358  -0.40852  -0.40778  -0.40594
 Alpha  occ. eigenvalues --   -0.40525  -0.39805  -0.39466  -0.39003  -0.38800
 Alpha  occ. eigenvalues --   -0.38454  -0.38425  -0.37846  -0.37387  -0.37228
 Alpha  occ. eigenvalues --   -0.36675  -0.36519  -0.36474  -0.36157  -0.35404
 Alpha  occ. eigenvalues --   -0.35202  -0.34875  -0.34319  -0.34220  -0.34099
 Alpha  occ. eigenvalues --   -0.34046  -0.33790  -0.32861  -0.32517  -0.31698
 Alpha  occ. eigenvalues --   -0.29498  -0.28958  -0.27207  -0.27202  -0.26854
 Alpha  occ. eigenvalues --   -0.26000  -0.25430  -0.25142  -0.23995  -0.22787
 Alpha  occ. eigenvalues --   -0.19254
 Alpha virt. eigenvalues --   -0.06977  -0.06127  -0.05742  -0.03144  -0.02925
 Alpha virt. eigenvalues --   -0.02660  -0.02047  -0.01094  -0.00613   0.00967
 Alpha virt. eigenvalues --    0.01806   0.01949   0.01957   0.03737   0.04639
 Alpha virt. eigenvalues --    0.04820   0.05792   0.05879   0.06373   0.06537
 Alpha virt. eigenvalues --    0.06728   0.07031   0.07067   0.07363   0.07652
 Alpha virt. eigenvalues --    0.08202   0.08481   0.09150   0.09285   0.09414
 Alpha virt. eigenvalues --    0.09820   0.10501   0.10525   0.10734   0.11357
 Alpha virt. eigenvalues --    0.11606   0.11700   0.12139   0.12243   0.12481
 Alpha virt. eigenvalues --    0.12954   0.13194   0.13461   0.13839   0.14225
 Alpha virt. eigenvalues --    0.14243   0.14683   0.14785   0.15270   0.15538
 Alpha virt. eigenvalues --    0.15845   0.16087   0.16453   0.16760   0.17610
 Alpha virt. eigenvalues --    0.17868   0.17947   0.18035   0.18070   0.18633
 Alpha virt. eigenvalues --    0.18693   0.18912   0.19137   0.19339   0.19529
 Alpha virt. eigenvalues --    0.19751   0.20102   0.20573   0.20707   0.20754
 Alpha virt. eigenvalues --    0.20969   0.21156   0.21618   0.21850   0.22076
 Alpha virt. eigenvalues --    0.22238   0.22344   0.22685   0.23029   0.23200
 Alpha virt. eigenvalues --    0.23311   0.23460   0.23732   0.23978   0.24192
 Alpha virt. eigenvalues --    0.24274   0.24570   0.24765   0.24973   0.25269
 Alpha virt. eigenvalues --    0.25378   0.25568   0.25788   0.26177   0.26449
 Alpha virt. eigenvalues --    0.26818   0.27068   0.27212   0.27510   0.27649
 Alpha virt. eigenvalues --    0.27847   0.28041   0.28334   0.28408   0.28637
 Alpha virt. eigenvalues --    0.29029   0.29407   0.29483   0.29700   0.30095
 Alpha virt. eigenvalues --    0.30527   0.30619   0.31161   0.31276   0.31440
 Alpha virt. eigenvalues --    0.31794   0.32164   0.32281   0.32599   0.32774
 Alpha virt. eigenvalues --    0.32919   0.33048   0.33260   0.33538   0.33722
 Alpha virt. eigenvalues --    0.33948   0.34202   0.34412   0.34636   0.35073
 Alpha virt. eigenvalues --    0.35300   0.35646   0.35731   0.35951   0.36380
 Alpha virt. eigenvalues --    0.36426   0.37046   0.37391   0.37673   0.37821
[...]
 Alpha virt. eigenvalues --    1.92111   1.92661   1.92973   1.93588   1.93774
 Alpha virt. eigenvalues --    1.94864   1.95279   1.95514   1.96252   1.97241
 Alpha virt. eigenvalues --    1.97484   1.97715   1.97815   1.98370   1.98618
 Alpha virt. eigenvalues --    1.99528   2.00060   2.00684   2.00986   2.01845
 Alpha virt. eigenvalues --    2.01903   2.02150   2.03276   2.03708   2.04469
 Alpha virt. eigenvalues --    2.04604   2.06114   2.06436   2.07041   2.07535
 Alpha virt. eigenvalues --    2.08882   2.09445   2.10058   2.10326   2.10428
 Alpha virt. eigenvalues --    2.12014   2.12483   2.13051   2.13906   2.14172
 Alpha virt. eigenvalues --    2.14176   2.14235   2.14463   2.15095   2.15229
 Alpha virt. eigenvalues --    2.15387   2.16286   2.16381   2.17538   2.17650
 Alpha virt. eigenvalues --    2.18598   2.19231   2.19274   2.19679   2.20212
 Alpha virt. eigenvalues --    2.20432   2.20786   2.21335   2.21717   2.22453
 Alpha virt. eigenvalues --    2.22939   2.23169   2.23990   2.24178   2.24521
 Alpha virt. eigenvalues --    2.24647   2.25172   2.25771   2.26468   2.27055
 Alpha virt. eigenvalues --    2.27459   2.27595   2.28295   2.28405   2.28763
 Alpha virt. eigenvalues --    2.29820   2.30394   2.30789   2.31233   2.31663
 Alpha virt. eigenvalues --    2.31999   2.32301   2.32495   2.33335   2.33841
 Alpha virt. eigenvalues --    2.34417   2.35241   2.35567   2.36511   2.36988
 Alpha virt. eigenvalues --    2.37274   2.38616   2.39051   2.39566   2.40686
 Alpha virt. eigenvalues --    2.41460   2.41991   2.42134   2.43610   2.43869
 Alpha virt. eigenvalues --    2.44132   2.44261   2.44651   2.45541   2.46611
 Alpha virt. eigenvalues --    2.46892   2.47649   2.48285   2.48405   2.48880
 Alpha virt. eigenvalues --    2.49098   2.49187   2.49426   2.49983   2.50450
 Alpha virt. eigenvalues --    2.50871   2.51109   2.52017   2.53295   2.53628
 Alpha virt. eigenvalues --    2.54022   2.54844   2.55138   2.55457   2.55804
 Alpha virt. eigenvalues --    2.56130   2.56524   2.56892   2.57822   2.58558
 Alpha virt. eigenvalues --    2.59154   2.59589   2.59780   2.60243   2.60315
 Alpha virt. eigenvalues --    2.60797   2.61307   2.61624   2.62025   2.62202
 Alpha virt. eigenvalues --    2.62503   2.62714   2.62908   2.63347   2.63642
 Alpha virt. eigenvalues --    2.63961   2.64582   2.64744   2.65160   2.65854
 Alpha virt. eigenvalues --    2.66067   2.66396   2.66539   2.66889   2.67051
 Alpha virt. eigenvalues --    2.67293   2.67996   2.68417   2.68855   2.69157
 Alpha virt. eigenvalues --    2.69360   2.69884   2.70031   2.70391   2.70640
 Alpha virt. eigenvalues --    2.71017   2.71263   2.71482   2.71860   2.72228
 Alpha virt. eigenvalues --    2.72505   2.72797   2.73216   2.73357   2.73707
 Alpha virt. eigenvalues --    2.73805   2.74308   2.74570   2.74857   2.75913
 Alpha virt. eigenvalues --    2.76064   2.76308   2.76858   2.77408   2.77629
 Alpha virt. eigenvalues --    2.77779   2.78202   2.78346   2.78848   2.78997
 Alpha virt. eigenvalues --    2.79003   2.79533   2.79799   2.80232   2.80318
 Alpha virt. eigenvalues --    2.80543   2.80808   2.81336   2.81639   2.81745
 Alpha virt. eigenvalues --    2.82078   2.82211   2.82434   2.83158   2.83358
 Alpha virt. eigenvalues --    2.83583   2.83678   2.84274   2.84430   2.84561
 Alpha virt. eigenvalues --    2.85124   2.85371   2.85620   2.85836   2.86626
 Alpha virt. eigenvalues --    2.86690   2.87219   2.87695   2.88145   2.88723
 Alpha virt. eigenvalues --    2.88857   2.89268   2.90102   2.90889   2.91070
 Alpha virt. eigenvalues --    2.91579   2.91917   2.91971   2.92362   2.92746
 Alpha virt. eigenvalues --    2.93196   2.93464   2.94053   2.94228   2.94539
 Alpha virt. eigenvalues --    2.94799   2.94989   2.95673   2.95920   2.96247
 Alpha virt. eigenvalues --    2.96683   2.97539   2.97900   2.98154   2.98621
 Alpha virt. eigenvalues --    2.98709   2.99927   3.00059   3.00366   3.00673
 Alpha virt. eigenvalues --    3.01013   3.01228   3.01589   3.01664   3.02482
 Alpha virt. eigenvalues --    3.02641   3.02991   3.03289   3.03700   3.04267
 Alpha virt. eigenvalues --    3.04370   3.04622   3.05242   3.05321   3.05541
 Alpha virt. eigenvalues --    3.05907   3.05953   3.06530   3.06681   3.06941
 Alpha virt. eigenvalues --    3.07201   3.07810   3.08315   3.08649   3.09413
 Alpha virt. eigenvalues --    3.09673   3.09841   3.09887   3.10205   3.10898
 Alpha virt. eigenvalues --    3.11217   3.11641   3.12647   3.13148   3.13365
 Alpha virt. eigenvalues --    3.13501   3.13671   3.14094   3.14228   3.14473
 Alpha virt. eigenvalues --    3.14576   3.14882   3.15039   3.15867   3.15962
 Alpha virt. eigenvalues --    3.16314   3.16627   3.16785   3.17200   3.17696
 Alpha virt. eigenvalues --    3.17860   3.18042   3.18934   3.19452   3.19704
 Alpha virt. eigenvalues --    3.20408   3.20852   3.21309   3.21471   3.22053
 Alpha virt. eigenvalues --    3.22372   3.22524   3.22991   3.23283   3.23526
 Alpha virt. eigenvalues --    3.23865   3.24171   3.24216   3.24903   3.25170
 Alpha virt. eigenvalues --    3.25381   3.25663   3.25806   3.26377   3.26894
 Alpha virt. eigenvalues --    3.27122   3.27413   3.27635   3.28118   3.28294
 Alpha virt. eigenvalues --    3.28518   3.28780   3.29594   3.29754   3.30351
 Alpha virt. eigenvalues --    3.31088   3.31201   3.31513   3.31779   3.32187
 Alpha virt. eigenvalues --    3.32465   3.32809   3.33487   3.33734   3.34231
 Alpha virt. eigenvalues --    3.34326   3.34686   3.34931   3.35334   3.35507
 Alpha virt. eigenvalues --    3.35890   3.36125   3.36462   3.36656   3.36827
 Alpha virt. eigenvalues --    3.37292   3.37405   3.37624   3.37800   3.38175
 Alpha virt. eigenvalues --    3.38296   3.38590   3.39051   3.39392   3.39555
 Alpha virt. eigenvalues --    3.39787   3.40122   3.40325   3.40602   3.40801
 Alpha virt. eigenvalues --    3.40908   3.41385   3.41836   3.42026   3.42621
 Alpha virt. eigenvalues --    3.42658   3.43040   3.43571   3.43720   3.43940
 Alpha virt. eigenvalues --    3.44228   3.44503   3.44732   3.45151   3.45285
 Alpha virt. eigenvalues --    3.45655   3.45907   3.46801   3.46891   3.47137
 Alpha virt. eigenvalues --    3.47976   3.48192   3.48526   3.49011   3.49563
 Alpha virt. eigenvalues --    3.49876   3.50116   3.50538   3.51080   3.51342
 Alpha virt. eigenvalues --    3.51464   3.51753   3.51839   3.52493   3.53261
 Alpha virt. eigenvalues --    3.53550   3.53849   3.54087   3.54198   3.55258
 Alpha virt. eigenvalues --    3.55488   3.56104   3.56478   3.56957   3.57307
 Alpha virt. eigenvalues --    3.57619   3.57964   3.58208   3.58401   3.58990
 Alpha virt. eigenvalues --    3.59081   3.59746   3.60080   3.60672   3.60821
 Alpha virt. eigenvalues --    3.61021   3.61518   3.61874   3.62652   3.63194
 Alpha virt. eigenvalues --    3.63697   3.64226   3.64548   3.65354   3.66447
 Alpha virt. eigenvalues --    3.67401   3.67982   3.69420   3.69768   3.69953
 Alpha virt. eigenvalues --    3.70044   3.70628   3.72000   3.72157   3.72313
 Alpha virt. eigenvalues --    3.73075   3.73708   3.74105   3.74598   3.74865
 Alpha virt. eigenvalues --    3.75623   3.76029   3.76258   3.76589   3.77067
 Alpha virt. eigenvalues --    3.77333   3.77959   3.78315   3.78638   3.80207
 Alpha virt. eigenvalues --    3.83045   3.83771   3.84779   3.85060   3.85309
 Alpha virt. eigenvalues --    3.86260   3.86446   3.87109   3.89073   3.89469
 Alpha virt. eigenvalues --    3.90187   3.90602   3.90716   3.91818   3.92272
 Alpha virt. eigenvalues --    3.92896   3.93212   3.93538   3.94347   3.95218
 Alpha virt. eigenvalues --    3.95771   3.95959   3.95970   3.96010   3.96205
 Alpha virt. eigenvalues --    3.96797   3.97500   3.97922   3.98703   3.99206
 Alpha virt. eigenvalues --    4.00034   4.01216   4.01457   4.02276   4.03617
 Alpha virt. eigenvalues --    4.04099   4.04183   4.04534   4.04885   4.05367
 Alpha virt. eigenvalues --    4.06055   4.07062   4.07720   4.09059   4.09442
 Alpha virt. eigenvalues --    4.11010   4.11294   4.12200   4.12713   4.13481
 Alpha virt. eigenvalues --    4.14230   4.14608   4.14661   4.15001   4.15529
 Alpha virt. eigenvalues --    4.16132   4.16242   4.16592   4.16841   4.17317
 Alpha virt. eigenvalues --    4.17476   4.17979   4.18325   4.18577   4.19271
 Alpha virt. eigenvalues --    4.19382   4.19533   4.20207   4.20498   4.20911
 Alpha virt. eigenvalues --    4.21279   4.21432   4.21877   4.22274   4.22547
 Alpha virt. eigenvalues --    4.23040   4.23512   4.23885   4.24064   4.25150
 Alpha virt. eigenvalues --    4.25317   4.25709   4.26014   4.26893   4.27188
 Alpha virt. eigenvalues --    4.27692   4.27862   4.28903   4.29116   4.29436
 Alpha virt. eigenvalues --    4.29900   4.30252   4.30597   4.31085   4.31525
 Alpha virt. eigenvalues --    4.32648   4.33484   4.34439   4.34622   4.35316
 Alpha virt. eigenvalues --    4.37660   4.38241   4.38389   4.40047   4.40159
 Alpha virt. eigenvalues --    4.41243   4.42405   4.42668   4.42995   4.43744
 Alpha virt. eigenvalues --    4.44108   4.44458   4.44709   4.45582   4.47097
 Alpha virt. eigenvalues --    4.47812   4.48207   4.48925   4.50428   4.51616
 Alpha virt. eigenvalues --    4.51844   4.53063   4.53647   4.53719   4.54009
 Alpha virt. eigenvalues --    4.55292   4.55428   4.56504   4.56604   4.57537
 Alpha virt. eigenvalues --    4.58564   4.59058   4.59819   4.60221   4.60451
 Alpha virt. eigenvalues --    4.60759   4.61133   4.62718   4.63871   4.65581
 Alpha virt. eigenvalues --    4.66000   4.66784   4.67834   4.68087   4.69011
 Alpha virt. eigenvalues --    4.69829   4.70154   4.70270   4.70552   4.70832
 Alpha virt. eigenvalues --    4.71346   4.71782   4.71985   4.73185   4.74277
 Alpha virt. eigenvalues --    4.75504   4.76113   4.78356   4.79318   4.80297
 Alpha virt. eigenvalues --    4.80565   4.81484   4.81715   4.82683   4.83972
 Alpha virt. eigenvalues --    4.86296   4.87750   4.87977   4.89440   4.90097
 Alpha virt. eigenvalues --    4.91925   4.93839   4.94195   4.94313   4.95969
 Alpha virt. eigenvalues --    4.96381   4.97302   4.97349   4.98305   5.01334
 Alpha virt. eigenvalues --    5.01740   5.02089   5.02186   5.03063   5.04291
 Alpha virt. eigenvalues --    5.05305   5.05737   5.06684   5.08443   5.09860
 Alpha virt. eigenvalues --    5.12739   5.13299   5.13453   5.15242   5.16293
 Alpha virt. eigenvalues --    5.16964   5.17413   5.17424   5.19264   5.20175
 Alpha virt. eigenvalues --    5.20587   5.22201   5.24215   5.25041   5.27842
 Alpha virt. eigenvalues --    5.30316   5.30828   5.32399   5.34313   5.35518
 Alpha virt. eigenvalues --    5.36932   5.39908   5.41461   5.42263   5.42684
 Alpha virt. eigenvalues --    5.43818   5.45213   5.46336   5.46446   5.48480
 Alpha virt. eigenvalues --    5.51049   5.51486   5.55667   5.55880   5.59224
 Alpha virt. eigenvalues --    5.61144   5.61958   5.62891   5.64712   5.65763
 Alpha virt. eigenvalues --    5.68172   5.68718   5.70345   5.70425   5.70527
 Alpha virt. eigenvalues --    5.70705   5.74376   5.76085   5.77013   5.81091
 Alpha virt. eigenvalues --    5.82640   5.92221   5.97089   6.02834   6.05768
 Alpha virt. eigenvalues --    6.07455   6.16871   6.16886   6.25924   6.30656
 Alpha virt. eigenvalues --    6.39408  22.19255  22.25693  22.29941  22.46276
 Alpha virt. eigenvalues --   22.47400  22.50516  22.50931  22.58893  22.64999
 Alpha virt. eigenvalues --   22.67789  22.67943  22.68968  22.70065  22.71003
 Alpha virt. eigenvalues --   22.74591  22.75647  22.75753  22.77864  22.81829
 Alpha virt. eigenvalues --   22.83599  22.86291  22.89332  22.90196  22.92851
 Alpha virt. eigenvalues --   22.94264  22.97797  23.02496  23.04601  23.08223
 Alpha virt. eigenvalues --   23.10457  23.13987  23.24986  23.33927  23.36228
 Alpha virt. eigenvalues --   23.52636  23.54601  23.62549  23.62641  23.65678
 Alpha virt. eigenvalues --   32.07792  32.07804  33.41380
          Condensed to atoms (all electrons):
 Mulliken charges:
               1
     1  C   -0.233148
     2  C   -0.225923
     3  C    0.149330
     4  C   -0.072455
     5  C   -0.281741
     6  C    0.134405
     7  C    0.198798
     8  C   -0.078842
     9  C    0.152863
    10  C   -0.226408
    11  H    0.161441
    12  C   -0.231808
    13  C    0.133842
    14  C   -0.279879
    15  H    0.161877
    16  H    0.159734
    17  H    0.145807
    18  N    0.106659
    19  C    0.138286
    20  C   -0.009389
    21  C   -0.157356
    22  C   -0.254893
    23  C    0.095634
    24  C   -0.122956
    25  H    0.145408
    26  C   -0.118545
    27  H    0.166861
    28  C   -0.179549
    29  C   -0.210630
    30  H    0.148137
    31  C   -0.149443
    32  H    0.149490
    33  H    0.145688
    34  H    0.144684
    35  H    0.149760
    36  H    0.159813
    37  H    0.145958
    38  C   -0.416796
    39  H    0.129190
    40  H    0.131481
    41  H    0.133442
    42  C   -0.419575
    43  H    0.134023
    44  H    0.129670
    45  H    0.131788
    46  C    0.110479
    47  C   -0.195989
    48  C   -0.187045
    49  C   -0.219758
    50  H    0.166091
    51  C   -0.217096
    52  H    0.156349
    53  C    0.247126
    54  H    0.160289
    55  H    0.160463
    56  C    0.110060
    57  C   -0.196685
    58  C   -0.186551
    59  C   -0.219049
    60  H    0.166202
    61  C   -0.217286
    62  H    0.156882
    63  C    0.247531
    64  H    0.160320
    65  H    0.160516
    66  C   -0.206788
    67  C   -0.206422
    68  N   -0.082227
    69  N   -0.082147
 Sum of Mulliken charges =  -0.00000
 Mulliken charges with hydrogens summed into heavy atoms:
               1
     1  C   -0.087191
     2  C   -0.064046
     3  C    0.149330
     4  C   -0.072455
     5  C   -0.122007
     6  C    0.134405
     7  C    0.198798
     8  C   -0.078842
     9  C    0.152863
    10  C   -0.064967
    12  C   -0.086001
    13  C    0.133842
    14  C   -0.120066
    18  N    0.106659
    19  C    0.138286
    20  C   -0.009389
    21  C   -0.011947
    22  C   -0.088032
    23  C    0.095634
    24  C    0.025181
    26  C    0.030946
    28  C   -0.033861
    29  C   -0.065946
    31  C    0.000317
    38  C   -0.022684
    42  C   -0.024094
    46  C    0.110479
    47  C   -0.029898
    48  C   -0.030695
    49  C   -0.059468
    51  C   -0.056634
    53  C    0.247126
    56  C    0.110060
    57  C   -0.030483
    58  C   -0.029669
    59  C   -0.058729
    61  C   -0.056770
    63  C    0.247531
    66  C   -0.206788
    67  C   -0.206422
    68  N   -0.082227
    69  N   -0.082147
 Electronic spatial extent (au):  <R**2>=          31642.6649
 Charge=             -0.0000 electrons
 Dipole moment (field-independent basis, Debye):
    X=             -0.0123    Y=              8.8165    Z=             -1.4212  Tot=              8.9304
 Quadrupole moment (field-independent basis, Debye-Ang):
   XX=           -438.7870   YY=           -240.3387   ZZ=           -235.2593
   XY=             -0.6976   XZ=             -5.0196   YZ=             -0.1515
 Traceless Quadrupole moment (field-independent basis, Debye-Ang):
   XX=           -133.9920   YY=             64.4563   ZZ=             69.5357
   XY=             -0.6976   XZ=             -5.0196   YZ=             -0.1515
 Octapole moment (field-independent basis, Debye-Ang**2):
  XXX=              0.9519  YYY=            281.5337  ZZZ=              6.1289  XYY=            -13.1072
  XXY=           1023.0613  XXZ=           -138.6458  XZZ=             13.9941  YZZ=             51.1329
  YYZ=            -20.4099  XYZ=            -36.3662
 Hexadecapole moment (field-independent basis, Debye-Ang**3):
 XXXX=         -56738.3699 YYYY=         -11402.7217 ZZZZ=          -1643.9821 XXXY=            -92.9187
 XXXZ=           -648.8516 YYYX=             83.9416 YYYZ=             63.7980 ZZZX=             -5.1140
 ZZZY=             20.7175 XXYY=         -11639.2859 XXZZ=          -5650.9602 YYZZ=          -2110.7218
 XXYZ=            474.9461 YYXZ=            159.8266 ZZXY=            -35.5134
 N-N= 4.223831313533D+03 E-N=-1.231376731299D+04  KE= 1.658886853850D+03
 Leave Link  601 at Tue Feb 16 11:59:02 2021, MaxMem=  5242880000 cpu:        11.1
 (Enter /opt/nce/packages/global/g09/l9999.exe)
 1\1\GINC-CN071\SP\RB3LYP TD-FC\Gen\C39H27N3\PNG4RJV\16-Feb-2021\0\\#p 
 b3lyp chkbasis geom=allcheck Guess=Read int=ultrafine scrf=(SMD,solven
 t=n,n-DiMethylFormamide) td=(NStates=30) EmpiricalDispersion=GD3BJ\\Ti
 tle\\0,1\C,0,3.640844548,0.7498898602,-0.4305259318\C,0,2.4220964193,1
 .3859775206,-0.5471875791\C,0,1.2180174203,0.6707842624,-0.4457814033\
 C,0,1.2610644466,-0.7129859838,-0.2119634661\C,0,2.5044954497,-1.32251
 59058,-0.0956433402\C,0,3.7120112079,-0.6279095471,-0.1998459985\C,0,0
 .0010499761,-1.5643744401,-0.0870869456\C,0,-1.2588070242,-0.714862053
 6,-0.2260204306\C,0,-1.2151186459,0.6705428584,-0.4496820194\C,0,-2.41
 8855982,1.3867133928,-0.5476891536\H,0,-2.3958359242,2.4506133351,-0.7
 277578578\C,0,-3.6377694722,0.7512761849,-0.428950054\C,0,-3.709657294
 4,-0.6297270216,-0.2185320985\C,0,-2.5025458032,-1.3265227854,-0.12410
 09127\H,0,2.3993077059,2.4521040901,-0.7135405319\H,0,2.5364610713,-2.
 3912106601,0.0608925634\H,0,-4.5420257013,1.3367967839,-0.5272459073\N
 ,0,0.0015998523,1.3387082743,-0.5706555484\C,0,0.0018440073,2.75566539
 84,-0.784822283\C,0,-0.001172056,3.6266690427,0.3364488169\C,0,0.00520
 87377,3.2479391983,-2.0626880159\C,0,-0.0043881818,3.1544085721,1.6703
 531482\C,0,-0.0007761395,5.0344062646,0.0983706274\C,0,0.005590388,4.6
 388146006,-2.2913428105\H,0,0.0074582717,2.5570584456,-2.8957399131\C,
 0,-0.0071200423,4.0358096173,2.7208035542\H,0,-0.0046596632,2.08878726
 07,1.8532347317\C,0,-0.003677669,5.9147791001,1.2076876837\C,0,0.00263
 6739,5.5114244176,-1.234548485\H,0,0.0082167367,5.009974756,-3.3079036
 734\C,0,-0.0067770766,5.4283290523,2.4891065975\H,0,-0.0095243951,3.66
 38662639,3.7375244367\H,0,-0.0033256789,6.9820566926,1.0222197157\H,0,
 0.0029013159,6.5813559191,-1.4035117742\H,0,-0.0089116261,6.1103078646
 ,3.3299192793\H,0,-2.5333254586,-2.3904547269,0.0621989494\H,0,4.54464
 19112,1.3405677437,-0.4951804726\C,0,0.0063690443,-2.6414451527,-1.192
 8526227\H,0,0.0116879164,-2.1772582062,-2.1806162425\H,0,0.8869729895,
 -3.2788906191,-1.1079909092\H,0,-0.8762099562,-3.2773098128,-1.1168842
 622\C,0,-0.004295891,-2.2521194191,1.2953296167\H,0,0.8780131273,-2.88
 08551514,1.4178493476\H,0,-0.0097434559,-1.5078650755,2.0935814283\H,0
 ,-0.8842978813,-2.8855039855,1.4099589969\C,0,5.0047655992,-1.32091836
 04,-0.0691601008\C,0,5.1346030646,-2.468306014,0.728551801\C,0,6.14551
 26952,-0.8520803768,-0.7386865439\C,0,6.3446558432,-3.1238313646,0.852
 68507\H,0,4.2812735095,-2.8420697136,1.2772683799\C,0,7.3626506435,-1.
 4957576642,-0.6217745842\H,0,6.0748606972,0.0175872879,-1.37724599\C,0
 ,7.4708863547,-2.6407460499,0.1761416916\H,0,6.4282253839,-4.002847938
 4,1.4772051202\H,0,8.2297663461,-1.1248169435,-1.1511803887\C,0,-5.003
 7024795,-1.3227949307,-0.100247515\C,0,-5.1525986121,-2.656451232,-0.5
 108738956\C,0,-6.126913959,-0.6663355607,0.4259105371\C,0,-6.364585975
 7,-3.3109708544,-0.4002300192\H,0,-4.3140093876,-3.1833360243,-0.94453
 76546\C,0,-7.3457584766,-1.3072378876,0.5401267656\H,0,-6.0397833241,0
 .3549795911,0.7699831155\C,0,-7.4730806371,-2.638822958,0.1276983954\H
 ,0,-6.4634406458,-4.3367649845,-0.7284230129\H,0,-8.1992398841,-0.7888
 419116,0.9555094144\C,0,-8.724583561,-3.3065247501,0.2439195942\C,0,8.
 7206986012,-3.3106003994,0.2988789769\N,0,9.7338575721,-3.8540210822,0
 .3980183351\N,0,-9.7390596313,-3.8483511044,0.3380716574\\Version=ES64
 L-G09RevE.01\State=1-A\HF=-1667.5058191\RMSD=6.339e-09\PG=C01 [X(C39H2
 7N3)]\\@


 A DANDELION FROM A LOVER MEANS MORE THAN AN ORCHID FROM A FRIEND.
 Job cpu time:       4 days 13 hours 50 minutes  6.2 seconds.
 File lengths (MBytes):  RWF=  10582 Int=      0 D2E=      0 Chk=   1895 Scr=      1
 Normal termination of Gaussian 09 at Tue Feb 16 11:59:05 2021.
