
                                 *****************
                                 * O   R   C   A *
                                 *****************

                                            #,                                       
                                            ###                                      
                                            ####                                     
                                            #####                                    
                                            ######                                   
                                           ########,                                 
                                     ,,################,,,,,                         
                               ,,#################################,,                 
                          ,,##########################################,,             
                       ,#########################################, ''#####,          
                    ,#############################################,,   '####,        
                  ,##################################################,,,,####,       
                ,###########''''           ''''###############################       
              ,#####''   ,,,,##########,,,,          '''####'''          '####       
            ,##' ,,,,###########################,,,                        '##       
           ' ,,###''''                  '''############,,,                           
         ,,##''                                '''############,,,,        ,,,,,,###''
      ,#''                                            '''#######################'''  
     '                                                          ''''####''''         
             ,#######,   #######,   ,#######,      ##                                
            ,#'     '#,  ##    ##  ,#'     '#,    #''#        ######   ,####,        
            ##       ##  ##   ,#'  ##            #'  '#       #        #'  '#        
            ##       ##  #######   ##           ,######,      #####,   #    #        
            '#,     ,#'  ##    ##  '#,     ,#' ,#      #,         ##   #,  ,#        
             '#######'   ##     ##  '#######'  #'      '#     #####' # '####'        



                  #######################################################
                  #                        -***-                        #
                  #          Department of theory and spectroscopy      #
                  #    Directorship and core code : Frank Neese         #
                  #        Max Planck Institute fuer Kohlenforschung    #
                  #                Kaiser Wilhelm Platz 1               #
                  #                 D-45470 Muelheim/Ruhr               #
                  #                      Germany                        #
                  #                                                     #
                  #                  All rights reserved                #
                  #                        -***-                        #
                  #######################################################


                         Program Version 5.0.2 -  RELEASE  -


 With contributions from (in alphabetic order):
   Daniel Aravena         : Magnetic Suceptibility
   Michael Atanasov       : Ab Initio Ligand Field Theory (pilot matlab implementation)
   Alexander A. Auer      : GIAO ZORA, VPT2 properties, NMR spectrum
   Ute Becker             : Parallelization
   Giovanni Bistoni       : ED, misc. LED, open-shell LED, HFLD
   Martin Brehm           : Molecular dynamics
   Dmytro Bykov           : SCF Hessian
   Vijay G. Chilkuri      : MRCI spin determinant printing, contributions to CSF-ICE
   Dipayan Datta          : RHF DLPNO-CCSD density
   Achintya Kumar Dutta   : EOM-CC, STEOM-CC
   Dmitry Ganyushin       : Spin-Orbit,Spin-Spin,Magnetic field MRCI
   Miquel Garcia          : C-PCM and meta-GGA Hessian, CC/C-PCM, Gaussian charge scheme
   Yang Guo               : DLPNO-NEVPT2, F12-NEVPT2, CIM, IAO-localization
   Andreas Hansen         : Spin unrestricted coupled pair/coupled cluster methods
   Benjamin Helmich-Paris : MC-RPA, TRAH-SCF, COSX integrals
   Lee Huntington         : MR-EOM, pCC
   Robert Izsak           : Overlap fitted RIJCOSX, COSX-SCS-MP3, EOM
   Marcus Kettner         : VPT2
   Christian Kollmar      : KDIIS, OOCD, Brueckner-CCSD(T), CCSD density, CASPT2, CASPT2-K
   Simone Kossmann        : Meta GGA functionals, TD-DFT gradient, OOMP2, MP2 Hessian
   Martin Krupicka        : Initial AUTO-CI
   Lucas Lang             : DCDCAS
   Marvin Lechner         : AUTO-CI (C++ implementation), FIC-MRCC
   Dagmar Lenk            : GEPOL surface, SMD
   Dimitrios Liakos       : Extrapolation schemes; Compound Job, initial MDCI parallelization
   Dimitrios Manganas     : Further ROCIS development; embedding schemes
   Dimitrios Pantazis     : SARC Basis sets
   Anastasios Papadopoulos: AUTO-CI, single reference methods and gradients
   Taras Petrenko         : DFT Hessian,TD-DFT gradient, ASA, ECA, R-Raman, ABS, FL, XAS/XES, NRVS
   Peter Pinski           : DLPNO-MP2, DLPNO-MP2 Gradient
   Christoph Reimann      : Effective Core Potentials
   Marius Retegan         : Local ZFS, SOC
   Christoph Riplinger    : Optimizer, TS searches, QM/MM, DLPNO-CCSD(T), (RO)-DLPNO pert. Triples
   Tobias Risthaus        : Range-separated hybrids, TD-DFT gradient, RPA, STAB
   Michael Roemelt        : Original ROCIS implementation
   Masaaki Saitow         : Open-shell DLPNO-CCSD energy and density
   Barbara Sandhoefer     : DKH picture change effects
   Avijit Sen             : IP-ROCIS
   Kantharuban Sivalingam : CASSCF convergence, NEVPT2, FIC-MRCI
   Bernardo de Souza      : ESD, SOC TD-DFT
   Georgi Stoychev        : AutoAux, RI-MP2 NMR, DLPNO-MP2 response
   Willem Van den Heuvel  : Paramagnetic NMR
   Boris Wezisla          : Elementary symmetry handling
   Frank Wennmohs         : Technical directorship


 We gratefully acknowledge several colleagues who have allowed us to
 interface, adapt or use parts of their codes:
   Stefan Grimme, W. Hujo, H. Kruse, P. Pracht,  : VdW corrections, initial TS optimization,
                  C. Bannwarth, S. Ehlert          DFT functionals, gCP, sTDA/sTD-DF
   Ed Valeev, F. Pavosevic, A. Kumar             : LibInt (2-el integral package), F12 methods
   Garnet Chan, S. Sharma, J. Yang, R. Olivares  : DMRG
   Ulf Ekstrom                                   : XCFun DFT Library
   Mihaly Kallay                                 : mrcc  (arbitrary order and MRCC methods)
   Jiri Pittner, Ondrej Demel                    : Mk-CCSD
   Frank Weinhold                                : gennbo (NPA and NBO analysis)
   Christopher J. Cramer and Donald G. Truhlar   : smd solvation model
   Lars Goerigk                                  : TD-DFT with DH, B97 family of functionals
   V. Asgeirsson, H. Jonsson                     : NEB implementation
   FAccTs GmbH                                   : IRC, NEB, NEB-TS, DLPNO-Multilevel, CI-OPT
                                                   MM, QMMM, 2- and 3-layer-ONIOM, Crystal-QMMM,
                                                   LR-CPCM, SF, NACMEs, symmetry and pop. for TD-DFT,
                                                   nearIR, NL-DFT gradient (VV10), updates on ESD,
                                                   ML-optimized integration grids
   S Lehtola, MJT Oliveira, MAL Marques          : LibXC Library
   Liviu Ungur et al                             : ANISO software


 Your calculation uses the libint2 library for the computation of 2-el integrals
 For citations please refer to: http://libint.valeyev.net

 Your ORCA version has been built with support for libXC version: 5.1.0
 For citations please refer to: https://tddft.org/programs/libxc/

 This ORCA versions uses:
   CBLAS   interface :  Fast vector & matrix operations
   LAPACKE interface :  Fast linear algebra routines
   SCALAPACK package :  Parallel linear algebra routines
   Shared memory     :  Shared parallel matrices
   BLAS/LAPACK       :  OpenBLAS 0.3.15  USE64BITINT DYNAMIC_ARCH NO_AFFINITY Zen SINGLE_THREADED
        Core in use  :  Zen
   Copyright (c) 2011-2014, The OpenBLAS Project


Your calculation utilizes the SMD solvation module
Please cite in your paper:
A.V. Marenich, C.J. Cramer, D.G. Truhlar J. Phys. Chem. B, 113, (2009), 6378 

================================================================================

----- Orbital basis set information -----
Your calculation utilizes the basis: def2-TZVP
   F. Weigend and R. Ahlrichs, Phys. Chem. Chem. Phys. 7, 3297 (2005).

----- AuxJ basis set information -----
Your calculation utilizes the auxiliary basis: def2/J
   F. Weigend, Phys. Chem. Chem. Phys. 8, 1057 (2006).

----- AuxC basis set information -----
Your calculation utilizes the auxiliary basis: def2-TZVP/C
  H-La, Hf-Rn : A. Hellweg, C. Hattig, S. Hofener and W. Klopper, Theor. Chem. Acc. 117, 587 (2007).
        Ce-Lu : J. Chmela and M. E. Harding, Mol. Phys. (2018).

================================================================================
                                        WARNINGS
                       Please study these warnings very carefully!
================================================================================

INFO   : Checking CIS options ...
  ===> : (D) CORRECTION FOUND - SETTING MODE=3
  ===> : JK MODE FOUND - ACTIVATING RI-MP2 CODE
  ===> : MP2 AND CIS FOUND - CHECKING
WARNING: CIS(D) and MP2 runs must have the same orbital window
  ===> : adjusting orbital windows

WARNING: No MP2 level density has been requested!
         To caclulate MP2 level properties use
         %mp2 Density relaxed end
         or
         %mp2 Density unrelaxed end
         Otherwise for double-hybrid DFT only the energy is correct!

WARNING: The frozen-core approximation is turned on by default for 
         the MP2 part of double-hybrid DFT.

WARNING:  You are using a Range-Separated Double Hybrid functional with Doubles Correction 
          Changing Mode to RPA_AOINTS 


WARNING: CIS/ROCIS methods need fully converged wavefunctions
  ===> : Setting SCFConvForced true
         You can overwrite this default with %scf ConvForced false 


INFO   : the flag for use of the SHARK integral package has been found!

================================================================================
                                       INPUT FILE
================================================================================
NAME = Me2-Acr_3_M06L_def2TZVP_coords.inp
|  1> %maxcore 20000
|  2> %pal
|  3>  nprocs= 4
|  4> end
|  5> ! RI-wPBEPP86   def2-TZVP def2/J def2-TZVP/C RIJCOSX CPCM TightSCF
|  6> %TDDFT  
|  7>    NROOTS   30
|  8>    dcorr 1
|  9>    TDA      FALSE
| 10> END
| 11> 
| 12> %CPCM
| 13>    SMD          TRUE
| 14>    SMDsolvent   "N,N-DIMETHYLFORMAMIDE"
| 15> END
| 16>    
| 17> 
| 18> * xyz 0 1
| 19> C                   3.63553800    0.74494900   -0.46163900
| 20> C                   2.42107900    1.38030500   -0.58758400
| 21> C                   1.21656200    0.67285700   -0.46712700
| 22> C                   1.25819300   -0.70454500   -0.20388600
| 23> C                   2.49840900   -1.31093200   -0.07569600
| 24> C                   3.70901100   -0.62592000   -0.19895200
| 25> C                   0.00281000   -1.54830600   -0.04909500
| 26> C                  -1.25323300   -0.70909400   -0.22215700
| 27> C                  -1.21280700    0.66998300   -0.47644700
| 28> C                  -2.41813500    1.37537900   -0.60084500
| 29> H                  -2.39777200    2.43601700   -0.80861100
| 30> C                  -3.63194100    0.73875100   -0.47511300
| 31> C                  -3.70436300   -0.63530400   -0.22897100
| 32> C                  -2.49289500   -1.32003900   -0.11238600
| 33> H                   2.39954700    2.44418800   -0.77785100
| 34> H                   2.52223200   -2.37832400    0.10828800
| 35> H                  -4.53710000    1.31953600   -0.59838700
| 36> N                   0.00150800    1.33773300   -0.60209900
| 37> C                   0.00058900    2.75552300   -0.80739300
| 38> C                  -0.00882800    3.61388500    0.32010700
| 39> C                   0.00908000    3.25827500   -2.08132000
| 40> C                  -0.01719200    3.13370600    1.64772300
| 41> C                  -0.00955500    5.02295900    0.09320400
| 42> C                   0.00838700    4.64657800   -2.29571300
| 43> H                   0.01626600    2.57293000   -2.91985400
| 44> C                  -0.02609000    4.00555800    2.70413200
| 45> H                  -0.01642800    2.06468700    1.82375200
| 46> C                  -0.01886900    5.88997000    1.20767400
| 47> C                  -0.00079500    5.50832400   -1.23232900
| 48> H                   0.01512900    5.02768800   -3.30864600
| 49> C                  -0.02699800    5.39464000    2.48376800
| 50> H                  -0.03241900    3.62488100    3.71764900
| 51> H                  -0.01937300    6.95893200    1.02981200
| 52> H                  -0.00143300    6.58011600   -1.39142500
| 53> H                  -0.03406200    6.07091200    3.32919500
| 54> H                  -2.51497500   -2.38116600    0.10409700
| 55> H                   4.54022000    1.33378400   -0.54317400
| 56> C                   0.01021200   -2.66879700   -1.09901000
| 57> H                   0.01780600   -2.26135600   -2.11032800
| 58> H                   0.88754400   -3.30522900   -0.98473500
| 59> H                  -0.87016200   -3.30331800   -0.99734800
| 60> C                  -0.00416100   -2.17723100    1.35264600
| 61> H                   0.87715000   -2.80060400    1.50420300
| 62> H                  -0.01225200   -1.40924200    2.12720000
| 63> H                  -0.88163900   -2.80837100    1.49316700
| 64> C                   4.99550500   -1.31286300   -0.05513800
| 65> C                   5.11248700   -2.49254400    0.69374800
| 66> C                   6.15581300   -0.81066600   -0.66148200
| 67> C                   6.31979700   -3.14205800    0.83103800
| 68> H                   4.24431000   -2.89767900    1.19677800
| 69> C                   7.37016100   -1.44844200   -0.53239000
| 70> H                   6.10071100    0.08668400   -1.26353700
| 71> C                   7.46566300   -2.62582300    0.21681000
| 72> H                   6.38899400   -4.04685100    1.42001400
| 73> H                   8.25113800   -1.04775200   -1.01580000
| 74> C                  -4.98997200   -1.32600300   -0.09568900
| 75> C                  -5.11269100   -2.69713500   -0.36294500
| 76> C                  -6.14345800   -0.63662100    0.30504700
| 77> C                  -6.31915000   -3.35064100   -0.23732900
| 78> H                  -4.24975800   -3.25868900   -0.69612300
| 79> C                  -7.35689500   -1.27610500    0.43384200
| 80> H                  -6.08338900    0.41756100    0.54160200
| 81> C                  -7.45833400   -2.64478700    0.16363300
| 82> H                  -6.39291600   -4.40752600   -0.45633500
| 83> H                  -8.23267900   -0.72655200    0.75231700
| 84> C                  -8.70201000   -3.30886700    0.29507900
| 85> C                   8.71001100   -3.28800600    0.35229600
| 86> N                   9.72793300   -3.82989700    0.46287000
| 87> N                  -9.71948300   -3.85222800    0.40257600
| 88> *
| 89> 
| 90> 
| 91>                          ****END OF INPUT****
================================================================================

                       ****************************
                       * Single Point Calculation *
                       ****************************

---------------------------------
CARTESIAN COORDINATES (ANGSTROEM)
---------------------------------
  C      3.635538    0.744949   -0.461639
  C      2.421079    1.380305   -0.587584
  C      1.216562    0.672857   -0.467127
  C      1.258193   -0.704545   -0.203886
  C      2.498409   -1.310932   -0.075696
  C      3.709011   -0.625920   -0.198952
  C      0.002810   -1.548306   -0.049095
  C     -1.253233   -0.709094   -0.222157
  C     -1.212807    0.669983   -0.476447
  C     -2.418135    1.375379   -0.600845
  H     -2.397772    2.436017   -0.808611
  C     -3.631941    0.738751   -0.475113
  C     -3.704363   -0.635304   -0.228971
  C     -2.492895   -1.320039   -0.112386
  H      2.399547    2.444188   -0.777851
  H      2.522232   -2.378324    0.108288
  H     -4.537100    1.319536   -0.598387
  N      0.001508    1.337733   -0.602099
  C      0.000589    2.755523   -0.807393
  C     -0.008828    3.613885    0.320107
  C      0.009080    3.258275   -2.081320
  C     -0.017192    3.133706    1.647723
  C     -0.009555    5.022959    0.093204
  C      0.008387    4.646578   -2.295713
  H      0.016266    2.572930   -2.919854
  C     -0.026090    4.005558    2.704132
  H     -0.016428    2.064687    1.823752
  C     -0.018869    5.889970    1.207674
  C     -0.000795    5.508324   -1.232329
  H      0.015129    5.027688   -3.308646
  C     -0.026998    5.394640    2.483768
  H     -0.032419    3.624881    3.717649
  H     -0.019373    6.958932    1.029812
  H     -0.001433    6.580116   -1.391425
  H     -0.034062    6.070912    3.329195
  H     -2.514975   -2.381166    0.104097
  H      4.540220    1.333784   -0.543174
  C      0.010212   -2.668797   -1.099010
  H      0.017806   -2.261356   -2.110328
  H      0.887544   -3.305229   -0.984735
  H     -0.870162   -3.303318   -0.997348
  C     -0.004161   -2.177231    1.352646
  H      0.877150   -2.800604    1.504203
  H     -0.012252   -1.409242    2.127200
  H     -0.881639   -2.808371    1.493167
  C      4.995505   -1.312863   -0.055138
  C      5.112487   -2.492544    0.693748
  C      6.155813   -0.810666   -0.661482
  C      6.319797   -3.142058    0.831038
  H      4.244310   -2.897679    1.196778
  C      7.370161   -1.448442   -0.532390
  H      6.100711    0.086684   -1.263537
  C      7.465663   -2.625823    0.216810
  H      6.388994   -4.046851    1.420014
  H      8.251138   -1.047752   -1.015800
  C     -4.989972   -1.326003   -0.095689
  C     -5.112691   -2.697135   -0.362945
  C     -6.143458   -0.636621    0.305047
  C     -6.319150   -3.350641   -0.237329
  H     -4.249758   -3.258689   -0.696123
  C     -7.356895   -1.276105    0.433842
  H     -6.083389    0.417561    0.541602
  C     -7.458334   -2.644787    0.163633
  H     -6.392916   -4.407526   -0.456335
  H     -8.232679   -0.726552    0.752317
  C     -8.702010   -3.308867    0.295079
  C      8.710011   -3.288006    0.352296
  N      9.727933   -3.829897    0.462870
  N     -9.719483   -3.852228    0.402576

----------------------------
CARTESIAN COORDINATES (A.U.)
----------------------------
  NO LB      ZA    FRAG     MASS         X           Y           Z
   0 C     6.0000    0    12.011    6.870171    1.407750   -0.872371
   1 C     6.0000    0    12.011    4.575176    2.608398   -1.110373
   2 C     6.0000    0    12.011    2.298969    1.271515   -0.882742
   3 C     6.0000    0    12.011    2.377640   -1.331397   -0.385289
   4 C     6.0000    0    12.011    4.721309   -2.477302   -0.143045
   5 C     6.0000    0    12.011    7.009015   -1.182817   -0.375965
   6 C     6.0000    0    12.011    0.005310   -2.925874   -0.092776
   7 C     6.0000    0    12.011   -2.368267   -1.339993   -0.419816
   8 C     6.0000    0    12.011   -2.291873    1.266084   -0.900354
   9 C     6.0000    0    12.011   -4.569613    2.599090   -1.135432
  10 H     1.0000    0     1.008   -4.531132    4.603405   -1.528053
  11 C     6.0000    0    12.011   -6.863374    1.396037   -0.897833
  12 C     6.0000    0    12.011   -7.000232   -1.200551   -0.432692
  13 C     6.0000    0    12.011   -4.710889   -2.494512   -0.212379
  14 H     1.0000    0     1.008    4.534487    4.618846   -1.469925
  15 H     1.0000    0     1.008    4.766328   -4.494381    0.204635
  16 H     1.0000    0     1.008   -8.573876    2.493562   -1.130788
  17 N     7.0000    0    14.007    0.002850    2.527949   -1.137802
  18 C     6.0000    0    12.011    0.001113    5.207184   -1.525752
  19 C     6.0000    0    12.011   -0.016683    6.829253    0.604915
  20 C     6.0000    0    12.011    0.017159    6.157247   -3.933125
  21 C     6.0000    0    12.011   -0.032488    5.921846    3.113745
  22 C     6.0000    0    12.011   -0.018056    9.492017    0.176130
  23 C     6.0000    0    12.011    0.015849    8.780760   -4.338269
  24 H     1.0000    0     1.008    0.030738    4.862133   -5.517724
  25 C     6.0000    0    12.011   -0.049303    7.569408    5.110069
  26 H     1.0000    0     1.008   -0.031044    3.901693    3.446392
  27 C     6.0000    0    12.011   -0.035657   11.130430    2.282173
  28 C     6.0000    0    12.011   -0.001502   10.409224   -2.328764
  29 H     1.0000    0     1.008    0.028590    9.500953   -6.252435
  30 C     6.0000    0    12.011   -0.051019   10.194392    4.693641
  31 H     1.0000    0     1.008   -0.061263    6.850032    7.025338
  32 H     1.0000    0     1.008   -0.036610   13.150476    1.946063
  33 H     1.0000    0     1.008   -0.002708   12.434617   -2.629412
  34 H     1.0000    0     1.008   -0.064368   11.472361    6.291267
  35 H     1.0000    0     1.008   -4.752614   -4.499752    0.196715
  36 H     1.0000    0     1.008    8.579772    2.520486   -1.026450
  37 C     6.0000    0    12.011    0.019298   -5.043295   -2.076828
  38 H     1.0000    0     1.008    0.033648   -4.273344   -3.987942
  39 H     1.0000    0     1.008    1.677215   -6.245978   -1.860879
  40 H     1.0000    0     1.008   -1.644368   -6.242366   -1.884715
  41 C     6.0000    0    12.011   -0.007863   -4.114370    2.556130
  42 H     1.0000    0     1.008    1.657573   -5.292375    2.842532
  43 H     1.0000    0     1.008   -0.023153   -2.663081    4.019825
  44 H     1.0000    0     1.008   -1.666056   -5.307052    2.821677
  45 C     6.0000    0    12.011    9.440136   -2.480952   -0.104196
  46 C     6.0000    0    12.011    9.661200   -4.710226    1.310994
  47 C     6.0000    0    12.011   11.632801   -1.531937   -1.250020
  48 C     6.0000    0    12.011   11.942686   -5.937629    1.570434
  49 H     1.0000    0     1.008    8.020584   -5.475820    2.261583
  50 C     6.0000    0    12.011   13.927586   -2.737159   -1.006071
  51 H     1.0000    0     1.008   11.528673    0.163809   -2.387739
  52 C     6.0000    0    12.011   14.108058   -4.962086    0.409712
  53 H     1.0000    0     1.008   12.073449   -7.647440    2.683438
  54 H     1.0000    0     1.008   15.592391   -1.979964   -1.919584
  55 C     6.0000    0    12.011   -9.429680   -2.505783   -0.180826
  56 C     6.0000    0    12.011   -9.661586   -5.096846   -0.685867
  57 C     6.0000    0    12.011  -11.609453   -1.203039    0.576455
  58 C     6.0000    0    12.011  -11.941463   -6.331794   -0.448487
  59 H     1.0000    0     1.008   -8.030879   -6.158030   -1.315482
  60 C     6.0000    0    12.011  -13.902517   -2.411489    0.819843
  61 H     1.0000    0     1.008  -11.495939    0.789076    1.023479
  62 C     6.0000    0    12.011  -14.094209   -4.997923    0.309222
  63 H     1.0000    0     1.008  -12.080860   -8.329017   -0.862348
  64 H     1.0000    0     1.008  -15.557509   -1.372984    1.421673
  65 C     6.0000    0    12.011  -16.444416   -6.252852    0.557618
  66 C     6.0000    0    12.011   16.459535   -6.213431    0.665743
  67 N     7.0000    0    14.007   18.383129   -7.237456    0.874698
  68 N     7.0000    0    14.007  -18.367161   -7.279656    0.760758

--------------------------------
INTERNAL COORDINATES (ANGSTROEM)
--------------------------------
 C      0   0   0     0.000000000000     0.00000000     0.00000000
 C      1   0   0     1.376390225351     0.00000000     0.00000000
 C      2   1   0     1.402089071651   121.14741034     0.00000000
 C      3   2   1     1.402948763799   119.07846131     0.47097882
 C      4   3   2     1.386460816801   118.24816178   359.88954143
 C      5   4   3     1.396420668740   123.55786091   359.77094770
 C      4   3   2     1.520486552223   122.64451084   179.60684950
 C      7   4   3     1.520483888319   111.35695384     0.25699195
 C      8   7   4     1.402908064523   122.64202046   359.33114587
 C      9   8   7     1.402096275868   119.06914734   181.06694545
 H     10   9   8     1.080987663930   119.63604854   180.73423900
 C     10   9   8     1.376382487481   121.15209246     0.13466004
 C     12  10   9     1.397804697829   121.09479763   359.51385738
 C      8   7   4     1.386385711016   119.10545478   180.00990292
 H      2   1   3     1.080977426222   119.20868848   179.69783237
 H      5   4   3     1.083394355371   117.79272914   181.17005411
 H     12  10   9     1.082506586854   118.60964989   181.20568481
 N      9   8   7     1.391488198595   120.88020810     0.92531567
 C     18   9   8     1.432576334824   119.16388896   182.52519142
 C     19  18   9     1.417085125507   119.04238305    88.23316883
 C     19  18   9     1.369569885736   119.77472842   268.21799392
 C     20  19  18     1.411809502728   122.83501657     0.00000000
 C     20  19  18     1.427226344142   118.13363521   179.99888649
 C     21  19  18     1.404759786763   120.31442366   180.00513816
 H     21  19  18     1.082999850774   119.20525050     0.00000000
 C     22  20  19     1.369746348631   120.58416582   179.99762937
 H     22  20  19     1.083415162760   119.23410600     0.00000000
 C     23  20  19     1.412033358535   118.73315193   180.00115465
 C     24  21  19     1.368749797843   120.24137739     0.00000000
 H     24  21  19     1.082277020523   119.39640933   180.00241591
 C     28  23  20     1.368880486521   120.90556984     0.00000000
 H     26  22  20     1.082668806173   119.88229148   180.00188896
 H     28  23  20     1.083658111447   118.43418012   179.99957736
 H     29  24  21     1.083535894894   120.57685157   180.00344188
 H     31  28  23     1.082654391027   120.13006740   179.99797145
 H     14   8   7     1.083209548434   117.75822039     0.57385446
 H      1   2   3     1.082508260742   118.64738687   181.15581100
 C      7   4   3     1.535537813898   109.35054353   121.02950171
 H     38   7   4     1.090334780900   111.19523328   299.06424173
 H     38   7   4     1.089869673160   110.99595160    59.38231499
 H     38   7   4     1.089958917373   110.92416092   178.80835302
 C      7   4   3     1.536383116787   108.89230866   240.00337253
 H     42   7   4     1.090079125614   110.93287178   300.74137360
 H     42   7   4     1.090782502297   111.08053619    60.94348742
 H     42   7   4     1.089977748179   110.99631004   181.20835499
 C      6   5   4     1.465482843257   121.49622572   180.01924625
 C     46   6   5     1.402199091100   121.33300907   334.83502278
 C     46   6   5     1.402201671661   121.07142017   154.94244638
 C     47  46   6     1.377793314106   121.52891817   179.96531833
 H     47  46   6     1.082083569995   119.75754619   358.60438281
 C     48  46   6     1.377702448188   121.53767636   179.98692245
 H     48  46   6     1.082008999930   119.70244745   358.68035944
 C     51  48  46     1.398802091493   120.00093382     0.03510008
 H     49  47  46     1.081818527404   120.30306201   179.51506592
 H     51  48  46     1.081830938146   120.29506264   179.48166117
 C     13  12  10     1.465475929862   121.65297242   180.12744977
 C     56  13  12     1.402315472325   121.35042617   155.04643114
 C     56  13  12     1.402272026326   121.05812057   335.03106014
 C     57  56  13     1.377821755589   121.53429930   179.92148586
 H     57  56  13     1.082129307010   119.75470883   358.61166696
 C     58  56  13     1.377663707604   121.53663228   180.01508982
 H     58  56  13     1.082065729016   119.71986785   358.64117521
 C     61  58  56     1.398782753513   120.00042539     0.05334163
 H     59  57  56     1.081855329523   120.30511488   179.50679496
 H     61  58  56     1.081865259674   120.31446757   179.49509102
 C     63  61  58     1.415983859474   120.30868289   179.94211401
 C     53  51  48     1.416066639247   120.32073081   179.90515456
 N     67  53  51     1.158463492494   179.98416721   270.85382123
 N     66  63  61     1.158467991383   179.99640662   158.98962794

---------------------------
INTERNAL COORDINATES (A.U.)
---------------------------
 C      0   0   0     0.000000000000     0.00000000     0.00000000
 C      1   0   0     2.601000579320     0.00000000     0.00000000
 C      2   1   0     2.649564360783   121.14741034     0.00000000
 C      3   2   1     2.651188943504   119.07846131     0.47097882
 C      4   3   2     2.620031239167   118.24816178   359.88954143
 C      5   4   3     2.638852631666   123.55786091   359.77094770
 C      4   3   2     2.873303174012   122.64451084   179.60684950
 C      7   4   3     2.873298139962   111.35695384     0.25699195
 C      8   7   4     2.651112033019   122.64202046   359.33114587
 C      9   8   7     2.649577974782   119.06914734   181.06694545
 H     10   9   8     2.042770638975   119.63604854   180.73423900
 C     10   9   8     2.600985956864   121.15209246     0.13466004
 C     12  10   9     2.641468067605   121.09479763   359.51385738
 C      8   7   4     2.619889309802   119.10545478   180.00990292
 H      2   1   3     2.042751292511   119.20868848   179.69783237
 H      5   4   3     2.047318626687   117.79272914   181.17005411
 H     12  10   9     2.045640987320   118.60964989   181.20568481
 N      9   8   7     2.629531613928   120.88020810     0.92531567
 C     18   9   8     2.707176938754   119.16388896   182.52519142
 C     19  18   9     2.677902795662   119.04238305    88.23316883
 C     19  18   9     2.588112005306   119.77472842   268.21799392
 C     20  19  18     2.667933313423   122.83501657     0.00000000
 C     20  19  18     2.697066921547   118.13363521   179.99888649
 C     21  19  18     2.654611280928   120.31442366   180.00513816
 H     21  19  18     2.046573121041   119.20525050     0.00000000
 C     22  20  19     2.588445471852   120.58416582   179.99762937
 H     22  20  19     2.047357946954   119.23410600     0.00000000
 C     23  20  19     2.668356339593   118.73315193   180.00115465
 C     24  21  19     2.586562263784   120.24137739     0.00000000
 H     24  21  19     2.045207169825   119.39640933   180.00241591
 C     28  23  20     2.586809229593   120.90556984     0.00000000
 H     26  22  20     2.045947537406   119.88229148   180.00188896
 H     28  23  20     2.047817053436   118.43418012   179.99957736
 H     29  24  21     2.047586097623   120.57685157   180.00344188
 H     31  28  23     2.045920296727   120.13006740   179.99797145
 H     14   8   7     2.046969392188   117.75822039     0.57385446
 H      1   2   3     2.045644150509   118.64738687   181.15581100
 C      7   4   3     2.901745936547   109.35054353   121.02950171
 H     38   7   4     2.060434130191   111.19523328   299.06424173
 H     38   7   4     2.059555203938   110.99595160    59.38231499
 H     38   7   4     2.059723851060   110.92416092   178.80835302
 C      7   4   3     2.903343327507   108.89230866   240.00337253
 H     42   7   4     2.059951011714   110.93287178   300.74137360
 H     42   7   4     2.061280201015   111.08053619    60.94348742
 H     42   7   4     2.059759436126   110.99631004   181.20835499
 C      6   5   4     2.769361227716   121.49622572   180.01924625
 C     46   6   5     2.649772267412   121.33300907   334.83502278
 C     46   6   5     2.649777143966   121.07142017   154.94244638
 C     47  46   6     2.603652032809   121.52891817   179.96531833
 H     47  46   6     2.044841601307   119.75754619   358.60438281
 C     48  46   6     2.603480321109   121.53767636   179.98692245
 H     48  46   6     2.044700684305   119.70244745   358.68035944
 C     51  48  46     2.643352868478   120.00093382     0.03510008
 H     49  47  46     2.044340743395   120.30306201   179.51506592
 H     51  48  46     2.044364196298   120.29506264   179.48166117
 C     13  12  10     2.769348163293   121.65297242   180.12744977
 C     56  13  12     2.649992196054   121.35042617   155.04643114
 C     56  13  12     2.649910095015   121.05812057   335.03106014
 C     57  56  13     2.603705779421   121.53429930   179.92148586
 H     57  56  13     2.044928031738   119.75470883   358.61166696
 C     58  56  13     2.603407112015   121.53663228   180.01508982
 H     58  56  13     2.044807886741   119.71986785   358.64117521
 C     61  58  56     2.643316324992   120.00042539     0.05334163
 H     59  57  56     2.044410289321   120.30511488   179.50679496
 H     61  58  56     2.044429054588   120.31446757   179.49509102
 C     63  61  58     2.675821704459   120.30868289   179.94211401
 C     53  51  48     2.675978135560   120.32073081   179.90515456
 N     67  53  51     2.189178736959   179.98416721   270.85382123
 N     66  63  61     2.189187238628   179.99640662   158.98962794

---------------------
BASIS SET INFORMATION
---------------------
There are 3 groups of distinct atoms

 Group   1 Type C   : 11s6p2d1f contracted to 5s3p2d1f pattern {62111/411/11/1}
 Group   2 Type H   : 5s1p contracted to 3s1p pattern {311/1}
 Group   3 Type N   : 11s6p2d1f contracted to 5s3p2d1f pattern {62111/411/11/1}

Atom   0C    basis set group =>   1
Atom   1C    basis set group =>   1
Atom   2C    basis set group =>   1
Atom   3C    basis set group =>   1
Atom   4C    basis set group =>   1
Atom   5C    basis set group =>   1
Atom   6C    basis set group =>   1
Atom   7C    basis set group =>   1
Atom   8C    basis set group =>   1
Atom   9C    basis set group =>   1
Atom  10H    basis set group =>   2
Atom  11C    basis set group =>   1
Atom  12C    basis set group =>   1
Atom  13C    basis set group =>   1
Atom  14H    basis set group =>   2
Atom  15H    basis set group =>   2
Atom  16H    basis set group =>   2
Atom  17N    basis set group =>   3
Atom  18C    basis set group =>   1
Atom  19C    basis set group =>   1
Atom  20C    basis set group =>   1
Atom  21C    basis set group =>   1
Atom  22C    basis set group =>   1
Atom  23C    basis set group =>   1
Atom  24H    basis set group =>   2
Atom  25C    basis set group =>   1
Atom  26H    basis set group =>   2
Atom  27C    basis set group =>   1
Atom  28C    basis set group =>   1
Atom  29H    basis set group =>   2
Atom  30C    basis set group =>   1
Atom  31H    basis set group =>   2
Atom  32H    basis set group =>   2
Atom  33H    basis set group =>   2
Atom  34H    basis set group =>   2
Atom  35H    basis set group =>   2
Atom  36H    basis set group =>   2
Atom  37C    basis set group =>   1
Atom  38H    basis set group =>   2
Atom  39H    basis set group =>   2
Atom  40H    basis set group =>   2
Atom  41C    basis set group =>   1
Atom  42H    basis set group =>   2
Atom  43H    basis set group =>   2
Atom  44H    basis set group =>   2
Atom  45C    basis set group =>   1
Atom  46C    basis set group =>   1
Atom  47C    basis set group =>   1
Atom  48C    basis set group =>   1
Atom  49H    basis set group =>   2
Atom  50C    basis set group =>   1
Atom  51H    basis set group =>   2
Atom  52C    basis set group =>   1
Atom  53H    basis set group =>   2
Atom  54H    basis set group =>   2
Atom  55C    basis set group =>   1
Atom  56C    basis set group =>   1
Atom  57C    basis set group =>   1
Atom  58C    basis set group =>   1
Atom  59H    basis set group =>   2
Atom  60C    basis set group =>   1
Atom  61H    basis set group =>   2
Atom  62C    basis set group =>   1
Atom  63H    basis set group =>   2
Atom  64H    basis set group =>   2
Atom  65C    basis set group =>   1
Atom  66C    basis set group =>   1
Atom  67N    basis set group =>   3
Atom  68N    basis set group =>   3
---------------------------------
AUXILIARY/J BASIS SET INFORMATION
---------------------------------
There are 3 groups of distinct atoms

 Group   1 Type C   : 12s5p4d2f1g contracted to 6s4p3d1f1g pattern {711111/2111/211/2/1}
 Group   2 Type H   : 5s2p1d contracted to 3s1p1d pattern {311/2/1}
 Group   3 Type N   : 12s5p4d2f1g contracted to 6s4p3d1f1g pattern {711111/2111/211/2/1}

Atom   0C    basis set group =>   1
Atom   1C    basis set group =>   1
Atom   2C    basis set group =>   1
Atom   3C    basis set group =>   1
Atom   4C    basis set group =>   1
Atom   5C    basis set group =>   1
Atom   6C    basis set group =>   1
Atom   7C    basis set group =>   1
Atom   8C    basis set group =>   1
Atom   9C    basis set group =>   1
Atom  10H    basis set group =>   2
Atom  11C    basis set group =>   1
Atom  12C    basis set group =>   1
Atom  13C    basis set group =>   1
Atom  14H    basis set group =>   2
Atom  15H    basis set group =>   2
Atom  16H    basis set group =>   2
Atom  17N    basis set group =>   3
Atom  18C    basis set group =>   1
Atom  19C    basis set group =>   1
Atom  20C    basis set group =>   1
Atom  21C    basis set group =>   1
Atom  22C    basis set group =>   1
Atom  23C    basis set group =>   1
Atom  24H    basis set group =>   2
Atom  25C    basis set group =>   1
Atom  26H    basis set group =>   2
Atom  27C    basis set group =>   1
Atom  28C    basis set group =>   1
Atom  29H    basis set group =>   2
Atom  30C    basis set group =>   1
Atom  31H    basis set group =>   2
Atom  32H    basis set group =>   2
Atom  33H    basis set group =>   2
Atom  34H    basis set group =>   2
Atom  35H    basis set group =>   2
Atom  36H    basis set group =>   2
Atom  37C    basis set group =>   1
Atom  38H    basis set group =>   2
Atom  39H    basis set group =>   2
Atom  40H    basis set group =>   2
Atom  41C    basis set group =>   1
Atom  42H    basis set group =>   2
Atom  43H    basis set group =>   2
Atom  44H    basis set group =>   2
Atom  45C    basis set group =>   1
Atom  46C    basis set group =>   1
Atom  47C    basis set group =>   1
Atom  48C    basis set group =>   1
Atom  49H    basis set group =>   2
Atom  50C    basis set group =>   1
Atom  51H    basis set group =>   2
Atom  52C    basis set group =>   1
Atom  53H    basis set group =>   2
Atom  54H    basis set group =>   2
Atom  55C    basis set group =>   1
Atom  56C    basis set group =>   1
Atom  57C    basis set group =>   1
Atom  58C    basis set group =>   1
Atom  59H    basis set group =>   2
Atom  60C    basis set group =>   1
Atom  61H    basis set group =>   2
Atom  62C    basis set group =>   1
Atom  63H    basis set group =>   2
Atom  64H    basis set group =>   2
Atom  65C    basis set group =>   1
Atom  66C    basis set group =>   1
Atom  67N    basis set group =>   3
Atom  68N    basis set group =>   3
---------------------------------
AUXILIARY/C BASIS SET INFORMATION
---------------------------------
There are 3 groups of distinct atoms

 Group   1 Type C   : 8s6p5d3f1g contracted to 8s6p4d3f1g pattern {11111111/111111/2111/111/1}
 Group   2 Type H   : 4s3p2d contracted to 4s2p1d pattern {1111/21/2}
 Group   3 Type N   : 8s6p5d3f1g contracted to 8s6p4d3f1g pattern {11111111/111111/2111/111/1}

Atom   0C    basis set group =>   1
Atom   1C    basis set group =>   1
Atom   2C    basis set group =>   1
Atom   3C    basis set group =>   1
Atom   4C    basis set group =>   1
Atom   5C    basis set group =>   1
Atom   6C    basis set group =>   1
Atom   7C    basis set group =>   1
Atom   8C    basis set group =>   1
Atom   9C    basis set group =>   1
Atom  10H    basis set group =>   2
Atom  11C    basis set group =>   1
Atom  12C    basis set group =>   1
Atom  13C    basis set group =>   1
Atom  14H    basis set group =>   2
Atom  15H    basis set group =>   2
Atom  16H    basis set group =>   2
Atom  17N    basis set group =>   3
Atom  18C    basis set group =>   1
Atom  19C    basis set group =>   1
Atom  20C    basis set group =>   1
Atom  21C    basis set group =>   1
Atom  22C    basis set group =>   1
Atom  23C    basis set group =>   1
Atom  24H    basis set group =>   2
Atom  25C    basis set group =>   1
Atom  26H    basis set group =>   2
Atom  27C    basis set group =>   1
Atom  28C    basis set group =>   1
Atom  29H    basis set group =>   2
Atom  30C    basis set group =>   1
Atom  31H    basis set group =>   2
Atom  32H    basis set group =>   2
Atom  33H    basis set group =>   2
Atom  34H    basis set group =>   2
Atom  35H    basis set group =>   2
Atom  36H    basis set group =>   2
Atom  37C    basis set group =>   1
Atom  38H    basis set group =>   2
Atom  39H    basis set group =>   2
Atom  40H    basis set group =>   2
Atom  41C    basis set group =>   1
Atom  42H    basis set group =>   2
Atom  43H    basis set group =>   2
Atom  44H    basis set group =>   2
Atom  45C    basis set group =>   1
Atom  46C    basis set group =>   1
Atom  47C    basis set group =>   1
Atom  48C    basis set group =>   1
Atom  49H    basis set group =>   2
Atom  50C    basis set group =>   1
Atom  51H    basis set group =>   2
Atom  52C    basis set group =>   1
Atom  53H    basis set group =>   2
Atom  54H    basis set group =>   2
Atom  55C    basis set group =>   1
Atom  56C    basis set group =>   1
Atom  57C    basis set group =>   1
Atom  58C    basis set group =>   1
Atom  59H    basis set group =>   2
Atom  60C    basis set group =>   1
Atom  61H    basis set group =>   2
Atom  62C    basis set group =>   1
Atom  63H    basis set group =>   2
Atom  64H    basis set group =>   2
Atom  65C    basis set group =>   1
Atom  66C    basis set group =>   1
Atom  67N    basis set group =>   3
Atom  68N    basis set group =>   3


           ************************************************************
           *        Program running with 4 parallel MPI-processes     *
           *              working on a common directory               *
           ************************************************************
------------------------------------------------------------------------------
                           ORCA GTO INTEGRAL CALCULATION
                           -- RI-GTO INTEGRALS CHOSEN --
------------------------------------------------------------------------------
------------------------------------------------------------------------------
                   ___                                                        
                  /   \      - P O W E R E D   B Y -                         
                 /     \                                                     
                 |  |  |   _    _      __       _____    __    __             
                 |  |  |  | |  | |    /  \     |  _  \  |  |  /  |          
                  \  \/   | |  | |   /    \    | | | |  |  | /  /          
                 / \  \   | |__| |  /  /\  \   | |_| |  |  |/  /          
                |  |  |   |  __  | /  /__\  \  |    /   |      \           
                |  |  |   | |  | | |   __   |  |    \   |  |\   \          
                \     /   | |  | | |  |  |  |  | |\  \  |  | \   \       
                 \___/    |_|  |_| |__|  |__|  |_| \__\ |__|  \__/        
                                                                              
                      - O R C A' S   B I G   F R I E N D -                    
                                      &                                       
                       - I N T E G R A L  F E E D E R -                       
                                                                              
 v1 FN, 2020, v2 2021                                                         
------------------------------------------------------------------------------


Reading SHARK input file Me2-Acr_3_M06L_def2TZVP_coords.SHARKINP.tmp ... ok
----------------------
SHARK INTEGRAL PACKAGE
----------------------

Number of atoms                             ...     69
Number of basis functions                   ...   1464
Number of shells                            ...    570
Maximum angular momentum                    ...      3
Integral batch strategy                     ... SHARK/LIBINT Hybrid
RI-J (if used) integral strategy            ... SPLIT-RIJ (Revised 2003 algorithm where possible)
Printlevel                                  ...      1
Contraction scheme used                     ... SEGMENTED contraction
Coulomb Range Separation                    ... NOT USED
Exchange Range Separation                   ... Long Range
   Mu parameter                             ...  0.180000
   Scaling (regular/separated)              ...  0.700000  0.300000
Finite Nucleus Model                        ... NOT USED
Auxiliary Coulomb fitting basis             ... AVAILABLE
   # of basis functions in Aux-J            ...   2355
   # of shells in Aux-J                     ...    765
   Maximum angular momentum in Aux-J        ...      4
Auxiliary J/K fitting basis                 ... NOT available
Auxiliary Correlation fitting basis         ... AVAILABLE
   # of basis functions in Aux-C            ...   3597
   # of shells in Aux-C                     ...   1113
   Maximum angular momentum in Aux-C        ...      4
Auxiliary 'external' fitting basis          ... NOT available
Integral threshold                          ...     2.500000e-11
Primitive cut-off                           ...     2.500000e-12
Primitive pair pre-selection threshold      ...     2.500000e-12

Calculating pre-screening integrals         ... done (  0.3 sec) Dimension = 570
Organizing shell pair data                  ... done (  4.7 sec)
Shell pair information
Total number of shell pairs                 ...    162735
Shell pairs after pre-screening             ...     83533
Total number of primitive shell pairs       ...    503508
Primitive shell pairs kept                  ...    162500
          la=0 lb=0:  21270 shell pairs
          la=1 lb=0:  24621 shell pairs
          la=1 lb=1:   7099 shell pairs
          la=2 lb=0:  11691 shell pairs
          la=2 lb=1:   6826 shell pairs
          la=2 lb=2:   1629 shell pairs
          la=3 lb=0:   5392 shell pairs
          la=3 lb=1:   3205 shell pairs
          la=3 lb=2:   1447 shell pairs
          la=3 lb=3:    353 shell pairs

Calculating one electron integrals          ... done (  0.4 sec)
Calculating RI/J V-Matrix + Cholesky decomp.... done (  0.4 sec)
Calculating RI/C V-Matrix + Cholesky decomp.... done (  1.1 sec)
Calculating Nuclear repulsion               ... done (  0.0 sec) ENN=   4231.713623795548 Eh

SHARK setup successfully completed in   8.4 seconds

Maximum memory used throughout the entire GTOINT-calculation: 185.5 MB


           ************************************************************
           *        Program running with 4 parallel MPI-processes     *
           *              working on a common directory               *
           ************************************************************
-------------------------------------------------------------------------------
                                 ORCA SCF
-------------------------------------------------------------------------------

------------
SCF SETTINGS
------------
Hamiltonian:
 Density Functional     Method          .... DFT(GTOs)
 Exchange Functional    Exchange        .... LC-PBE
 Correlation Functional Correlation     .... P86
 LDA part of GGA corr.  LDAOpt          .... VWN-5
 Gradients option       PostSCFGGA      .... off
 Hybrid DFT is turned on
   Fraction HF Exchange ScalHFX         ....  0.700000
   Scaling of DF-GGA-X  ScalDFX         ....  0.000000
   Scaling of DF-GGA-C  ScalDFC         ....  0.680000
   Scaling of DF-LDA-C  ScalLDAC        ....  0.680000
   Perturbative correction              ....  0.480000
   Density functional embedding theory  .... OFF
 Long-range corrected/Screened/Range-Separated Hybrid DFT is turned on
   Amount of maximum screened exact exchange              ....  0.300000
   Range separation parameter mu (erf(mu*r12)/r12)        ....  0.180000
 RI-approximation to the Coulomb term is turned on
   Number of AuxJ basis functions       .... 2355
   RIJ-COSX (HFX calculated with COS-X)).... on


General Settings:
 Integral files         IntName         .... Me2-Acr_3_M06L_def2TZVP_coords
 Hartree-Fock type      HFTyp           .... RHF
 Total Charge           Charge          ....    0
 Multiplicity           Mult            ....    1
 Number of Electrons    NEL             ....  282
 Basis Dimension        Dim             .... 1464
 Nuclear Repulsion      ENuc            ....   4231.7136237955 Eh

Convergence Acceleration:
 DIIS                   CNVDIIS         .... on
   Start iteration      DIISMaxIt       ....    12
   Startup error        DIISStart       ....  0.200000
   # of expansion vecs  DIISMaxEq       ....     5
   Bias factor          DIISBfac        ....   1.050
   Max. coefficient     DIISMaxC        ....  10.000
 Trust-Rad. Augm. Hess. CNVTRAH         .... auto
   Auto Start mean grad. ratio tolernc. ....  1.125000
   Auto Start start iteration           ....    20
   Auto Start num. interpolation iter.  ....    10
   Max. Number of Micro iterations      ....    16
   Max. Number of Macro iterations      .... Maxiter - #DIIS iter
   Number of Davidson start vectors     ....     2
   Converg. threshold I  (grad. norm)   ....   1.000e-05
   Converg. threshold II (energy diff.) ....   1.000e-08
   Grad. Scal. Fac. for Micro threshold ....   0.100
   Minimum threshold for Micro iter.    ....   0.010
   NR start threshold (gradient norm)   ....   0.001
   Initial trust radius                 ....   0.400
   Minimum AH scaling param. (alpha)    ....   1.000
   Maximum AH scaling param. (alpha)    .... 1000.000
   Orbital update algorithm             .... Taylor
   White noise on init. David. guess    .... on
   Maximum white noise                  ....   0.010
   Quad. conv. algorithm                .... NR
 SOSCF                  CNVSOSCF        .... on
   Start iteration      SOSCFMaxIt      ....   150
   Startup grad/error   SOSCFStart      ....  0.003300
 Level Shifting         CNVShift        .... on
   Level shift para.    LevelShift      ....    0.2500
   Turn off err/grad.   ShiftErr        ....    0.0010
 Zerner damping         CNVZerner       .... off
 Static damping         CNVDamp         .... on
   Fraction old density DampFac         ....    0.7000
   Max. Damping (<1)    DampMax         ....    0.9800
   Min. Damping (>=0)   DampMin         ....    0.0000
   Turn off err/grad.   DampErr         ....    0.1000
 Fernandez-Rico         CNVRico         .... off

SCF Procedure:
 Maximum # iterations   MaxIter         ....   125
 SCF integral mode      SCFMode         .... Direct
   Integral package                     .... SHARK and LIBINT hybrid scheme
 Reset frequency        DirectResetFreq ....    20
 Integral Threshold     Thresh          ....  2.500e-11 Eh
 Primitive CutOff       TCut            ....  2.500e-12 Eh

Convergence Tolerance:
 Convergence Check Mode ConvCheckMode   .... Total+1el-Energy
 Convergence forced     ConvForced      .... 1
 Energy Change          TolE            ....  1.000e-08 Eh
 1-El. energy change                    ....  1.000e-05 Eh
 Orbital Gradient       TolG            ....  1.000e-05
 Orbital Rotation angle TolX            ....  1.000e-05
 DIIS Error             TolErr          ....  5.000e-07


Diagonalization of the overlap matrix:
Smallest eigenvalue                        ... 3.099e-06
Time for diagonalization                   ...    0.556 sec
Threshold for overlap eigenvalues          ... 1.000e-08
Number of eigenvalues below threshold      ... 0
Time for construction of square roots      ...    0.415 sec
Total time needed                          ...    0.980 sec

Time for model grid setup =    1.923 sec

------------------------------
INITIAL GUESS: MODEL POTENTIAL
------------------------------
Loading Hartree-Fock densities                     ... done
Calculating cut-offs                               ... done
Initializing the effective Hamiltonian             ... done
Setting up the integral package (SHARK)            ... done
Starting the Coulomb interaction                   ... done (   5.4 sec)
Reading the grid                                   ... done
Mapping shells                                     ... done
Starting the XC term evaluation                    ... done (   2.1 sec)
  promolecular density results
     # of electrons  =    281.986300582
     EX              =   -218.144342097
     EC              =     -4.613507655
     EX+EC           =   -222.757849753
Transforming the Hamiltonian                       ... done (   0.5 sec)
Diagonalizing the Hamiltonian                      ... done (   0.7 sec)
Back transforming the eigenvectors                 ... done (   0.2 sec)
Now organizing SCF variables                       ... done
                      ------------------
                      INITIAL GUESS DONE (  10.8 sec)
                      ------------------
-------------------
DFT GRID GENERATION
-------------------

General Integration Accuracy     IntAcc      ... 4.388
Radial Grid Type                 RadialGrid  ... OptM3 with GC (2021)
Angular Grid (max. ang.)         AngularGrid ... 4 (Lebedev-302)
Angular grid pruning method      GridPruning ... 4 (adaptive)
Weight generation scheme         WeightScheme... Becke
Basis function cutoff            BFCut       ... 1.0000e-11
Integration weight cutoff        WCut        ... 1.0000e-14
Angular grids for H and He will be reduced by one unit
Partially contracted basis set               ... off
Rotationally invariant grid construction     ... off

Total number of grid points                  ...   334610
Total number of batches                      ...     5264
Average number of points per batch           ...       63
Average number of grid points per atom       ...     4849
Time for grid setup =    6.410 sec

--------------------
COSX GRID GENERATION
--------------------

GRIDX 1
-------
General Integration Accuracy     IntAcc      ... 3.816
Radial Grid Type                 RadialGrid  ... OptM3 with GC (2021)
Angular Grid (max. ang.)         AngularGrid ... 1 (Lebedev-50)
Angular grid pruning method      GridPruning ... 4 (adaptive)
Weight generation scheme         WeightScheme... Becke
Basis function cutoff            BFCut       ... 1.0000e-11
Integration weight cutoff        WCut        ... 1.0000e-14
Angular grids for H and He will be reduced by one unit
Partially contracted basis set               ... on
Rotationally invariant grid construction     ... off

Total number of grid points                  ...    42430
Total number of batches                      ...      689
Average number of points per batch           ...       61
Average number of grid points per atom       ...      615
UseSFitting                                  ... on

GRIDX 2
-------
General Integration Accuracy     IntAcc      ... 4.020
Radial Grid Type                 RadialGrid  ... OptM3 with GC (2021)
Angular Grid (max. ang.)         AngularGrid ... 2 (Lebedev-110)
Angular grid pruning method      GridPruning ... 4 (adaptive)
Weight generation scheme         WeightScheme... Becke
Basis function cutoff            BFCut       ... 1.0000e-11
Integration weight cutoff        WCut        ... 1.0000e-14
Angular grids for H and He will be reduced by one unit
Partially contracted basis set               ... on
Rotationally invariant grid construction     ... off

Total number of grid points                  ...    92215
Total number of batches                      ...     1473
Average number of points per batch           ...       62
Average number of grid points per atom       ...     1336
UseSFitting                                  ... on

GRIDX 3
-------
General Integration Accuracy     IntAcc      ... 4.338
Radial Grid Type                 RadialGrid  ... OptM3 with GC (2021)
Angular Grid (max. ang.)         AngularGrid ... 3 (Lebedev-194)
Angular grid pruning method      GridPruning ... 4 (adaptive)
Weight generation scheme         WeightScheme... Becke
Basis function cutoff            BFCut       ... 1.0000e-11
Integration weight cutoff        WCut        ... 1.0000e-14
Angular grids for H and He will be reduced by one unit
Partially contracted basis set               ... on
Rotationally invariant grid construction     ... off

Total number of grid points                  ...   201173
Total number of batches                      ...     3181
Average number of points per batch           ...       63
Average number of grid points per atom       ...     2916
UseSFitting                                  ... on

Time for X-Grid setup             =   12.433 sec


--------------------
CPCM SOLVATION MODEL
--------------------
CPCM parameters:
  Epsilon                                         ...      37.2190
  Refrac                                          ...       1.4305
  Rsolv                                           ...       1.3000
  Surface type                                    ... GAUSSIAN VDW
  Epsilon function type                           ...         CPCM
Solvent:                                     ... N,N-DIMETHYLFORMAMIDE
SMD-CDS solvent descriptors:
  Soln                                       ...    1.4305
  Soln25                                     ...    1.4280
  Sola                                       ...    0.0000
  Solb                                       ...    0.7400
  Solg                                       ...   49.5600
  Solc                                       ...    0.0000
  Solh                                       ...    0.0000
Radii:
 Radius for C  used is    3.4960 Bohr (=   1.8500 Ang.)
 Radius for H  used is    2.2677 Bohr (=   1.2000 Ang.)
 Radius for N  used is    3.5716 Bohr (=   1.8900 Ang.)
Calculating surface                               ...        done! (  0.0s)
GEPOL surface points                              ...         3868
GEPOL Volume                                      ...    3768.8728
GEPOL Surface-area                                ...    2013.9385
Calculating surface distance matrix               ...        done! (  0.1s)
Performing Cholesky decomposition & store         ...        done! (  0.9s)
Overall time for CPCM initialization              ...                 1.0s
--------------
SCF ITERATIONS
--------------
ITER       Energy         Delta-E        Max-DP      RMS-DP      [F,P]     Damp
               ***  Starting incremental Fock matrix formation  ***
  0  -1661.5453187613   0.000000000000 0.05877813  0.00047437  0.2243182 0.7000
  1  -1661.8915692035  -0.346250442219 0.04886430  0.00039966  0.1311671 0.7000
                               ***Turning on DIIS***
  2  -1662.0979164685  -0.206347265009 0.10649948  0.00094733  0.0695739 0.0000
  3  -1662.4899285230  -0.392012054516 0.02963937  0.00027233  0.0454688 0.0000
  4  -1662.5162592278  -0.026330704760 0.01213190  0.00010141  0.0112823 0.0000
  5  -1662.5176848055  -0.001425577791 0.00607436  0.00005006  0.0059336 0.0000
                      *** Initiating the SOSCF procedure ***
                           *** Shutting down DIIS ***
                      *** Re-Reading the Fockian *** 
                      *** Removing any level shift *** 
ITER      Energy       Delta-E        Grad      Rot      Max-DP    RMS-DP
  6  -1662.51806363  -0.0003788249  0.001699  0.001699  0.003089  0.000025
               *** Restarting incremental Fock matrix formation ***
  7  -1662.51781495   0.0002486814  0.001039  0.003517  0.033431  0.000223
  8  -1662.51785354  -0.0000385942  0.000302  0.002668  0.013298  0.000091
  9  -1662.51786237  -0.0000088275  0.000163  0.000448  0.011439  0.000077
 10  -1662.51786508  -0.0000027078  0.000059  0.000237  0.001002  0.000008
 11  -1662.51786535  -0.0000002758  0.000018  0.000090  0.000595  0.000002
 12  -1662.51786548  -0.0000001267  0.000010  0.000047  0.000395  0.000003
 13  -1662.51786549  -0.0000000067  0.000004  0.000015  0.000424  0.000002
                  ***Gradient check signals convergence***
              ***Rediagonalizing the Fockian in SOSCF/NRSCF***

               *****************************************************
               *                     SUCCESS                       *
               *           SCF CONVERGED AFTER  14 CYCLES          *
               *****************************************************

Old exchange energy                            =   -170.734536061 Eh
New exchange energy                            =   -170.734490442 Eh
Exchange energy change after final integration =      0.000045619 Eh
Total energy after final integration           =  -1662.517819855 Eh
Final COS-X integration done in                =   559.915 sec

SMD CDS free energy correction energy :                -2.59493     Kcal/mol
Total Energy after SMD CDS correction =             -1662.521955139 Eh

----------------
TOTAL SCF ENERGY
----------------

Total Energy       :        -1662.52195514 Eh          -45239.52233 eV

Components:
Nuclear Repulsion  :         4231.71362380 Eh          115150.78186 eV
Electronic Energy  :        -5894.23557893 Eh         -160390.30419 eV
One Electron Energy:       -10667.05261067 Eh         -290265.25834 eV
Two Electron Energy:         4772.81703173 Eh          129874.95415 eV
Max COSX asymmetry :            0.00000755 Eh               0.00021 eV
CPCM Dielectric    :           -0.05498096 Eh              -1.49611 eV
SMD CDS (Gcds)     :           -0.00413528 Eh              -0.11253 eV

Virial components:
Potential Energy   :        -3318.16317345 Eh          -90291.81030 eV
Kinetic Energy     :         1655.64121831 Eh           45052.28796 eV
Virial Ratio       :            2.00415593


DFT components:
N(Alpha)           :      140.999694088723 electrons
N(Beta)            :      140.999694088723 electrons
N(Total)           :      281.999388177447 electrons
E(X)               :      -60.224537983421 Eh       
E(C)               :       -7.069541792056 Eh       
E(XC)              :      -67.294079775477 Eh       
DFET-embed. en.    :        0.000000000000 Eh       
CPCM Solvation Model Properties:
Surface-charge          :           -0.07675697
Charge-correction       :            0.00088764 Eh               0.02415 eV
Free-energy (cav+disp)  :           -0.00413528 Eh              -0.11253 eV

---------------
SCF CONVERGENCE
---------------

  Last Energy change         ...    1.3685e-08  Tolerance :   1.0000e-08
  Last MAX-Density change    ...    1.8874e-15  Tolerance :   1.0000e-07
  Last RMS-Density change    ...    1.0536e-17  Tolerance :   5.0000e-09
  Last Orbital Gradient      ...    1.7598e-06  Tolerance :   1.0000e-05
  Last Orbital Rotation      ...    5.8119e-06  Tolerance :   1.0000e-05

             **** THE GBW FILE WAS UPDATED (Me2-Acr_3_M06L_def2TZVP_coords.gbw) ****
             **** DENSITY Me2-Acr_3_M06L_def2TZVP_coords.scfp WAS UPDATED ****
             **** ENERGY FILE WAS UPDATED (Me2-Acr_3_M06L_def2TZVP_coords.en.tmp) ****
             **** THE GBW FILE WAS UPDATED (Me2-Acr_3_M06L_def2TZVP_coords.gbw) ****
             **** DENSITY Me2-Acr_3_M06L_def2TZVP_coords.scfp WAS UPDATED ****
----------------
ORBITAL ENERGIES
----------------

  NO   OCC          E(Eh)            E(eV) 
   0   2.0000     -15.171847      -412.8470 
   1   2.0000     -15.143729      -412.0818 
   2   2.0000     -15.143585      -412.0779 
   3   2.0000     -10.923678      -297.2484 
   4   2.0000     -10.923657      -297.2478 
   5   2.0000     -10.923588      -297.2459 
   6   2.0000     -10.923582      -297.2458 
   7   2.0000     -10.913144      -296.9618 
   8   2.0000     -10.909115      -296.8521 
   9   2.0000     -10.908912      -296.8466 
  10   2.0000     -10.899393      -296.5876 
  11   2.0000     -10.899116      -296.5800 
  12   2.0000     -10.889839      -296.3276 
  13   2.0000     -10.889774      -296.3258 
  14   2.0000     -10.889604      -296.3212 
  15   2.0000     -10.889535      -296.3193 
  16   2.0000     -10.887823      -296.2727 
  17   2.0000     -10.885106      -296.1988 
  18   2.0000     -10.883698      -296.1605 
  19   2.0000     -10.876332      -295.9601 
  20   2.0000     -10.876189      -295.9561 
  21   2.0000     -10.876102      -295.9538 
  22   2.0000     -10.876056      -295.9525 
  23   2.0000     -10.875416      -295.9351 
  24   2.0000     -10.875337      -295.9330 
  25   2.0000     -10.875189      -295.9289 
  26   2.0000     -10.875048      -295.9251 
  27   2.0000     -10.873922      -295.8945 
  28   2.0000     -10.873241      -295.8759 
  29   2.0000     -10.871418      -295.8263 
  30   2.0000     -10.871247      -295.8217 
  31   2.0000     -10.871056      -295.8165 
  32   2.0000     -10.871014      -295.8153 
  33   2.0000     -10.870876      -295.8116 
  34   2.0000     -10.870805      -295.8096 
  35   2.0000     -10.870742      -295.8079 
  36   2.0000     -10.869865      -295.7841 
  37   2.0000     -10.868507      -295.7471 
  38   2.0000     -10.864663      -295.6425 
  39   2.0000     -10.864585      -295.6404 
  40   2.0000     -10.841337      -295.0078 
  41   2.0000     -10.841230      -295.0049 
  42   2.0000      -1.236636       -33.6506 
  43   2.0000      -1.164248       -31.6808 
  44   2.0000      -1.164107       -31.6770 
  45   2.0000      -1.126063       -30.6417 
  46   2.0000      -1.122486       -30.5444 
  47   2.0000      -1.118300       -30.4305 
  48   2.0000      -1.098674       -29.8964 
  49   2.0000      -1.096426       -29.8353 
  50   2.0000      -1.058658       -28.8075 
  51   2.0000      -1.052254       -28.6333 
  52   2.0000      -1.026011       -27.9192 
  53   2.0000      -1.009788       -27.4777 
  54   2.0000      -0.997292       -27.1377 
  55   2.0000      -0.982961       -26.7477 
  56   2.0000      -0.981401       -26.7053 
  57   2.0000      -0.971500       -26.4359 
  58   2.0000      -0.964177       -26.2366 
  59   2.0000      -0.961015       -26.1505 
  60   2.0000      -0.947104       -25.7720 
  61   2.0000      -0.943547       -25.6752 
  62   2.0000      -0.915995       -24.9255 
  63   2.0000      -0.884175       -24.0596 
  64   2.0000      -0.862470       -23.4690 
  65   2.0000      -0.854730       -23.2584 
  66   2.0000      -0.829459       -22.5707 
  67   2.0000      -0.820116       -22.3165 
  68   2.0000      -0.818706       -22.2781 
  69   2.0000      -0.809265       -22.0212 
  70   2.0000      -0.801768       -21.8172 
  71   2.0000      -0.794840       -21.6287 
  72   2.0000      -0.792214       -21.5572 
  73   2.0000      -0.774369       -21.0717 
  74   2.0000      -0.751433       -20.4475 
  75   2.0000      -0.729770       -19.8580 
  76   2.0000      -0.728762       -19.8306 
  77   2.0000      -0.722568       -19.6621 
  78   2.0000      -0.714158       -19.4332 
  79   2.0000      -0.699162       -19.0252 
  80   2.0000      -0.685113       -18.6429 
  81   2.0000      -0.665472       -18.1084 
  82   2.0000      -0.664712       -18.0877 
  83   2.0000      -0.655834       -17.8462 
  84   2.0000      -0.650811       -17.7095 
  85   2.0000      -0.639995       -17.4152 
  86   2.0000      -0.625277       -17.0147 
  87   2.0000      -0.612693       -16.6722 
  88   2.0000      -0.609746       -16.5920 
  89   2.0000      -0.608908       -16.5692 
  90   2.0000      -0.602246       -16.3880 
  91   2.0000      -0.599186       -16.3047 
  92   2.0000      -0.591672       -16.1002 
  93   2.0000      -0.585021       -15.9192 
  94   2.0000      -0.582957       -15.8631 
  95   2.0000      -0.579749       -15.7758 
  96   2.0000      -0.577846       -15.7240 
  97   2.0000      -0.575626       -15.6636 
  98   2.0000      -0.571980       -15.5644 
  99   2.0000      -0.569094       -15.4858 
 100   2.0000      -0.564873       -15.3710 
 101   2.0000      -0.559689       -15.2299 
 102   2.0000      -0.556522       -15.1437 
 103   2.0000      -0.548992       -14.9388 
 104   2.0000      -0.547452       -14.8969 
 105   2.0000      -0.547206       -14.8902 
 106   2.0000      -0.540727       -14.7139 
 107   2.0000      -0.536462       -14.5979 
 108   2.0000      -0.533851       -14.5268 
 109   2.0000      -0.532955       -14.5024 
 110   2.0000      -0.528882       -14.3916 
 111   2.0000      -0.524697       -14.2777 
 112   2.0000      -0.515212       -14.0196 
 113   2.0000      -0.509395       -13.8613 
 114   2.0000      -0.506931       -13.7943 
 115   2.0000      -0.501776       -13.6540 
 116   2.0000      -0.501257       -13.6399 
 117   2.0000      -0.496972       -13.5233 
 118   2.0000      -0.492574       -13.4036 
 119   2.0000      -0.482337       -13.1251 
 120   2.0000      -0.480517       -13.0755 
 121   2.0000      -0.478831       -13.0296 
 122   2.0000      -0.471000       -12.8166 
 123   2.0000      -0.468372       -12.7451 
 124   2.0000      -0.466382       -12.6909 
 125   2.0000      -0.465578       -12.6690 
 126   2.0000      -0.460087       -12.5196 
 127   2.0000      -0.452755       -12.3201 
 128   2.0000      -0.449870       -12.2416 
 129   2.0000      -0.439431       -11.9575 
 130   2.0000      -0.401934       -10.9372 
 131   2.0000      -0.394436       -10.7331 
 132   2.0000      -0.368267       -10.0210 
 133   2.0000      -0.368007       -10.0140 
 134   2.0000      -0.366548        -9.9743 
 135   2.0000      -0.355274        -9.6675 
 136   2.0000      -0.347024        -9.4430 
 137   2.0000      -0.342526        -9.3206 
 138   2.0000      -0.322739        -8.7822 
 139   2.0000      -0.310680        -8.4540 
 140   2.0000      -0.272948        -7.4273 
 141   0.0000       0.011332         0.3084 
 142   0.0000       0.023408         0.6370 
 143   0.0000       0.031012         0.8439 
 144   0.0000       0.056649         1.5415 
 145   0.0000       0.060158         1.6370 
 146   0.0000       0.068033         1.8513 
 147   0.0000       0.078820         2.1448 
 148   0.0000       0.089356         2.4315 
 149   0.0000       0.095187         2.5902 
 150   0.0000       0.112787         3.0691 
 151   0.0000       0.116656         3.1744 
 152   0.0000       0.121424         3.3041 
 153   0.0000       0.130331         3.5465 
 154   0.0000       0.131224         3.5708 
 155   0.0000       0.137027         3.7287 
 156   0.0000       0.137471         3.7408 
 157   0.0000       0.139206         3.7880 
 158   0.0000       0.143555         3.9063 
 159   0.0000       0.150202         4.0872 
 160   0.0000       0.154133         4.1942 
 161   0.0000       0.155892         4.2420 
 162   0.0000       0.158403         4.3104 
 163   0.0000       0.166788         4.5385 
 164   0.0000       0.171755         4.6737 
 165   0.0000       0.177128         4.8199 
 166   0.0000       0.178596         4.8599 
 167   0.0000       0.179613         4.8875 
 168   0.0000       0.182219         4.9584 
 169   0.0000       0.185270         5.0415 
 170   0.0000       0.185887         5.0582 
 171   0.0000       0.188518         5.1298 
 172   0.0000       0.190810         5.1922 
 173   0.0000       0.195506         5.3200 
 174   0.0000       0.198980         5.4145 
 175   0.0000       0.200887         5.4664 
 176   0.0000       0.202530         5.5111 
 177   0.0000       0.208170         5.6646 
 178   0.0000       0.209388         5.6977 
 179   0.0000       0.213136         5.7997 
 180   0.0000       0.217199         5.9103 
 181   0.0000       0.218129         5.9356 
 182   0.0000       0.218629         5.9492 
 183   0.0000       0.227407         6.1881 
 184   0.0000       0.232754         6.3336 
 185   0.0000       0.235225         6.4008 
 186   0.0000       0.237450         6.4614 
 187   0.0000       0.247109         6.7242 
 188   0.0000       0.248896         6.7728 
 189   0.0000       0.251605         6.8465 
 190   0.0000       0.256189         6.9712 
 191   0.0000       0.256665         6.9842 
 192   0.0000       0.259021         7.0483 
 193   0.0000       0.265577         7.2267 
 194   0.0000       0.270567         7.3625 
 195   0.0000       0.271598         7.3905 
 196   0.0000       0.273674         7.4470 
 197   0.0000       0.277539         7.5522 
 198   0.0000       0.279117         7.5952 
 199   0.0000       0.279548         7.6069 
 200   0.0000       0.283276         7.7083 
 201   0.0000       0.285312         7.7637 
 202   0.0000       0.288693         7.8557 
 203   0.0000       0.290491         7.9047 
 204   0.0000       0.291654         7.9363 
 205   0.0000       0.295262         8.0345 
 206   0.0000       0.297556         8.0969 
 207   0.0000       0.300105         8.1663 
 208   0.0000       0.302464         8.2305 
 209   0.0000       0.304185         8.2773 
 210   0.0000       0.307016         8.3543 
 211   0.0000       0.307510         8.3678 
 212   0.0000       0.314806         8.5663 
 213   0.0000       0.316799         8.6206 
 214   0.0000       0.320292         8.7156 
 215   0.0000       0.322714         8.7815 
 216   0.0000       0.323793         8.8109 
 217   0.0000       0.328180         8.9302 
 218   0.0000       0.331175         9.0117 
 219   0.0000       0.333176         9.0662 
 220   0.0000       0.336387         9.1536 
 221   0.0000       0.337356         9.1799 
 222   0.0000       0.339513         9.2386 
 223   0.0000       0.341993         9.3061 
 224   0.0000       0.345166         9.3925 
 225   0.0000       0.348210         9.4753 
 226   0.0000       0.351024         9.5518 
 227   0.0000       0.351797         9.5729 
 228   0.0000       0.352939         9.6040 
 229   0.0000       0.353667         9.6238 
 230   0.0000       0.356844         9.7102 
 231   0.0000       0.360419         9.8075 
 232   0.0000       0.363543         9.8925 
 233   0.0000       0.369477        10.0540 
 234   0.0000       0.371456        10.1078 
 235   0.0000       0.371756        10.1160 
 236   0.0000       0.373978        10.1765 
 237   0.0000       0.378077        10.2880 
 238   0.0000       0.379856        10.3364 
 239   0.0000       0.380597        10.3566 
 240   0.0000       0.382515        10.4088 
 241   0.0000       0.386871        10.5273 
 242   0.0000       0.388998        10.5852 
 243   0.0000       0.391597        10.6559 
 244   0.0000       0.393115        10.6972 
 245   0.0000       0.396679        10.7942 
 246   0.0000       0.402836        10.9617 
 247   0.0000       0.403536        10.9808 
 248   0.0000       0.407823        11.0974 
 249   0.0000       0.409798        11.1512 
 250   0.0000       0.412190        11.2163 
 251   0.0000       0.414757        11.2861 
 252   0.0000       0.416547        11.3348 
 253   0.0000       0.420622        11.4457 
 254   0.0000       0.422653        11.5010 
 255   0.0000       0.424797        11.5593 
 256   0.0000       0.429792        11.6952 
 257   0.0000       0.433221        11.7885 
 258   0.0000       0.434840        11.8326 
 259   0.0000       0.437609        11.9079 
 260   0.0000       0.440837        11.9958 
 261   0.0000       0.441720        12.0198 
 262   0.0000       0.443507        12.0684 
 263   0.0000       0.443923        12.0798 
 264   0.0000       0.445554        12.1242 
 265   0.0000       0.447476        12.1764 
 266   0.0000       0.450781        12.2664 
 267   0.0000       0.453018        12.3273 
 268   0.0000       0.459118        12.4932 
 269   0.0000       0.460041        12.5183 
 270   0.0000       0.463931        12.6242 
 271   0.0000       0.465342        12.6626 
 272   0.0000       0.469447        12.7743 
 273   0.0000       0.471719        12.8361 
 274   0.0000       0.475128        12.9289 
 275   0.0000       0.476507        12.9664 
 276   0.0000       0.480770        13.0824 
 277   0.0000       0.485811        13.2196 
 278   0.0000       0.487905        13.2766 
 279   0.0000       0.490903        13.3581 
 280   0.0000       0.493274        13.4227 
 281   0.0000       0.495597        13.4859 
 282   0.0000       0.498202        13.5568 
 283   0.0000       0.500992        13.6327 
 284   0.0000       0.503160        13.6917 
 285   0.0000       0.507819        13.8185 
 286   0.0000       0.508333        13.8324 
 287   0.0000       0.510964        13.9040 
 288   0.0000       0.514434        13.9985 
 289   0.0000       0.516503        14.0548 
 290   0.0000       0.518408        14.1066 
 291   0.0000       0.520851        14.1731 
 292   0.0000       0.523246        14.2383 
 293   0.0000       0.524614        14.2755 
 294   0.0000       0.527913        14.3652 
 295   0.0000       0.530843        14.4450 
 296   0.0000       0.532838        14.4993 
 297   0.0000       0.534337        14.5400 
 298   0.0000       0.536340        14.5946 
 299   0.0000       0.537171        14.6172 
 300   0.0000       0.539547        14.6818 
 301   0.0000       0.543994        14.8028 
 302   0.0000       0.545133        14.8338 
 303   0.0000       0.546494        14.8709 
 304   0.0000       0.550108        14.9692 
 305   0.0000       0.552260        15.0278 
 306   0.0000       0.553927        15.0731 
 307   0.0000       0.555150        15.1064 
 308   0.0000       0.560838        15.2612 
 309   0.0000       0.564852        15.3704 
 310   0.0000       0.568174        15.4608 
 311   0.0000       0.569969        15.5096 
 312   0.0000       0.573880        15.6161 
 313   0.0000       0.574160        15.6237 
 314   0.0000       0.577096        15.7036 
 315   0.0000       0.579894        15.7797 
 316   0.0000       0.580627        15.7997 
 317   0.0000       0.582693        15.8559 
 318   0.0000       0.583016        15.8647 
 319   0.0000       0.584904        15.9160 
 320   0.0000       0.588039        16.0013 
 321   0.0000       0.596122        16.2213 
 322   0.0000       0.602279        16.3888 
 323   0.0000       0.605684        16.4815 
 324   0.0000       0.606731        16.5100 
 325   0.0000       0.609366        16.5817 
 326   0.0000       0.610338        16.6081 
 327   0.0000       0.614750        16.7282 
 328   0.0000       0.617171        16.7941 
 329   0.0000       0.619450        16.8561 
 330   0.0000       0.621649        16.9159 
 331   0.0000       0.623443        16.9647 
 332   0.0000       0.624785        17.0013 
 333   0.0000       0.627333        17.0706 
 334   0.0000       0.631504        17.1841 
 335   0.0000       0.635683        17.2978 
 336   0.0000       0.636471        17.3193 
 337   0.0000       0.641150        17.4466 
 338   0.0000       0.645151        17.5555 
 339   0.0000       0.652031        17.7427 
 340   0.0000       0.652684        17.7604 
 341   0.0000       0.656542        17.8654 
 342   0.0000       0.658121        17.9084 
 343   0.0000       0.661115        17.9899 
 344   0.0000       0.661800        18.0085 
 345   0.0000       0.664556        18.0835 
 346   0.0000       0.666330        18.1318 
 347   0.0000       0.671407        18.2699 
 348   0.0000       0.673796        18.3349 
 349   0.0000       0.676589        18.4109 
 350   0.0000       0.683455        18.5978 
 351   0.0000       0.684646        18.6302 
 352   0.0000       0.691414        18.8143 
 353   0.0000       0.693809        18.8795 
 354   0.0000       0.695089        18.9143 
 355   0.0000       0.703401        19.1405 
 356   0.0000       0.706269        19.2186 
 357   0.0000       0.707945        19.2642 
 358   0.0000       0.709455        19.3052 
 359   0.0000       0.714809        19.4509 
 360   0.0000       0.716622        19.5003 
 361   0.0000       0.721559        19.6346 
 362   0.0000       0.723784        19.6952 
 363   0.0000       0.725877        19.7521 
 364   0.0000       0.732668        19.9369 
 365   0.0000       0.734191        19.9784 
 366   0.0000       0.738631        20.0992 
 367   0.0000       0.744831        20.2679 
 368   0.0000       0.749230        20.3876 
[...]
   137a -> 145a  :     0.028275 
   137a -> 147a  :     0.012003 
   138a -> 142a  :     0.017409 
   138a -> 152a  :     0.010339 
   140a -> 141a  :     0.061028 
   140a -> 148a  :     0.044236 

STATE 18:  E=   0.203950 au      5.550 eV    44761.9 cm**-1 <S**2> =   0.000000
   132a -> 141a  :     0.052482 
   132a -> 142a  :     0.065465 
   133a -> 141a  :     0.083737 
   133a -> 142a  :     0.038373 
   134a -> 145a  :     0.026630 
   135a -> 141a  :     0.095617 
   136a -> 142a  :     0.053543 
   136a -> 152a  :     0.014815 
   137a -> 141a  :     0.024136 
   138a -> 144a  :     0.025781 
   138a -> 146a  :     0.066426 
   139a -> 141a  :     0.031807 
   140a -> 147a  :     0.314998 

STATE 19:  E=   0.206891 au      5.630 eV    45407.3 cm**-1 <S**2> =   0.000000
   132a -> 141a  :     0.058643 
   132a -> 142a  :     0.027247 
   133a -> 141a  :     0.032155 
   133a -> 142a  :     0.045692 
   134a -> 146a  :     0.022352 
   135a -> 142a  :     0.021751 
   135a -> 145a  :     0.018084 
   135a -> 147a  :     0.015776 
   136a -> 141a  :     0.062889 
   136a -> 149a  :     0.027774 
   138a -> 147a  :     0.084513 
   139a -> 147a  :     0.013304 
   140a -> 144a  :     0.097821 
   140a -> 148a  :     0.190407 
   140a -> 149a  :     0.163532 

STATE 20:  E=   0.221425 au      6.025 eV    48597.2 cm**-1 <S**2> =   0.000000
   135a -> 141a  :     0.011618 
   135a -> 144a  :     0.023727 
   135a -> 146a  :     0.014187 
   137a -> 144a  :     0.488942 
   137a -> 146a  :     0.125854 
   137a -> 148a  :     0.030019 
   138a -> 141a  :     0.031125 
   138a -> 144a  :     0.032113 
   138a -> 146a  :     0.014901 
   139a -> 141a  :     0.013876 
   139a -> 143a  :     0.070154 
   140a -> 142a  :     0.030641 

STATE 21:  E=   0.229412 au      6.243 eV    50350.2 cm**-1 <S**2> =   0.000000
   130a -> 143a  :     0.217426 
   131a -> 143a  :     0.080606 
   138a -> 141a  :     0.012063 
   138a -> 150a  :     0.021997 
   139a -> 141a  :     0.069717 
   139a -> 148a  :     0.048596 
   139a -> 150a  :     0.444207 
   140a -> 142a  :     0.010678 

STATE 22:  E=   0.206560 au      5.621 eV    45334.7 cm**-1 <S**2> =   0.000000
   130a -> 143a  :     0.032996 
   131a -> 143a  :     0.011914 
   135a -> 141a  :     0.010643 
   135a -> 144a  :     0.017810 
   136a -> 142a  :     0.011801 
   136a -> 145a  :     0.023234 
   137a -> 144a  :     0.014653 
   139a -> 141a  :     0.616448 
   139a -> 144a  :     0.013660 
   139a -> 148a  :     0.038418 
   139a -> 149a  :     0.034120 
   139a -> 150a  :     0.039037 

STATE 23:  E=   0.215659 au      5.868 eV    47331.6 cm**-1 <S**2> =   0.000000
   127a -> 141a  :     0.017968 
   130a -> 142a  :     0.013202 
   131a -> 142a  :     0.054211 
   133a -> 144a  :     0.011726 
   133a -> 145a  :     0.045004 
   133a -> 146a  :     0.049622 
   133a -> 147a  :     0.029875 
   134a -> 141a  :     0.030883 
   134a -> 148a  :     0.012711 
   135a -> 145a  :     0.040466 
   135a -> 147a  :     0.023578 
   136a -> 141a  :     0.027805 
   136a -> 144a  :     0.019428 
   136a -> 148a  :     0.010366 
   136a -> 149a  :     0.015218 
   138a -> 141a  :     0.019576 
   140a -> 141a  :     0.037524 
   140a -> 148a  :     0.119607 
   140a -> 149a  :     0.228333 
   140a -> 167a  :     0.012257 

STATE 24:  E=   0.225656 au      6.140 eV    49525.8 cm**-1 <S**2> =   0.000000
   131a -> 141a  :     0.018515 
   132a -> 144a  :     0.018075 
   132a -> 145a  :     0.070801 
   132a -> 146a  :     0.075887 
   132a -> 147a  :     0.067724 
   133a -> 145a  :     0.012982 
   133a -> 146a  :     0.059350 
   133a -> 147a  :     0.018801 
   134a -> 145a  :     0.013140 
   135a -> 144a  :     0.031270 
   136a -> 145a  :     0.056065 
   137a -> 144a  :     0.012534 
   137a -> 146a  :     0.012785 
   138a -> 141a  :     0.174710 
   138a -> 148a  :     0.025809 
   139a -> 141a  :     0.041893 
   140a -> 142a  :     0.013286 
   140a -> 148a  :     0.012427 
   140a -> 149a  :     0.018339 
   140a -> 151a  :     0.037988 

STATE 25:  E=   0.227153 au      6.181 eV    49854.3 cm**-1 <S**2> =   0.000000
   134a -> 151a  :     0.012570 
   138a -> 165a  :     0.011016 
   140a -> 149a  :     0.013197 
   140a -> 151a  :     0.590917 
   140a -> 154a  :     0.057990 
   140a -> 158a  :     0.064257 
   140a -> 161a  :     0.041906 

STATE 26:  E=   0.256460 au      6.979 eV    56286.4 cm**-1 <S**2> =   0.000000
   117a -> 155a  :     0.023661 
   117a -> 156a  :     0.018714 
   120a -> 155a  :     0.045942 
   120a -> 156a  :     0.016692 
   124a -> 141a  :     0.040750 
   124a -> 142a  :     0.031660 
   125a -> 141a  :     0.019124 
   125a -> 142a  :     0.030804 
   127a -> 155a  :     0.024337 
   127a -> 156a  :     0.018762 
   130a -> 155a  :     0.010663 
   131a -> 155a  :     0.053543 
   131a -> 156a  :     0.019899 
   134a -> 155a  :     0.068347 
   134a -> 156a  :     0.053748 
   138a -> 155a  :     0.081312 
   138a -> 156a  :     0.029192 
   138a -> 157a  :     0.010039 
   140a -> 155a  :     0.042027 
   140a -> 156a  :     0.030659 

STATE 27:  E=   0.256448 au      6.978 eV    56283.7 cm**-1 <S**2> =   0.000000
   114a -> 156a  :     0.010357 
   117a -> 155a  :     0.012960 
   117a -> 156a  :     0.027390 
   120a -> 155a  :     0.011019 
   120a -> 156a  :     0.054534 
   124a -> 141a  :     0.020692 
   124a -> 142a  :     0.036313 
   125a -> 141a  :     0.036345 
   125a -> 142a  :     0.029915 
   127a -> 155a  :     0.012031 
   127a -> 156a  :     0.024617 
   130a -> 156a  :     0.014820 
   131a -> 155a  :     0.011055 
   131a -> 156a  :     0.056040 
   134a -> 155a  :     0.036676 
   134a -> 156a  :     0.077133 
   134a -> 157a  :     0.017987 
   138a -> 155a  :     0.018462 
   138a -> 156a  :     0.090472 
   138a -> 157a  :     0.012120 
   140a -> 155a  :     0.023122 
   140a -> 156a  :     0.044498 
   140a -> 157a  :     0.010146 

STATE 28:  E=   0.226928 au      6.175 eV    49804.9 cm**-1 <S**2> =   0.000000
   132a -> 144a  :     0.024023 
   132a -> 145a  :     0.051024 
   132a -> 146a  :     0.105241 
   132a -> 147a  :     0.042555 
   132a -> 148a  :     0.011527 
   133a -> 144a  :     0.012094 
   133a -> 145a  :     0.092708 
   133a -> 146a  :     0.068618 
   133a -> 147a  :     0.080710 
   134a -> 141a  :     0.043404 
   134a -> 144a  :     0.010090 
   134a -> 146a  :     0.028287 
   138a -> 142a  :     0.114023 
   138a -> 145a  :     0.019406 
   138a -> 152a  :     0.014443 
   139a -> 142a  :     0.026002 
   140a -> 141a  :     0.058030 
   140a -> 148a  :     0.063273 

STATE 29:  E=   0.238747 au      6.497 eV    52398.9 cm**-1 <S**2> =   0.000000
   130a -> 144a  :     0.038150 
   130a -> 146a  :     0.013563 
   131a -> 141a  :     0.048287 
   131a -> 144a  :     0.021822 
   132a -> 144a  :     0.010953 
   132a -> 145a  :     0.048851 
   132a -> 146a  :     0.036211 
   132a -> 147a  :     0.028165 
   133a -> 144a  :     0.016291 
   133a -> 145a  :     0.025721 
   133a -> 146a  :     0.057642 
   133a -> 147a  :     0.015269 
   134a -> 142a  :     0.029450 
   135a -> 144a  :     0.016925 
   135a -> 150a  :     0.010383 
   136a -> 142a  :     0.024323 
   136a -> 145a  :     0.040366 
   136a -> 147a  :     0.027447 
   137a -> 148a  :     0.011353 
   137a -> 150a  :     0.083970 
   138a -> 141a  :     0.020080 
   138a -> 144a  :     0.031230 
   138a -> 148a  :     0.065582 
   140a -> 145a  :     0.011659 
   140a -> 152a  :     0.035293 

STATE 30:  E=   0.232674 au      6.331 eV    51066.0 cm**-1 <S**2> =   0.000000
   126a -> 143a  :     0.045845 
   130a -> 144a  :     0.135339 
   130a -> 146a  :     0.039091 
   131a -> 144a  :     0.037623 
   131a -> 146a  :     0.012862 
   132a -> 145a  :     0.014994 
   132a -> 146a  :     0.010562 
   133a -> 146a  :     0.015472 
   135a -> 148a  :     0.014611 
   135a -> 150a  :     0.021510 
   136a -> 145a  :     0.019078 
   136a -> 147a  :     0.010950 
   137a -> 148a  :     0.012554 
   137a -> 150a  :     0.329767 
   138a -> 143a  :     0.023414 
   138a -> 148a  :     0.013377 
   138a -> 150a  :     0.021377 
   140a -> 152a  :     0.020308 


-------------------------
TD-DFT-EXCITATION SPECTRA
-------------------------

Center of mass = (  0.0001, -0.0135, -0.0045)
Calculating the Dipole integrals                  ... done
Transforming integrals                            ... done
Calculating the Linear Momentum integrals         ... done
Transforming integrals                            ... done
Calculating angular momentum integrals            ... done
Transforming integrals                            ... done

-----------------------------------------------------------------------------
         ABSORPTION SPECTRUM VIA TRANSITION ELECTRIC DIPOLE MOMENTS
-----------------------------------------------------------------------------
State   Energy    Wavelength  fosc         T2        TX        TY        TZ  
        (cm-1)      (nm)                 (au**2)    (au)      (au)      (au) 
-----------------------------------------------------------------------------
   1   28635.6    349.2   1.551430476  17.83614  -4.22323  -0.01593  -0.01546
   2   33597.9    297.6   0.543916610   5.32961  -0.01732   2.29463  -0.25297
   3   37302.8    268.1   0.066301455   0.58514   0.00005  -0.76227   0.06389
   4   33907.8    294.9   0.124028917   1.20420   0.02221  -1.08883   0.13472
   5   35130.2    284.7   0.002480015   0.02324   0.05004  -0.13927  -0.03661
   6   32873.8    304.2   0.045690453   0.45756   0.66983   0.09387   0.00862
   7   32630.4    306.5   0.031739773   0.32023   0.56374  -0.04819   0.00990
   8   38134.6    262.2   0.004319855   0.03729  -0.00193   0.18766  -0.04552
   9   38263.9    261.3   0.011310964   0.09732   0.22625   0.03758   0.21146
  10   41382.1    241.7   0.241088879   1.91796   1.38466  -0.00215  -0.02619
  11   44659.3    223.9   0.167456798   1.23443   0.00346   0.27339   1.07688
  12   42128.1    237.4   0.019694673   0.15390   0.37969  -0.01817   0.09701
  13   45414.7    220.2   1.186972041   8.60438  -0.03231  -0.95769  -2.77239
  14   43447.8    230.2   0.029749275   0.22542  -0.00298   0.12230  -0.45875
  15   41320.3    242.0   0.059870917   0.47701   0.16367  -0.15793  -0.65214
  16   45444.7    220.0   0.107393906   0.77799  -0.00100   0.68228  -0.55900
  17   48587.8    205.8   1.372223843   9.29764  -3.04598   0.04730   0.13194
  18   44761.9    223.4   0.537279612   3.95155  -0.03662  -1.95447   0.36091
  19   45407.3    220.2   0.176475256   1.27948   0.93052  -0.19397  -0.61318
  20   48597.2    205.8   0.927001735   6.27979  -0.03022  -2.44849   0.53272
  21   50350.2    198.6   0.004964464   0.03246   0.00842   0.16972  -0.05986
  22   45334.7    220.6   0.056086953   0.40729  -0.11208   0.41186  -0.47445
  23   47331.6    211.3   0.094596688   0.65796  -0.71882  -0.32489   0.18894
  24   49525.8    201.9   0.158501675   1.05361  -0.12557   1.00951  -0.13682
  25   49854.3    200.6   0.022856933   0.15094   0.21558  -0.01715   0.32275
  26   56286.4    177.7   0.000248860   0.00146   0.00652  -0.02890   0.02404
  27   56283.7    177.7   0.000381726   0.00223  -0.00733  -0.04320  -0.01768
  28   49804.9    200.8   0.957601273   6.32977   2.51533  -0.01097   0.05244
  29   52398.9    190.8   0.018312876   0.11506   0.02544   0.33242   0.06248
  30   51066.0    195.8   0.001740757   0.01122   0.03481   0.06837  -0.07305

-----------------------------------------------------------------------------
         ABSORPTION SPECTRUM VIA TRANSITION VELOCITY DIPOLE MOMENTS
-----------------------------------------------------------------------------
State   Energy    Wavelength   fosc        P2         PX        PY        PZ  
        (cm-1)      (nm)                 (au**2)     (au)      (au)      (au) 
-----------------------------------------------------------------------------
   1   28635.6    349.2   1.905318832   0.37289   0.61064   0.00234   0.00220
   2   33597.9    297.6   0.618499158   0.14202   0.00284  -0.37457   0.04135
   3   37302.8    268.1   0.070981418   0.01810  -0.00002   0.13403  -0.01152
   4   33907.8    294.9   0.162156969   0.03758  -0.00402   0.19236  -0.02368
   5   35130.2    284.7   0.002916440   0.00070  -0.00905   0.02437   0.00493
   6   32873.8    304.2   0.067213355   0.01510  -0.12169  -0.01698  -0.00186
   7   32630.4    306.5   0.048220172   0.01075  -0.10330   0.00878  -0.00223
   8   38134.6    262.2   0.005228910   0.00136   0.00038  -0.03586   0.00876
   9   38263.9    261.3   0.014246276   0.00373  -0.04491  -0.00723  -0.04070
  10   41382.1    241.7   0.266231000   0.07530  -0.27435   0.00035   0.00517
  11   44659.3    223.9   0.189992710   0.05799  -0.00075  -0.06070  -0.23304
  12   42128.1    237.4   0.026772086   0.00771  -0.08489   0.00377  -0.02209
  13   45414.7    220.2   1.326400276   0.41170   0.00739   0.20950   0.60643
  14   43447.8    230.2   0.037122517   0.01102   0.00069  -0.02691   0.10148
  15   41320.3    242.0   0.087240004   0.02464  -0.03948   0.03573   0.14765
  16   45444.7    220.0   0.129166807   0.04012   0.00019  -0.15512   0.12671
  17   48587.8    205.8   1.497433117   0.49726   0.70441  -0.01109  -0.03079
  18   44761.9    223.4   0.701011585   0.21446   0.00858   0.45535  -0.08389
  19   45407.3    220.2   0.228165841   0.07081  -0.21863   0.04580   0.14461
  20   48597.2    205.8   1.054087152   0.35010   0.00713   0.57817  -0.12559
  21   50350.2    198.6   0.005119515   0.00176  -0.00200  -0.03927   0.01467
  22   45334.7    220.6   0.076066094   0.02357   0.02715  -0.09839   0.11468
  23   47331.6    211.3   0.123659697   0.04000   0.17755   0.07977  -0.04600
  24   49525.8    201.9   0.188241648   0.06372   0.03104  -0.24816   0.03418
  25   49854.3    200.6   0.025438636   0.00867  -0.05342   0.00408  -0.07614
  26   56286.4    177.7   0.000228508   0.00009  -0.00161   0.00717  -0.00582
  27   56283.7    177.7   0.000353678   0.00014   0.00168   0.01075   0.00420
  28   49804.9    200.8   1.165789563   0.39683  -0.62980   0.00272  -0.01318
  29   52398.9    190.8   0.020818451   0.00746  -0.00649  -0.08452  -0.01644
  30   51066.0    195.8   0.002077884   0.00073  -0.00888  -0.01642   0.01941

-------------------------------------------------------------------
                             CD SPECTRUM
-------------------------------------------------------------------
State  Energy     Wavelength     R         MX        MY        MZ   
       (cm-1)       (nm)     (1e40*cgs)   (au)      (au)      (au)  
-------------------------------------------------------------------
   1   28635.6    349.2     57.60708  -0.03397   0.39137   0.97233
   2   33597.9    297.6     29.35893   0.14153   0.02796  -0.00220
   3   37302.8    268.1     -9.30282   0.17180   0.02590   0.00004
   4   33907.8    294.9    -39.36437  -0.13623   0.07270  -0.00978
   5   35130.2    284.7     -3.19169  -0.07663   0.01801   0.01168
   6   32873.8    304.2      1.19313  -0.01518   0.11631   0.20695
   7   32630.4    306.5     -1.93454  -0.02296  -0.15328   0.14692
   8   38134.6    262.2     14.12672   0.00411   0.15330  -0.02645
   9   38263.9    261.3    -15.23821  -0.02975  -0.04449  -0.11311
  10   41382.1    241.7     11.11988   0.01857  -0.06077   0.08607
  11   44659.3    223.9     25.14518   1.10724  -0.05867   0.06086
  12   42128.1    237.4    -74.88711  -0.35578  -0.06711  -0.25749
  13   45414.7    220.2    198.71504  -2.78387   0.04725  -0.13591
  14   43447.8    230.2    -74.57152  -0.37619  -0.79175   0.13617
  15   41320.3    242.0    -617.70145   0.13390   0.37533   1.95182
  16   45444.7    220.0     19.50235  -0.39133   0.05025  -0.01196
  17   48587.8    205.8     78.49623  -0.04104   0.28914   0.21076
  18   44761.9    223.4    898.48105  -0.25431  -0.93359   0.19894
  19   45407.3    220.2    -755.07327   0.25085   0.43409   2.85530
  20   48597.2    205.8    139.98055   0.32334  -0.13702  -0.05405
  21   50350.2    198.6     -1.04006  -1.00842   0.07909   0.11933
  22   45334.7    220.6     28.53089  -0.02720   0.07100  -0.05950
  23   47331.6    211.3    -21.49554   0.04538   0.09386   0.09275
  24   49525.8    201.9     13.74201   0.07604   0.06180   0.17313
  25   49854.3    200.6    131.78471   0.29138   0.15171   0.67953
  26   56286.4    177.7      1.01006  -0.11774  -0.07467   0.03131
  27   56283.7    177.7      1.22277   0.12957  -0.07484  -0.01752
  28   49804.9    200.8    -21.13126   0.00024  -0.38056  -0.94569
  29   52398.9    190.8     -4.32356   0.21592  -0.04716   0.01622
  30   51066.0    195.8     -2.23800  -0.04463  -0.02125   0.02383

Total run time:    93961.196 sec

           *** ORCA-CIS/TD-DFT FINISHED WITHOUT ERROR ***

Maximum memory used throughout the entire CIS-calculation: 10886.6 MB

-----------------------
CIS/TD-DFT TOTAL ENERGY
-----------------------

    E(SCF)  =  -1662.521955139 Eh
    DE(CIS) =      0.130473611 Eh (Root  1)
    ----------------------------- ---------
    E(tot)  =  -1662.391481528 Eh


-------------------------   --------------------
FINAL SINGLE POINT ENERGY     -1662.391481528177
-------------------------   --------------------


                            ***************************************
                            *     ORCA property calculations      *
                            ***************************************


  WARNING: The energy has been calculated at the MP2 level but the densities
           used in the property calculations are still SCF densities
           MP2 response densities have not been calculated 
           use %mp2 Density relaxed end
           or  %mp2 Density unrelaxed end

                                    ---------------------
                                    Active property flags
                                    ---------------------
   (+) Dipole Moment


------------------------------------------------------------------------------
                       ORCA ELECTRIC PROPERTIES CALCULATION
------------------------------------------------------------------------------

Dipole Moment Calculation                       ... on
Quadrupole Moment Calculation                   ... off
Polarizability Calculation                      ... off
GBWName                                         ... Me2-Acr_3_M06L_def2TZVP_coords.gbw
Electron density                                ... Me2-Acr_3_M06L_def2TZVP_coords.scfp
The origin for moment calculation is the CENTER OF MASS  = ( 0.000053, -0.013511 -0.004462)

-------------
DIPOLE MOMENT
-------------
                                X             Y             Z
Electronic contribution:      0.02198      -0.49556      -1.80394
Nuclear contribution   :     -0.01502       3.81011       1.25834
                        -----------------------------------------
Total Dipole Moment    :      0.00696       3.31455      -0.54560
                        -----------------------------------------
Magnitude (a.u.)       :      3.35916
Magnitude (Debye)      :      8.53832



--------------------
Rotational spectrum 
--------------------
 
Rotational constants in cm-1:     0.003437     0.001388     0.001054 
Rotational constants in MHz :   103.045994    41.609262    31.611058 

 Dipole components along the rotational axes: 
x,y,z [a.u.] :    -0.007209     3.314695    -0.544726 
x,y,z [Debye]:    -0.018324     8.425285    -1.384583 

 

Timings for individual modules:

Sum of individual times         ...   111171.038 sec (=1852.851 min)
GTO integral calculation        ...        9.639 sec (=   0.161 min)   0.0 %
SCF iterations                  ...     3550.291 sec (=  59.172 min)   3.2 %
MP2 module                      ...    13614.273 sec (= 226.905 min)  12.2 %
CIS module                      ...    93996.835 sec (=1566.614 min)  84.6 %
                             ****ORCA TERMINATED NORMALLY****
TOTAL RUN TIME: 1 days 6 hours 53 minutes 5 seconds 965 msec
