
                                 *****************
                                 * O   R   C   A *
                                 *****************

                                            #,                                       
                                            ###                                      
                                            ####                                     
                                            #####                                    
                                            ######                                   
                                           ########,                                 
                                     ,,################,,,,,                         
                               ,,#################################,,                 
                          ,,##########################################,,             
                       ,#########################################, ''#####,          
                    ,#############################################,,   '####,        
                  ,##################################################,,,,####,       
                ,###########''''           ''''###############################       
              ,#####''   ,,,,##########,,,,          '''####'''          '####       
            ,##' ,,,,###########################,,,                        '##       
           ' ,,###''''                  '''############,,,                           
         ,,##''                                '''############,,,,        ,,,,,,###''
      ,#''                                            '''#######################'''  
     '                                                          ''''####''''         
             ,#######,   #######,   ,#######,      ##                                
            ,#'     '#,  ##    ##  ,#'     '#,    #''#        ######   ,####,        
            ##       ##  ##   ,#'  ##            #'  '#       #        #'  '#        
            ##       ##  #######   ##           ,######,      #####,   #    #        
            '#,     ,#'  ##    ##  '#,     ,#' ,#      #,         ##   #,  ,#        
             '#######'   ##     ##  '#######'  #'      '#     #####' # '####'        



                  #######################################################
                  #                        -***-                        #
                  #          Department of theory and spectroscopy      #
                  #    Directorship and core code : Frank Neese         #
                  #        Max Planck Institute fuer Kohlenforschung    #
                  #                Kaiser Wilhelm Platz 1               #
                  #                 D-45470 Muelheim/Ruhr               #
                  #                      Germany                        #
                  #                                                     #
                  #                  All rights reserved                #
                  #                        -***-                        #
                  #######################################################


                         Program Version 5.0.2 -  RELEASE  -


 With contributions from (in alphabetic order):
   Daniel Aravena         : Magnetic Suceptibility
   Michael Atanasov       : Ab Initio Ligand Field Theory (pilot matlab implementation)
   Alexander A. Auer      : GIAO ZORA, VPT2 properties, NMR spectrum
   Ute Becker             : Parallelization
   Giovanni Bistoni       : ED, misc. LED, open-shell LED, HFLD
   Martin Brehm           : Molecular dynamics
   Dmytro Bykov           : SCF Hessian
   Vijay G. Chilkuri      : MRCI spin determinant printing, contributions to CSF-ICE
   Dipayan Datta          : RHF DLPNO-CCSD density
   Achintya Kumar Dutta   : EOM-CC, STEOM-CC
   Dmitry Ganyushin       : Spin-Orbit,Spin-Spin,Magnetic field MRCI
   Miquel Garcia          : C-PCM and meta-GGA Hessian, CC/C-PCM, Gaussian charge scheme
   Yang Guo               : DLPNO-NEVPT2, F12-NEVPT2, CIM, IAO-localization
   Andreas Hansen         : Spin unrestricted coupled pair/coupled cluster methods
   Benjamin Helmich-Paris : MC-RPA, TRAH-SCF, COSX integrals
   Lee Huntington         : MR-EOM, pCC
   Robert Izsak           : Overlap fitted RIJCOSX, COSX-SCS-MP3, EOM
   Marcus Kettner         : VPT2
   Christian Kollmar      : KDIIS, OOCD, Brueckner-CCSD(T), CCSD density, CASPT2, CASPT2-K
   Simone Kossmann        : Meta GGA functionals, TD-DFT gradient, OOMP2, MP2 Hessian
   Martin Krupicka        : Initial AUTO-CI
   Lucas Lang             : DCDCAS
   Marvin Lechner         : AUTO-CI (C++ implementation), FIC-MRCC
   Dagmar Lenk            : GEPOL surface, SMD
   Dimitrios Liakos       : Extrapolation schemes; Compound Job, initial MDCI parallelization
   Dimitrios Manganas     : Further ROCIS development; embedding schemes
   Dimitrios Pantazis     : SARC Basis sets
   Anastasios Papadopoulos: AUTO-CI, single reference methods and gradients
   Taras Petrenko         : DFT Hessian,TD-DFT gradient, ASA, ECA, R-Raman, ABS, FL, XAS/XES, NRVS
   Peter Pinski           : DLPNO-MP2, DLPNO-MP2 Gradient
   Christoph Reimann      : Effective Core Potentials
   Marius Retegan         : Local ZFS, SOC
   Christoph Riplinger    : Optimizer, TS searches, QM/MM, DLPNO-CCSD(T), (RO)-DLPNO pert. Triples
   Tobias Risthaus        : Range-separated hybrids, TD-DFT gradient, RPA, STAB
   Michael Roemelt        : Original ROCIS implementation
   Masaaki Saitow         : Open-shell DLPNO-CCSD energy and density
   Barbara Sandhoefer     : DKH picture change effects
   Avijit Sen             : IP-ROCIS
   Kantharuban Sivalingam : CASSCF convergence, NEVPT2, FIC-MRCI
   Bernardo de Souza      : ESD, SOC TD-DFT
   Georgi Stoychev        : AutoAux, RI-MP2 NMR, DLPNO-MP2 response
   Willem Van den Heuvel  : Paramagnetic NMR
   Boris Wezisla          : Elementary symmetry handling
   Frank Wennmohs         : Technical directorship


 We gratefully acknowledge several colleagues who have allowed us to
 interface, adapt or use parts of their codes:
   Stefan Grimme, W. Hujo, H. Kruse, P. Pracht,  : VdW corrections, initial TS optimization,
                  C. Bannwarth, S. Ehlert          DFT functionals, gCP, sTDA/sTD-DF
   Ed Valeev, F. Pavosevic, A. Kumar             : LibInt (2-el integral package), F12 methods
   Garnet Chan, S. Sharma, J. Yang, R. Olivares  : DMRG
   Ulf Ekstrom                                   : XCFun DFT Library
   Mihaly Kallay                                 : mrcc  (arbitrary order and MRCC methods)
   Jiri Pittner, Ondrej Demel                    : Mk-CCSD
   Frank Weinhold                                : gennbo (NPA and NBO analysis)
   Christopher J. Cramer and Donald G. Truhlar   : smd solvation model
   Lars Goerigk                                  : TD-DFT with DH, B97 family of functionals
   V. Asgeirsson, H. Jonsson                     : NEB implementation
   FAccTs GmbH                                   : IRC, NEB, NEB-TS, DLPNO-Multilevel, CI-OPT
                                                   MM, QMMM, 2- and 3-layer-ONIOM, Crystal-QMMM,
                                                   LR-CPCM, SF, NACMEs, symmetry and pop. for TD-DFT,
                                                   nearIR, NL-DFT gradient (VV10), updates on ESD,
                                                   ML-optimized integration grids
   S Lehtola, MJT Oliveira, MAL Marques          : LibXC Library
   Liviu Ungur et al                             : ANISO software


 Your calculation uses the libint2 library for the computation of 2-el integrals
 For citations please refer to: http://libint.valeyev.net

 Your ORCA version has been built with support for libXC version: 5.1.0
 For citations please refer to: https://tddft.org/programs/libxc/

 This ORCA versions uses:
   CBLAS   interface :  Fast vector & matrix operations
   LAPACKE interface :  Fast linear algebra routines
   SCALAPACK package :  Parallel linear algebra routines
   Shared memory     :  Shared parallel matrices
   BLAS/LAPACK       :  OpenBLAS 0.3.15  USE64BITINT DYNAMIC_ARCH NO_AFFINITY Zen SINGLE_THREADED
        Core in use  :  Zen
   Copyright (c) 2011-2014, The OpenBLAS Project


Your calculation utilizes the SMD solvation module
Please cite in your paper:
A.V. Marenich, C.J. Cramer, D.G. Truhlar J. Phys. Chem. B, 113, (2009), 6378 

================================================================================

----- Orbital basis set information -----
Your calculation utilizes the basis: def2-TZVP
   F. Weigend and R. Ahlrichs, Phys. Chem. Chem. Phys. 7, 3297 (2005).

----- AuxJ basis set information -----
Your calculation utilizes the auxiliary basis: def2/J
   F. Weigend, Phys. Chem. Chem. Phys. 8, 1057 (2006).

----- AuxC basis set information -----
Your calculation utilizes the auxiliary basis: def2-TZVP/C
  H-La, Hf-Rn : A. Hellweg, C. Hattig, S. Hofener and W. Klopper, Theor. Chem. Acc. 117, 587 (2007).
        Ce-Lu : J. Chmela and M. E. Harding, Mol. Phys. (2018).

================================================================================
                                        WARNINGS
                       Please study these warnings very carefully!
================================================================================

INFO   : Checking CIS options ...
  ===> : (D) CORRECTION FOUND - SETTING MODE=3
  ===> : JK MODE FOUND - ACTIVATING RI-MP2 CODE
  ===> : MP2 AND CIS FOUND - CHECKING
WARNING: CIS(D) and MP2 runs must have the same orbital window
  ===> : adjusting orbital windows

WARNING: No MP2 level density has been requested!
         To caclulate MP2 level properties use
         %mp2 Density relaxed end
         or
         %mp2 Density unrelaxed end
         Otherwise for double-hybrid DFT only the energy is correct!

WARNING: The frozen-core approximation is turned on by default for 
         the MP2 part of double-hybrid DFT.

WARNING:  You are using a Range-Separated Double Hybrid functional with Doubles Correction 
          Changing Mode to RPA_AOINTS 


WARNING: CIS/ROCIS methods need fully converged wavefunctions
  ===> : Setting SCFConvForced true
         You can overwrite this default with %scf ConvForced false 


INFO   : the flag for use of the SHARK integral package has been found!

================================================================================
                                       INPUT FILE
================================================================================
NAME = Me2-Acr_3_M06L_def2TZVP_coords.inp
|  1> %maxcore 3200
|  2> %pal
|  3>  nprocs= 8
|  4> end
|  5> ! RI-wB2PLYP def2-TZVP def2/J def2-TZVP/C RIJCOSX CPCM TightSCF
|  6> %TDDFT DCORR 1
|  7>    NROOTS   30
|  8> 
|  9>    TDA      FALSE
| 10> END
| 11> 
| 12> %CPCM
| 13>    SMD          TRUE
| 14>    SMDsolvent   "N,N-DIMETHYLFORMAMIDE"
| 15> END
| 16>    
| 17> 
| 18> * xyz 0 1
| 19> C                   3.63553800    0.74494900   -0.46163900
| 20> C                   2.42107900    1.38030500   -0.58758400
| 21> C                   1.21656200    0.67285700   -0.46712700
| 22> C                   1.25819300   -0.70454500   -0.20388600
| 23> C                   2.49840900   -1.31093200   -0.07569600
| 24> C                   3.70901100   -0.62592000   -0.19895200
| 25> C                   0.00281000   -1.54830600   -0.04909500
| 26> C                  -1.25323300   -0.70909400   -0.22215700
| 27> C                  -1.21280700    0.66998300   -0.47644700
| 28> C                  -2.41813500    1.37537900   -0.60084500
| 29> H                  -2.39777200    2.43601700   -0.80861100
| 30> C                  -3.63194100    0.73875100   -0.47511300
| 31> C                  -3.70436300   -0.63530400   -0.22897100
| 32> C                  -2.49289500   -1.32003900   -0.11238600
| 33> H                   2.39954700    2.44418800   -0.77785100
| 34> H                   2.52223200   -2.37832400    0.10828800
| 35> H                  -4.53710000    1.31953600   -0.59838700
| 36> N                   0.00150800    1.33773300   -0.60209900
| 37> C                   0.00058900    2.75552300   -0.80739300
| 38> C                  -0.00882800    3.61388500    0.32010700
| 39> C                   0.00908000    3.25827500   -2.08132000
| 40> C                  -0.01719200    3.13370600    1.64772300
| 41> C                  -0.00955500    5.02295900    0.09320400
| 42> C                   0.00838700    4.64657800   -2.29571300
| 43> H                   0.01626600    2.57293000   -2.91985400
| 44> C                  -0.02609000    4.00555800    2.70413200
| 45> H                  -0.01642800    2.06468700    1.82375200
| 46> C                  -0.01886900    5.88997000    1.20767400
| 47> C                  -0.00079500    5.50832400   -1.23232900
| 48> H                   0.01512900    5.02768800   -3.30864600
| 49> C                  -0.02699800    5.39464000    2.48376800
| 50> H                  -0.03241900    3.62488100    3.71764900
| 51> H                  -0.01937300    6.95893200    1.02981200
| 52> H                  -0.00143300    6.58011600   -1.39142500
| 53> H                  -0.03406200    6.07091200    3.32919500
| 54> H                  -2.51497500   -2.38116600    0.10409700
| 55> H                   4.54022000    1.33378400   -0.54317400
| 56> C                   0.01021200   -2.66879700   -1.09901000
| 57> H                   0.01780600   -2.26135600   -2.11032800
| 58> H                   0.88754400   -3.30522900   -0.98473500
| 59> H                  -0.87016200   -3.30331800   -0.99734800
| 60> C                  -0.00416100   -2.17723100    1.35264600
| 61> H                   0.87715000   -2.80060400    1.50420300
| 62> H                  -0.01225200   -1.40924200    2.12720000
| 63> H                  -0.88163900   -2.80837100    1.49316700
| 64> C                   4.99550500   -1.31286300   -0.05513800
| 65> C                   5.11248700   -2.49254400    0.69374800
| 66> C                   6.15581300   -0.81066600   -0.66148200
| 67> C                   6.31979700   -3.14205800    0.83103800
| 68> H                   4.24431000   -2.89767900    1.19677800
| 69> C                   7.37016100   -1.44844200   -0.53239000
| 70> H                   6.10071100    0.08668400   -1.26353700
| 71> C                   7.46566300   -2.62582300    0.21681000
| 72> H                   6.38899400   -4.04685100    1.42001400
| 73> H                   8.25113800   -1.04775200   -1.01580000
| 74> C                  -4.98997200   -1.32600300   -0.09568900
| 75> C                  -5.11269100   -2.69713500   -0.36294500
| 76> C                  -6.14345800   -0.63662100    0.30504700
| 77> C                  -6.31915000   -3.35064100   -0.23732900
| 78> H                  -4.24975800   -3.25868900   -0.69612300
| 79> C                  -7.35689500   -1.27610500    0.43384200
| 80> H                  -6.08338900    0.41756100    0.54160200
| 81> C                  -7.45833400   -2.64478700    0.16363300
| 82> H                  -6.39291600   -4.40752600   -0.45633500
| 83> H                  -8.23267900   -0.72655200    0.75231700
| 84> C                  -8.70201000   -3.30886700    0.29507900
| 85> C                   8.71001100   -3.28800600    0.35229600
| 86> N                   9.72793300   -3.82989700    0.46287000
| 87> N                  -9.71948300   -3.85222800    0.40257600
| 88> *
| 89> 
| 90> 
| 91>                          ****END OF INPUT****
================================================================================

                       ****************************
                       * Single Point Calculation *
                       ****************************

---------------------------------
CARTESIAN COORDINATES (ANGSTROEM)
---------------------------------
  C      3.635538    0.744949   -0.461639
  C      2.421079    1.380305   -0.587584
  C      1.216562    0.672857   -0.467127
  C      1.258193   -0.704545   -0.203886
  C      2.498409   -1.310932   -0.075696
  C      3.709011   -0.625920   -0.198952
  C      0.002810   -1.548306   -0.049095
  C     -1.253233   -0.709094   -0.222157
  C     -1.212807    0.669983   -0.476447
  C     -2.418135    1.375379   -0.600845
  H     -2.397772    2.436017   -0.808611
  C     -3.631941    0.738751   -0.475113
  C     -3.704363   -0.635304   -0.228971
  C     -2.492895   -1.320039   -0.112386
  H      2.399547    2.444188   -0.777851
  H      2.522232   -2.378324    0.108288
  H     -4.537100    1.319536   -0.598387
  N      0.001508    1.337733   -0.602099
  C      0.000589    2.755523   -0.807393
  C     -0.008828    3.613885    0.320107
  C      0.009080    3.258275   -2.081320
  C     -0.017192    3.133706    1.647723
  C     -0.009555    5.022959    0.093204
  C      0.008387    4.646578   -2.295713
  H      0.016266    2.572930   -2.919854
  C     -0.026090    4.005558    2.704132
  H     -0.016428    2.064687    1.823752
  C     -0.018869    5.889970    1.207674
  C     -0.000795    5.508324   -1.232329
  H      0.015129    5.027688   -3.308646
  C     -0.026998    5.394640    2.483768
  H     -0.032419    3.624881    3.717649
  H     -0.019373    6.958932    1.029812
  H     -0.001433    6.580116   -1.391425
  H     -0.034062    6.070912    3.329195
  H     -2.514975   -2.381166    0.104097
  H      4.540220    1.333784   -0.543174
  C      0.010212   -2.668797   -1.099010
  H      0.017806   -2.261356   -2.110328
  H      0.887544   -3.305229   -0.984735
  H     -0.870162   -3.303318   -0.997348
  C     -0.004161   -2.177231    1.352646
  H      0.877150   -2.800604    1.504203
  H     -0.012252   -1.409242    2.127200
  H     -0.881639   -2.808371    1.493167
  C      4.995505   -1.312863   -0.055138
  C      5.112487   -2.492544    0.693748
  C      6.155813   -0.810666   -0.661482
  C      6.319797   -3.142058    0.831038
  H      4.244310   -2.897679    1.196778
  C      7.370161   -1.448442   -0.532390
  H      6.100711    0.086684   -1.263537
  C      7.465663   -2.625823    0.216810
  H      6.388994   -4.046851    1.420014
  H      8.251138   -1.047752   -1.015800
  C     -4.989972   -1.326003   -0.095689
  C     -5.112691   -2.697135   -0.362945
  C     -6.143458   -0.636621    0.305047
  C     -6.319150   -3.350641   -0.237329
  H     -4.249758   -3.258689   -0.696123
  C     -7.356895   -1.276105    0.433842
  H     -6.083389    0.417561    0.541602
  C     -7.458334   -2.644787    0.163633
  H     -6.392916   -4.407526   -0.456335
  H     -8.232679   -0.726552    0.752317
  C     -8.702010   -3.308867    0.295079
  C      8.710011   -3.288006    0.352296
  N      9.727933   -3.829897    0.462870
  N     -9.719483   -3.852228    0.402576

----------------------------
CARTESIAN COORDINATES (A.U.)
----------------------------
  NO LB      ZA    FRAG     MASS         X           Y           Z
   0 C     6.0000    0    12.011    6.870171    1.407750   -0.872371
   1 C     6.0000    0    12.011    4.575176    2.608398   -1.110373
   2 C     6.0000    0    12.011    2.298969    1.271515   -0.882742
   3 C     6.0000    0    12.011    2.377640   -1.331397   -0.385289
   4 C     6.0000    0    12.011    4.721309   -2.477302   -0.143045
   5 C     6.0000    0    12.011    7.009015   -1.182817   -0.375965
   6 C     6.0000    0    12.011    0.005310   -2.925874   -0.092776
   7 C     6.0000    0    12.011   -2.368267   -1.339993   -0.419816
   8 C     6.0000    0    12.011   -2.291873    1.266084   -0.900354
   9 C     6.0000    0    12.011   -4.569613    2.599090   -1.135432
  10 H     1.0000    0     1.008   -4.531132    4.603405   -1.528053
  11 C     6.0000    0    12.011   -6.863374    1.396037   -0.897833
  12 C     6.0000    0    12.011   -7.000232   -1.200551   -0.432692
  13 C     6.0000    0    12.011   -4.710889   -2.494512   -0.212379
  14 H     1.0000    0     1.008    4.534487    4.618846   -1.469925
  15 H     1.0000    0     1.008    4.766328   -4.494381    0.204635
  16 H     1.0000    0     1.008   -8.573876    2.493562   -1.130788
  17 N     7.0000    0    14.007    0.002850    2.527949   -1.137802
  18 C     6.0000    0    12.011    0.001113    5.207184   -1.525752
  19 C     6.0000    0    12.011   -0.016683    6.829253    0.604915
  20 C     6.0000    0    12.011    0.017159    6.157247   -3.933125
  21 C     6.0000    0    12.011   -0.032488    5.921846    3.113745
  22 C     6.0000    0    12.011   -0.018056    9.492017    0.176130
  23 C     6.0000    0    12.011    0.015849    8.780760   -4.338269
  24 H     1.0000    0     1.008    0.030738    4.862133   -5.517724
  25 C     6.0000    0    12.011   -0.049303    7.569408    5.110069
  26 H     1.0000    0     1.008   -0.031044    3.901693    3.446392
  27 C     6.0000    0    12.011   -0.035657   11.130430    2.282173
  28 C     6.0000    0    12.011   -0.001502   10.409224   -2.328764
  29 H     1.0000    0     1.008    0.028590    9.500953   -6.252435
  30 C     6.0000    0    12.011   -0.051019   10.194392    4.693641
  31 H     1.0000    0     1.008   -0.061263    6.850032    7.025338
  32 H     1.0000    0     1.008   -0.036610   13.150476    1.946063
  33 H     1.0000    0     1.008   -0.002708   12.434617   -2.629412
  34 H     1.0000    0     1.008   -0.064368   11.472361    6.291267
  35 H     1.0000    0     1.008   -4.752614   -4.499752    0.196715
  36 H     1.0000    0     1.008    8.579772    2.520486   -1.026450
  37 C     6.0000    0    12.011    0.019298   -5.043295   -2.076828
  38 H     1.0000    0     1.008    0.033648   -4.273344   -3.987942
  39 H     1.0000    0     1.008    1.677215   -6.245978   -1.860879
  40 H     1.0000    0     1.008   -1.644368   -6.242366   -1.884715
  41 C     6.0000    0    12.011   -0.007863   -4.114370    2.556130
  42 H     1.0000    0     1.008    1.657573   -5.292375    2.842532
  43 H     1.0000    0     1.008   -0.023153   -2.663081    4.019825
  44 H     1.0000    0     1.008   -1.666056   -5.307052    2.821677
  45 C     6.0000    0    12.011    9.440136   -2.480952   -0.104196
  46 C     6.0000    0    12.011    9.661200   -4.710226    1.310994
  47 C     6.0000    0    12.011   11.632801   -1.531937   -1.250020
  48 C     6.0000    0    12.011   11.942686   -5.937629    1.570434
  49 H     1.0000    0     1.008    8.020584   -5.475820    2.261583
  50 C     6.0000    0    12.011   13.927586   -2.737159   -1.006071
  51 H     1.0000    0     1.008   11.528673    0.163809   -2.387739
  52 C     6.0000    0    12.011   14.108058   -4.962086    0.409712
  53 H     1.0000    0     1.008   12.073449   -7.647440    2.683438
  54 H     1.0000    0     1.008   15.592391   -1.979964   -1.919584
  55 C     6.0000    0    12.011   -9.429680   -2.505783   -0.180826
  56 C     6.0000    0    12.011   -9.661586   -5.096846   -0.685867
  57 C     6.0000    0    12.011  -11.609453   -1.203039    0.576455
  58 C     6.0000    0    12.011  -11.941463   -6.331794   -0.448487
  59 H     1.0000    0     1.008   -8.030879   -6.158030   -1.315482
  60 C     6.0000    0    12.011  -13.902517   -2.411489    0.819843
  61 H     1.0000    0     1.008  -11.495939    0.789076    1.023479
  62 C     6.0000    0    12.011  -14.094209   -4.997923    0.309222
  63 H     1.0000    0     1.008  -12.080860   -8.329017   -0.862348
  64 H     1.0000    0     1.008  -15.557509   -1.372984    1.421673
  65 C     6.0000    0    12.011  -16.444416   -6.252852    0.557618
  66 C     6.0000    0    12.011   16.459535   -6.213431    0.665743
  67 N     7.0000    0    14.007   18.383129   -7.237456    0.874698
  68 N     7.0000    0    14.007  -18.367161   -7.279656    0.760758

--------------------------------
INTERNAL COORDINATES (ANGSTROEM)
--------------------------------
 C      0   0   0     0.000000000000     0.00000000     0.00000000
 C      1   0   0     1.376390225351     0.00000000     0.00000000
 C      2   1   0     1.402089071651   121.14741034     0.00000000
 C      3   2   1     1.402948763799   119.07846131     0.47097882
 C      4   3   2     1.386460816801   118.24816178   359.88954143
 C      5   4   3     1.396420668740   123.55786091   359.77094770
 C      4   3   2     1.520486552223   122.64451084   179.60684950
 C      7   4   3     1.520483888319   111.35695384     0.25699195
 C      8   7   4     1.402908064523   122.64202046   359.33114587
 C      9   8   7     1.402096275868   119.06914734   181.06694545
 H     10   9   8     1.080987663930   119.63604854   180.73423900
 C     10   9   8     1.376382487481   121.15209246     0.13466004
 C     12  10   9     1.397804697829   121.09479763   359.51385738
 C      8   7   4     1.386385711016   119.10545478   180.00990292
 H      2   1   3     1.080977426222   119.20868848   179.69783237
 H      5   4   3     1.083394355371   117.79272914   181.17005411
 H     12  10   9     1.082506586854   118.60964989   181.20568481
 N      9   8   7     1.391488198595   120.88020810     0.92531567
 C     18   9   8     1.432576334824   119.16388896   182.52519142
 C     19  18   9     1.417085125507   119.04238305    88.23316883
 C     19  18   9     1.369569885736   119.77472842   268.21799392
 C     20  19  18     1.411809502728   122.83501657     0.00000000
 C     20  19  18     1.427226344142   118.13363521   179.99888649
 C     21  19  18     1.404759786763   120.31442366   180.00513816
 H     21  19  18     1.082999850774   119.20525050     0.00000000
 C     22  20  19     1.369746348631   120.58416582   179.99762937
 H     22  20  19     1.083415162760   119.23410600     0.00000000
 C     23  20  19     1.412033358535   118.73315193   180.00115465
 C     24  21  19     1.368749797843   120.24137739     0.00000000
 H     24  21  19     1.082277020523   119.39640933   180.00241591
 C     28  23  20     1.368880486521   120.90556984     0.00000000
 H     26  22  20     1.082668806173   119.88229148   180.00188896
 H     28  23  20     1.083658111447   118.43418012   179.99957736
 H     29  24  21     1.083535894894   120.57685157   180.00344188
 H     31  28  23     1.082654391027   120.13006740   179.99797145
 H     14   8   7     1.083209548434   117.75822039     0.57385446
 H      1   2   3     1.082508260742   118.64738687   181.15581100
 C      7   4   3     1.535537813898   109.35054353   121.02950171
 H     38   7   4     1.090334780900   111.19523328   299.06424173
 H     38   7   4     1.089869673160   110.99595160    59.38231499
 H     38   7   4     1.089958917373   110.92416092   178.80835302
 C      7   4   3     1.536383116787   108.89230866   240.00337253
 H     42   7   4     1.090079125614   110.93287178   300.74137360
 H     42   7   4     1.090782502297   111.08053619    60.94348742
 H     42   7   4     1.089977748179   110.99631004   181.20835499
 C      6   5   4     1.465482843257   121.49622572   180.01924625
 C     46   6   5     1.402199091100   121.33300907   334.83502278
 C     46   6   5     1.402201671661   121.07142017   154.94244638
 C     47  46   6     1.377793314106   121.52891817   179.96531833
 H     47  46   6     1.082083569995   119.75754619   358.60438281
 C     48  46   6     1.377702448188   121.53767636   179.98692245
 H     48  46   6     1.082008999930   119.70244745   358.68035944
 C     51  48  46     1.398802091493   120.00093382     0.03510008
 H     49  47  46     1.081818527404   120.30306201   179.51506592
 H     51  48  46     1.081830938146   120.29506264   179.48166117
 C     13  12  10     1.465475929862   121.65297242   180.12744977
 C     56  13  12     1.402315472325   121.35042617   155.04643114
 C     56  13  12     1.402272026326   121.05812057   335.03106014
 C     57  56  13     1.377821755589   121.53429930   179.92148586
 H     57  56  13     1.082129307010   119.75470883   358.61166696
 C     58  56  13     1.377663707604   121.53663228   180.01508982
 H     58  56  13     1.082065729016   119.71986785   358.64117521
 C     61  58  56     1.398782753513   120.00042539     0.05334163
 H     59  57  56     1.081855329523   120.30511488   179.50679496
 H     61  58  56     1.081865259674   120.31446757   179.49509102
 C     63  61  58     1.415983859474   120.30868289   179.94211401
 C     53  51  48     1.416066639247   120.32073081   179.90515456
 N     67  53  51     1.158463492494   179.98416721   270.85382123
 N     66  63  61     1.158467991383   179.99640662   158.98962794

---------------------------
INTERNAL COORDINATES (A.U.)
---------------------------
 C      0   0   0     0.000000000000     0.00000000     0.00000000
 C      1   0   0     2.601000579320     0.00000000     0.00000000
 C      2   1   0     2.649564360783   121.14741034     0.00000000
 C      3   2   1     2.651188943504   119.07846131     0.47097882
 C      4   3   2     2.620031239167   118.24816178   359.88954143
 C      5   4   3     2.638852631666   123.55786091   359.77094770
 C      4   3   2     2.873303174012   122.64451084   179.60684950
 C      7   4   3     2.873298139962   111.35695384     0.25699195
 C      8   7   4     2.651112033019   122.64202046   359.33114587
 C      9   8   7     2.649577974782   119.06914734   181.06694545
 H     10   9   8     2.042770638975   119.63604854   180.73423900
 C     10   9   8     2.600985956864   121.15209246     0.13466004
 C     12  10   9     2.641468067605   121.09479763   359.51385738
 C      8   7   4     2.619889309802   119.10545478   180.00990292
 H      2   1   3     2.042751292511   119.20868848   179.69783237
 H      5   4   3     2.047318626687   117.79272914   181.17005411
 H     12  10   9     2.045640987320   118.60964989   181.20568481
 N      9   8   7     2.629531613928   120.88020810     0.92531567
 C     18   9   8     2.707176938754   119.16388896   182.52519142
 C     19  18   9     2.677902795662   119.04238305    88.23316883
 C     19  18   9     2.588112005306   119.77472842   268.21799392
 C     20  19  18     2.667933313423   122.83501657     0.00000000
 C     20  19  18     2.697066921547   118.13363521   179.99888649
 C     21  19  18     2.654611280928   120.31442366   180.00513816
 H     21  19  18     2.046573121041   119.20525050     0.00000000
 C     22  20  19     2.588445471852   120.58416582   179.99762937
 H     22  20  19     2.047357946954   119.23410600     0.00000000
 C     23  20  19     2.668356339593   118.73315193   180.00115465
 C     24  21  19     2.586562263784   120.24137739     0.00000000
 H     24  21  19     2.045207169825   119.39640933   180.00241591
 C     28  23  20     2.586809229593   120.90556984     0.00000000
 H     26  22  20     2.045947537406   119.88229148   180.00188896
 H     28  23  20     2.047817053436   118.43418012   179.99957736
 H     29  24  21     2.047586097623   120.57685157   180.00344188
 H     31  28  23     2.045920296727   120.13006740   179.99797145
 H     14   8   7     2.046969392188   117.75822039     0.57385446
 H      1   2   3     2.045644150509   118.64738687   181.15581100
 C      7   4   3     2.901745936547   109.35054353   121.02950171
 H     38   7   4     2.060434130191   111.19523328   299.06424173
 H     38   7   4     2.059555203938   110.99595160    59.38231499
 H     38   7   4     2.059723851060   110.92416092   178.80835302
 C      7   4   3     2.903343327507   108.89230866   240.00337253
 H     42   7   4     2.059951011714   110.93287178   300.74137360
 H     42   7   4     2.061280201015   111.08053619    60.94348742
 H     42   7   4     2.059759436126   110.99631004   181.20835499
 C      6   5   4     2.769361227716   121.49622572   180.01924625
 C     46   6   5     2.649772267412   121.33300907   334.83502278
 C     46   6   5     2.649777143966   121.07142017   154.94244638
 C     47  46   6     2.603652032809   121.52891817   179.96531833
 H     47  46   6     2.044841601307   119.75754619   358.60438281
 C     48  46   6     2.603480321109   121.53767636   179.98692245
 H     48  46   6     2.044700684305   119.70244745   358.68035944
 C     51  48  46     2.643352868478   120.00093382     0.03510008
 H     49  47  46     2.044340743395   120.30306201   179.51506592
 H     51  48  46     2.044364196298   120.29506264   179.48166117
 C     13  12  10     2.769348163293   121.65297242   180.12744977
 C     56  13  12     2.649992196054   121.35042617   155.04643114
 C     56  13  12     2.649910095015   121.05812057   335.03106014
 C     57  56  13     2.603705779421   121.53429930   179.92148586
 H     57  56  13     2.044928031738   119.75470883   358.61166696
 C     58  56  13     2.603407112015   121.53663228   180.01508982
 H     58  56  13     2.044807886741   119.71986785   358.64117521
 C     61  58  56     2.643316324992   120.00042539     0.05334163
 H     59  57  56     2.044410289321   120.30511488   179.50679496
 H     61  58  56     2.044429054588   120.31446757   179.49509102
 C     63  61  58     2.675821704459   120.30868289   179.94211401
 C     53  51  48     2.675978135560   120.32073081   179.90515456
 N     67  53  51     2.189178736959   179.98416721   270.85382123
 N     66  63  61     2.189187238628   179.99640662   158.98962794

---------------------
BASIS SET INFORMATION
---------------------
There are 3 groups of distinct atoms

 Group   1 Type C   : 11s6p2d1f contracted to 5s3p2d1f pattern {62111/411/11/1}
 Group   2 Type H   : 5s1p contracted to 3s1p pattern {311/1}
 Group   3 Type N   : 11s6p2d1f contracted to 5s3p2d1f pattern {62111/411/11/1}

Atom   0C    basis set group =>   1
Atom   1C    basis set group =>   1
Atom   2C    basis set group =>   1
Atom   3C    basis set group =>   1
Atom   4C    basis set group =>   1
Atom   5C    basis set group =>   1
Atom   6C    basis set group =>   1
Atom   7C    basis set group =>   1
Atom   8C    basis set group =>   1
Atom   9C    basis set group =>   1
Atom  10H    basis set group =>   2
Atom  11C    basis set group =>   1
Atom  12C    basis set group =>   1
Atom  13C    basis set group =>   1
Atom  14H    basis set group =>   2
Atom  15H    basis set group =>   2
Atom  16H    basis set group =>   2
Atom  17N    basis set group =>   3
Atom  18C    basis set group =>   1
Atom  19C    basis set group =>   1
Atom  20C    basis set group =>   1
Atom  21C    basis set group =>   1
Atom  22C    basis set group =>   1
Atom  23C    basis set group =>   1
Atom  24H    basis set group =>   2
Atom  25C    basis set group =>   1
Atom  26H    basis set group =>   2
Atom  27C    basis set group =>   1
Atom  28C    basis set group =>   1
Atom  29H    basis set group =>   2
Atom  30C    basis set group =>   1
Atom  31H    basis set group =>   2
Atom  32H    basis set group =>   2
Atom  33H    basis set group =>   2
Atom  34H    basis set group =>   2
Atom  35H    basis set group =>   2
Atom  36H    basis set group =>   2
Atom  37C    basis set group =>   1
Atom  38H    basis set group =>   2
Atom  39H    basis set group =>   2
Atom  40H    basis set group =>   2
Atom  41C    basis set group =>   1
Atom  42H    basis set group =>   2
Atom  43H    basis set group =>   2
Atom  44H    basis set group =>   2
Atom  45C    basis set group =>   1
Atom  46C    basis set group =>   1
Atom  47C    basis set group =>   1
Atom  48C    basis set group =>   1
Atom  49H    basis set group =>   2
Atom  50C    basis set group =>   1
Atom  51H    basis set group =>   2
Atom  52C    basis set group =>   1
Atom  53H    basis set group =>   2
Atom  54H    basis set group =>   2
Atom  55C    basis set group =>   1
Atom  56C    basis set group =>   1
Atom  57C    basis set group =>   1
Atom  58C    basis set group =>   1
Atom  59H    basis set group =>   2
Atom  60C    basis set group =>   1
Atom  61H    basis set group =>   2
Atom  62C    basis set group =>   1
Atom  63H    basis set group =>   2
Atom  64H    basis set group =>   2
Atom  65C    basis set group =>   1
Atom  66C    basis set group =>   1
Atom  67N    basis set group =>   3
Atom  68N    basis set group =>   3
---------------------------------
AUXILIARY/J BASIS SET INFORMATION
---------------------------------
There are 3 groups of distinct atoms

 Group   1 Type C   : 12s5p4d2f1g contracted to 6s4p3d1f1g pattern {711111/2111/211/2/1}
 Group   2 Type H   : 5s2p1d contracted to 3s1p1d pattern {311/2/1}
 Group   3 Type N   : 12s5p4d2f1g contracted to 6s4p3d1f1g pattern {711111/2111/211/2/1}

Atom   0C    basis set group =>   1
Atom   1C    basis set group =>   1
Atom   2C    basis set group =>   1
Atom   3C    basis set group =>   1
Atom   4C    basis set group =>   1
Atom   5C    basis set group =>   1
Atom   6C    basis set group =>   1
Atom   7C    basis set group =>   1
Atom   8C    basis set group =>   1
Atom   9C    basis set group =>   1
Atom  10H    basis set group =>   2
Atom  11C    basis set group =>   1
Atom  12C    basis set group =>   1
Atom  13C    basis set group =>   1
Atom  14H    basis set group =>   2
Atom  15H    basis set group =>   2
Atom  16H    basis set group =>   2
Atom  17N    basis set group =>   3
Atom  18C    basis set group =>   1
Atom  19C    basis set group =>   1
Atom  20C    basis set group =>   1
Atom  21C    basis set group =>   1
Atom  22C    basis set group =>   1
Atom  23C    basis set group =>   1
Atom  24H    basis set group =>   2
Atom  25C    basis set group =>   1
Atom  26H    basis set group =>   2
Atom  27C    basis set group =>   1
Atom  28C    basis set group =>   1
Atom  29H    basis set group =>   2
Atom  30C    basis set group =>   1
Atom  31H    basis set group =>   2
Atom  32H    basis set group =>   2
Atom  33H    basis set group =>   2
Atom  34H    basis set group =>   2
Atom  35H    basis set group =>   2
Atom  36H    basis set group =>   2
Atom  37C    basis set group =>   1
Atom  38H    basis set group =>   2
Atom  39H    basis set group =>   2
Atom  40H    basis set group =>   2
Atom  41C    basis set group =>   1
Atom  42H    basis set group =>   2
Atom  43H    basis set group =>   2
Atom  44H    basis set group =>   2
Atom  45C    basis set group =>   1
Atom  46C    basis set group =>   1
Atom  47C    basis set group =>   1
Atom  48C    basis set group =>   1
Atom  49H    basis set group =>   2
Atom  50C    basis set group =>   1
Atom  51H    basis set group =>   2
Atom  52C    basis set group =>   1
Atom  53H    basis set group =>   2
Atom  54H    basis set group =>   2
Atom  55C    basis set group =>   1
Atom  56C    basis set group =>   1
Atom  57C    basis set group =>   1
Atom  58C    basis set group =>   1
Atom  59H    basis set group =>   2
Atom  60C    basis set group =>   1
Atom  61H    basis set group =>   2
Atom  62C    basis set group =>   1
Atom  63H    basis set group =>   2
Atom  64H    basis set group =>   2
Atom  65C    basis set group =>   1
Atom  66C    basis set group =>   1
Atom  67N    basis set group =>   3
Atom  68N    basis set group =>   3
---------------------------------
AUXILIARY/C BASIS SET INFORMATION
---------------------------------
There are 3 groups of distinct atoms

 Group   1 Type C   : 8s6p5d3f1g contracted to 8s6p4d3f1g pattern {11111111/111111/2111/111/1}
 Group   2 Type H   : 4s3p2d contracted to 4s2p1d pattern {1111/21/2}
 Group   3 Type N   : 8s6p5d3f1g contracted to 8s6p4d3f1g pattern {11111111/111111/2111/111/1}

Atom   0C    basis set group =>   1
Atom   1C    basis set group =>   1
Atom   2C    basis set group =>   1
Atom   3C    basis set group =>   1
Atom   4C    basis set group =>   1
Atom   5C    basis set group =>   1
Atom   6C    basis set group =>   1
Atom   7C    basis set group =>   1
Atom   8C    basis set group =>   1
Atom   9C    basis set group =>   1
Atom  10H    basis set group =>   2
Atom  11C    basis set group =>   1
Atom  12C    basis set group =>   1
Atom  13C    basis set group =>   1
Atom  14H    basis set group =>   2
Atom  15H    basis set group =>   2
Atom  16H    basis set group =>   2
Atom  17N    basis set group =>   3
Atom  18C    basis set group =>   1
Atom  19C    basis set group =>   1
Atom  20C    basis set group =>   1
Atom  21C    basis set group =>   1
Atom  22C    basis set group =>   1
Atom  23C    basis set group =>   1
Atom  24H    basis set group =>   2
Atom  25C    basis set group =>   1
Atom  26H    basis set group =>   2
Atom  27C    basis set group =>   1
Atom  28C    basis set group =>   1
Atom  29H    basis set group =>   2
Atom  30C    basis set group =>   1
Atom  31H    basis set group =>   2
Atom  32H    basis set group =>   2
Atom  33H    basis set group =>   2
Atom  34H    basis set group =>   2
Atom  35H    basis set group =>   2
Atom  36H    basis set group =>   2
Atom  37C    basis set group =>   1
Atom  38H    basis set group =>   2
Atom  39H    basis set group =>   2
Atom  40H    basis set group =>   2
Atom  41C    basis set group =>   1
Atom  42H    basis set group =>   2
Atom  43H    basis set group =>   2
Atom  44H    basis set group =>   2
Atom  45C    basis set group =>   1
Atom  46C    basis set group =>   1
Atom  47C    basis set group =>   1
Atom  48C    basis set group =>   1
Atom  49H    basis set group =>   2
Atom  50C    basis set group =>   1
Atom  51H    basis set group =>   2
Atom  52C    basis set group =>   1
Atom  53H    basis set group =>   2
Atom  54H    basis set group =>   2
Atom  55C    basis set group =>   1
Atom  56C    basis set group =>   1
Atom  57C    basis set group =>   1
Atom  58C    basis set group =>   1
Atom  59H    basis set group =>   2
Atom  60C    basis set group =>   1
Atom  61H    basis set group =>   2
Atom  62C    basis set group =>   1
Atom  63H    basis set group =>   2
Atom  64H    basis set group =>   2
Atom  65C    basis set group =>   1
Atom  66C    basis set group =>   1
Atom  67N    basis set group =>   3
Atom  68N    basis set group =>   3


           ************************************************************
           *        Program running with 8 parallel MPI-processes     *
           *              working on a common directory               *
           ************************************************************
------------------------------------------------------------------------------
                           ORCA GTO INTEGRAL CALCULATION
                           -- RI-GTO INTEGRALS CHOSEN --
------------------------------------------------------------------------------
------------------------------------------------------------------------------
                   ___                                                        
                  /   \      - P O W E R E D   B Y -                         
                 /     \                                                     
                 |  |  |   _    _      __       _____    __    __             
                 |  |  |  | |  | |    /  \     |  _  \  |  |  /  |          
                  \  \/   | |  | |   /    \    | | | |  |  | /  /          
                 / \  \   | |__| |  /  /\  \   | |_| |  |  |/  /          
                |  |  |   |  __  | /  /__\  \  |    /   |      \           
                |  |  |   | |  | | |   __   |  |    \   |  |\   \          
                \     /   | |  | | |  |  |  |  | |\  \  |  | \   \       
                 \___/    |_|  |_| |__|  |__|  |_| \__\ |__|  \__/        
                                                                              
                      - O R C A' S   B I G   F R I E N D -                    
                                      &                                       
                       - I N T E G R A L  F E E D E R -                       
                                                                              
 v1 FN, 2020, v2 2021                                                         
------------------------------------------------------------------------------


Reading SHARK input file Me2-Acr_3_M06L_def2TZVP_coords.SHARKINP.tmp ... ok
----------------------
SHARK INTEGRAL PACKAGE
----------------------

Number of atoms                             ...     69
Number of basis functions                   ...   1464
Number of shells                            ...    570
Maximum angular momentum                    ...      3
Integral batch strategy                     ... SHARK/LIBINT Hybrid
RI-J (if used) integral strategy            ... SPLIT-RIJ (Revised 2003 algorithm where possible)
Printlevel                                  ...      1
Contraction scheme used                     ... SEGMENTED contraction
Coulomb Range Separation                    ... NOT USED
Exchange Range Separation                   ... Long Range
   Mu parameter                             ...  0.300000
   Scaling (regular/separated)              ...  0.530000  0.470000
Finite Nucleus Model                        ... NOT USED
Auxiliary Coulomb fitting basis             ... AVAILABLE
   # of basis functions in Aux-J            ...   2355
   # of shells in Aux-J                     ...    765
   Maximum angular momentum in Aux-J        ...      4
Auxiliary J/K fitting basis                 ... NOT available
Auxiliary Correlation fitting basis         ... AVAILABLE
   # of basis functions in Aux-C            ...   3597
   # of shells in Aux-C                     ...   1113
   Maximum angular momentum in Aux-C        ...      4
Auxiliary 'external' fitting basis          ... NOT available
Integral threshold                          ...     2.500000e-11
Primitive cut-off                           ...     2.500000e-12
Primitive pair pre-selection threshold      ...     2.500000e-12

Calculating pre-screening integrals         ... done (  0.1 sec) Dimension = 570
Organizing shell pair data                  ... done (  1.4 sec)
Shell pair information
Total number of shell pairs                 ...    162735
Shell pairs after pre-screening             ...     83533
Total number of primitive shell pairs       ...    503508
Primitive shell pairs kept                  ...    162500
          la=0 lb=0:  21270 shell pairs
          la=1 lb=0:  24621 shell pairs
          la=1 lb=1:   7099 shell pairs
          la=2 lb=0:  11691 shell pairs
          la=2 lb=1:   6826 shell pairs
          la=2 lb=2:   1629 shell pairs
          la=3 lb=0:   5392 shell pairs
          la=3 lb=1:   3205 shell pairs
          la=3 lb=2:   1447 shell pairs
          la=3 lb=3:    353 shell pairs

Calculating one electron integrals          ... done (  0.2 sec)
Calculating RI/J V-Matrix + Cholesky decomp.... done (  0.3 sec)
Calculating RI/C V-Matrix + Cholesky decomp.... done (  0.7 sec)
Calculating Nuclear repulsion               ... done (  0.0 sec) ENN=   4231.713623795548 Eh

SHARK setup successfully completed in   3.5 seconds

Maximum memory used throughout the entire GTOINT-calculation: 148.5 MB


           ************************************************************
           *        Program running with 8 parallel MPI-processes     *
           *              working on a common directory               *
           ************************************************************
-------------------------------------------------------------------------------
                                 ORCA SCF
-------------------------------------------------------------------------------

------------
SCF SETTINGS
------------
Hamiltonian:
 Density Functional     Method          .... DFT(GTOs)
 Exchange Functional    Exchange        .... WB88
 Correlation Functional Correlation     .... LYP
 LDA part of GGA corr.  LDAOpt          .... VWN-3
 Gradients option       PostSCFGGA      .... off
 Hybrid DFT is turned on
   Fraction HF Exchange ScalHFX         ....  0.530000
   Scaling of DF-GGA-X  ScalDFX         ....  0.000000
   Scaling of DF-GGA-C  ScalDFC         ....  0.730000
   Scaling of DF-LDA-C  ScalLDAC        ....  0.730000
   Perturbative correction              ....  0.270000
   Density functional embedding theory  .... OFF
 Long-range corrected/Screened/Range-Separated Hybrid DFT is turned on
   Amount of maximum screened exact exchange              ....  0.470000
   Range separation parameter mu (erf(mu*r12)/r12)        ....  0.300000
 RI-approximation to the Coulomb term is turned on
   Number of AuxJ basis functions       .... 2355
   RIJ-COSX (HFX calculated with COS-X)).... on


General Settings:
 Integral files         IntName         .... Me2-Acr_3_M06L_def2TZVP_coords
 Hartree-Fock type      HFTyp           .... RHF
 Total Charge           Charge          ....    0
 Multiplicity           Mult            ....    1
 Number of Electrons    NEL             ....  282
 Basis Dimension        Dim             .... 1464
 Nuclear Repulsion      ENuc            ....   4231.7136237955 Eh

Convergence Acceleration:
 DIIS                   CNVDIIS         .... on
   Start iteration      DIISMaxIt       ....    12
   Startup error        DIISStart       ....  0.200000
   # of expansion vecs  DIISMaxEq       ....     5
   Bias factor          DIISBfac        ....   1.050
   Max. coefficient     DIISMaxC        ....  10.000
 Trust-Rad. Augm. Hess. CNVTRAH         .... auto
   Auto Start mean grad. ratio tolernc. ....  1.125000
   Auto Start start iteration           ....    20
   Auto Start num. interpolation iter.  ....    10
   Max. Number of Micro iterations      ....    16
   Max. Number of Macro iterations      .... Maxiter - #DIIS iter
   Number of Davidson start vectors     ....     2
   Converg. threshold I  (grad. norm)   ....   1.000e-05
   Converg. threshold II (energy diff.) ....   1.000e-08
   Grad. Scal. Fac. for Micro threshold ....   0.100
   Minimum threshold for Micro iter.    ....   0.010
   NR start threshold (gradient norm)   ....   0.001
   Initial trust radius                 ....   0.400
   Minimum AH scaling param. (alpha)    ....   1.000
   Maximum AH scaling param. (alpha)    .... 1000.000
   Orbital update algorithm             .... Taylor
   White noise on init. David. guess    .... on
   Maximum white noise                  ....   0.010
   Quad. conv. algorithm                .... NR
 SOSCF                  CNVSOSCF        .... on
   Start iteration      SOSCFMaxIt      ....   150
   Startup grad/error   SOSCFStart      ....  0.003300
 Level Shifting         CNVShift        .... on
   Level shift para.    LevelShift      ....    0.2500
   Turn off err/grad.   ShiftErr        ....    0.0010
 Zerner damping         CNVZerner       .... off
 Static damping         CNVDamp         .... on
   Fraction old density DampFac         ....    0.7000
   Max. Damping (<1)    DampMax         ....    0.9800
   Min. Damping (>=0)   DampMin         ....    0.0000
   Turn off err/grad.   DampErr         ....    0.1000
 Fernandez-Rico         CNVRico         .... off

SCF Procedure:
 Maximum # iterations   MaxIter         ....   125
 SCF integral mode      SCFMode         .... Direct
   Integral package                     .... SHARK and LIBINT hybrid scheme
 Reset frequency        DirectResetFreq ....    20
 Integral Threshold     Thresh          ....  2.500e-11 Eh
 Primitive CutOff       TCut            ....  2.500e-12 Eh

Convergence Tolerance:
 Convergence Check Mode ConvCheckMode   .... Total+1el-Energy
 Convergence forced     ConvForced      .... 1
 Energy Change          TolE            ....  1.000e-08 Eh
 1-El. energy change                    ....  1.000e-05 Eh
 Orbital Gradient       TolG            ....  1.000e-05
 Orbital Rotation angle TolX            ....  1.000e-05
 DIIS Error             TolErr          ....  5.000e-07


Diagonalization of the overlap matrix:
Smallest eigenvalue                        ... 3.099e-06
Time for diagonalization                   ...    0.268 sec
Threshold for overlap eigenvalues          ... 1.000e-08
Number of eigenvalues below threshold      ... 0
Time for construction of square roots      ...    0.230 sec
Total time needed                          ...    0.506 sec

Time for model grid setup =    0.597 sec

------------------------------
INITIAL GUESS: MODEL POTENTIAL
------------------------------
Loading Hartree-Fock densities                     ... done
Calculating cut-offs                               ... done
Initializing the effective Hamiltonian             ... done
Setting up the integral package (SHARK)            ... done
Starting the Coulomb interaction                   ... done (   1.5 sec)
Reading the grid                                   ... done
Mapping shells                                     ... done
Starting the XC term evaluation                    ... done (   0.5 sec)
  promolecular density results
     # of electrons  =    281.986300582
     EX              =   -227.147402400
     EC              =     -3.197197869
     EX+EC           =   -230.344600269
Transforming the Hamiltonian                       ... done (   0.2 sec)
Diagonalizing the Hamiltonian                      ... done (   0.3 sec)
Back transforming the eigenvectors                 ... done (   0.1 sec)
Now organizing SCF variables                       ... done
                      ------------------
                      INITIAL GUESS DONE (   3.2 sec)
                      ------------------
-------------------
DFT GRID GENERATION
-------------------

General Integration Accuracy     IntAcc      ... 4.388
Radial Grid Type                 RadialGrid  ... OptM3 with GC (2021)
Angular Grid (max. ang.)         AngularGrid ... 4 (Lebedev-302)
Angular grid pruning method      GridPruning ... 4 (adaptive)
Weight generation scheme         WeightScheme... Becke
Basis function cutoff            BFCut       ... 1.0000e-11
Integration weight cutoff        WCut        ... 1.0000e-14
Angular grids for H and He will be reduced by one unit
Partially contracted basis set               ... off
Rotationally invariant grid construction     ... off

Total number of grid points                  ...   334610
Total number of batches                      ...     5264
Average number of points per batch           ...       63
Average number of grid points per atom       ...     4849
Time for grid setup =    2.415 sec

--------------------
COSX GRID GENERATION
--------------------

GRIDX 1
-------
General Integration Accuracy     IntAcc      ... 3.816
Radial Grid Type                 RadialGrid  ... OptM3 with GC (2021)
Angular Grid (max. ang.)         AngularGrid ... 1 (Lebedev-50)
Angular grid pruning method      GridPruning ... 4 (adaptive)
Weight generation scheme         WeightScheme... Becke
Basis function cutoff            BFCut       ... 1.0000e-11
Integration weight cutoff        WCut        ... 1.0000e-14
Angular grids for H and He will be reduced by one unit
Partially contracted basis set               ... on
Rotationally invariant grid construction     ... off

Total number of grid points                  ...    42430
Total number of batches                      ...      689
Average number of points per batch           ...       61
Average number of grid points per atom       ...      615
UseSFitting                                  ... on

GRIDX 2
-------
General Integration Accuracy     IntAcc      ... 4.020
Radial Grid Type                 RadialGrid  ... OptM3 with GC (2021)
Angular Grid (max. ang.)         AngularGrid ... 2 (Lebedev-110)
Angular grid pruning method      GridPruning ... 4 (adaptive)
Weight generation scheme         WeightScheme... Becke
Basis function cutoff            BFCut       ... 1.0000e-11
Integration weight cutoff        WCut        ... 1.0000e-14
Angular grids for H and He will be reduced by one unit
Partially contracted basis set               ... on
Rotationally invariant grid construction     ... off

Total number of grid points                  ...    92215
Total number of batches                      ...     1473
Average number of points per batch           ...       62
Average number of grid points per atom       ...     1336
UseSFitting                                  ... on

GRIDX 3
-------
General Integration Accuracy     IntAcc      ... 4.338
Radial Grid Type                 RadialGrid  ... OptM3 with GC (2021)
Angular Grid (max. ang.)         AngularGrid ... 3 (Lebedev-194)
Angular grid pruning method      GridPruning ... 4 (adaptive)
Weight generation scheme         WeightScheme... Becke
Basis function cutoff            BFCut       ... 1.0000e-11
Integration weight cutoff        WCut        ... 1.0000e-14
Angular grids for H and He will be reduced by one unit
Partially contracted basis set               ... on
Rotationally invariant grid construction     ... off

Total number of grid points                  ...   201173
Total number of batches                      ...     3181
Average number of points per batch           ...       63
Average number of grid points per atom       ...     2916
UseSFitting                                  ... on

Time for X-Grid setup             =    3.818 sec


--------------------
CPCM SOLVATION MODEL
--------------------
CPCM parameters:
  Epsilon                                         ...      37.2190
  Refrac                                          ...       1.4305
  Rsolv                                           ...       1.3000
  Surface type                                    ... GAUSSIAN VDW
  Epsilon function type                           ...         CPCM
Solvent:                                     ... N,N-DIMETHYLFORMAMIDE
SMD-CDS solvent descriptors:
  Soln                                       ...    1.4305
  Soln25                                     ...    1.4280
  Sola                                       ...    0.0000
  Solb                                       ...    0.7400
  Solg                                       ...   49.5600
  Solc                                       ...    0.0000
  Solh                                       ...    0.0000
Radii:
 Radius for C  used is    3.4960 Bohr (=   1.8500 Ang.)
 Radius for H  used is    2.2677 Bohr (=   1.2000 Ang.)
 Radius for N  used is    3.5716 Bohr (=   1.8900 Ang.)
Calculating surface                               ...        done! (  0.0s)
GEPOL surface points                              ...         3868
GEPOL Volume                                      ...    3768.8728
GEPOL Surface-area                                ...    2013.9385
Calculating surface distance matrix               ...        done! (  0.1s)
Performing Cholesky decomposition & store         ...        done! (  0.8s)
Overall time for CPCM initialization              ...                 0.9s
--------------
SCF ITERATIONS
--------------
ITER       Energy         Delta-E        Max-DP      RMS-DP      [F,P]     Damp
               ***  Starting incremental Fock matrix formation  ***
  0  -1660.8883757646   0.000000000000 0.07871833  0.00057610  0.2447288 0.7000
  1  -1661.2850303965  -0.396654631920 0.05388527  0.00048055  0.1379666 0.7000
                               ***Turning on DIIS***
  2  -1661.5169685191  -0.231938122557 0.11126283  0.00110129  0.0696889 0.0000
  3  -1661.9484694105  -0.431500891454 0.04039313  0.00028794  0.0519509 0.0000
  4  -1661.9802930158  -0.031823605286 0.00978124  0.00009794  0.0133062 0.0000
  5  -1661.9818866017  -0.001593585906 0.00891174  0.00005451  0.0066792 0.0000
                      *** Initiating the SOSCF procedure ***
                           *** Shutting down DIIS ***
                      *** Re-Reading the Fockian *** 
                      *** Removing any level shift *** 
ITER      Energy       Delta-E        Grad      Rot      Max-DP    RMS-DP
  6  -1661.98229175  -0.0004051514  0.001855  0.001855  0.004054  0.000027
               *** Restarting incremental Fock matrix formation ***
  7  -1661.98213184   0.0001599096  0.001158  0.003882  0.033657  0.000239
  8  -1661.98217425  -0.0000424113  0.000351  0.003083  0.014036  0.000102
  9  -1661.98218398  -0.0000097216  0.000163  0.000503  0.012138  0.000087
 10  -1661.98218716  -0.0000031790  0.000053  0.000228  0.001120  0.000008
 11  -1661.98218744  -0.0000002887  0.000016  0.000045  0.000426  0.000003
 12  -1661.98218754  -0.0000000990  0.000011  0.000046  0.000371  0.000003
 13  -1661.98218753   0.0000000174  0.000003  0.000017  0.000392  0.000001
                  ***Gradient check signals convergence***
              ***Rediagonalizing the Fockian in SOSCF/NRSCF***

               *****************************************************
               *                     SUCCESS                       *
               *           SCF CONVERGED AFTER  14 CYCLES          *
               *****************************************************

Old exchange energy                            =   -143.644937924 Eh
New exchange energy                            =   -143.644907385 Eh
Exchange energy change after final integration =      0.000030539 Eh
Total energy after final integration           =  -1661.982157030 Eh
Final COS-X integration done in                =   136.078 sec

SMD CDS free energy correction energy :                -2.59493     Kcal/mol
Total Energy after SMD CDS correction =             -1661.986292314 Eh

----------------
TOTAL SCF ENERGY
----------------

Total Energy       :        -1661.98629231 Eh          -45224.94621 eV

Components:
Nuclear Repulsion  :         4231.71362380 Eh          115150.78186 eV
Electronic Energy  :        -5893.69991611 Eh         -160375.72806 eV
One Electron Energy:       -10667.68221879 Eh         -290282.39084 eV
Two Electron Energy:         4773.98230269 Eh          129906.66278 eV
Max COSX asymmetry :            0.00000569 Eh               0.00015 eV
CPCM Dielectric    :           -0.05266512 Eh              -1.43309 eV
SMD CDS (Gcds)     :           -0.00413528 Eh              -0.11253 eV

Virial components:
Potential Energy   :        -3318.36462952 Eh          -90297.29219 eV
Kinetic Energy     :         1656.37833721 Eh           45072.34599 eV
Virial Ratio       :            2.00338567


DFT components:
N(Alpha)           :      140.999695236362 electrons
N(Beta)            :      140.999695236362 electrons
N(Total)           :      281.999390472725 electrons
E(X)               :      -86.842853939255 Eh       
E(C)               :       -7.008121674987 Eh       
E(XC)              :      -93.850975614243 Eh       
DFET-embed. en.    :        0.000000000000 Eh       
CPCM Solvation Model Properties:
Surface-charge          :           -0.08254663
Charge-correction       :            0.00097091 Eh               0.02642 eV
Free-energy (cav+disp)  :           -0.00413528 Eh              -0.11253 eV

---------------
SCF CONVERGENCE
---------------

  Last Energy change         ...   -4.2801e-08  Tolerance :   1.0000e-08
  Last MAX-Density change    ...    2.6645e-15  Tolerance :   1.0000e-07
  Last RMS-Density change    ...    1.1424e-17  Tolerance :   5.0000e-09
  Last Orbital Gradient      ...    1.7739e-06  Tolerance :   1.0000e-05
  Last Orbital Rotation      ...    7.2316e-06  Tolerance :   1.0000e-05

             **** THE GBW FILE WAS UPDATED (Me2-Acr_3_M06L_def2TZVP_coords.gbw) ****
             **** DENSITY Me2-Acr_3_M06L_def2TZVP_coords.scfp WAS UPDATED ****
             **** ENERGY FILE WAS UPDATED (Me2-Acr_3_M06L_def2TZVP_coords.en.tmp) ****
             **** THE GBW FILE WAS UPDATED (Me2-Acr_3_M06L_def2TZVP_coords.gbw) ****
             **** DENSITY Me2-Acr_3_M06L_def2TZVP_coords.scfp WAS UPDATED ****
----------------
ORBITAL ENERGIES
----------------

  NO   OCC          E(Eh)            E(eV) 
   0   2.0000     -14.946158      -406.7056 
   1   2.0000     -14.921835      -406.0438 
   2   2.0000     -14.921690      -406.0398 
   3   2.0000     -10.744523      -292.3733 
   4   2.0000     -10.744426      -292.3707 
   5   2.0000     -10.741622      -292.2944 
   6   2.0000     -10.741549      -292.2924 
   7   2.0000     -10.731487      -292.0186 
   8   2.0000     -10.728757      -291.9443 
   9   2.0000     -10.728552      -291.9387 
  10   2.0000     -10.718018      -291.6521 
  11   2.0000     -10.717740      -291.6445 
  12   2.0000     -10.709369      -291.4168 
  13   2.0000     -10.709310      -291.4151 
  14   2.0000     -10.709137      -291.4104 
  15   2.0000     -10.709067      -291.4085 
  16   2.0000     -10.706554      -291.3402 
  17   2.0000     -10.703912      -291.2682 
  18   2.0000     -10.702799      -291.2380 
  19   2.0000     -10.695178      -291.0306 
  20   2.0000     -10.695099      -291.0284 
  21   2.0000     -10.694951      -291.0244 
  22   2.0000     -10.694910      -291.0233 
  23   2.0000     -10.694813      -291.0207 
  24   2.0000     -10.694754      -291.0191 
  25   2.0000     -10.694420      -291.0100 
  26   2.0000     -10.694379      -291.0089 
  27   2.0000     -10.693353      -290.9809 
  28   2.0000     -10.692904      -290.9687 
  29   2.0000     -10.690946      -290.9154 
  30   2.0000     -10.690740      -290.9098 
  31   2.0000     -10.690546      -290.9045 
  32   2.0000     -10.690347      -290.8991 
  33   2.0000     -10.690172      -290.8944 
  34   2.0000     -10.689720      -290.8821 
  35   2.0000     -10.689486      -290.8757 
  36   2.0000     -10.689412      -290.8737 
  37   2.0000     -10.688542      -290.8500 
  38   2.0000     -10.683891      -290.7234 
  39   2.0000     -10.683812      -290.7213 
  40   2.0000     -10.662881      -290.1517 
  41   2.0000     -10.662789      -290.1492 
  42   2.0000      -1.202689       -32.7268 
  43   2.0000      -1.133159       -30.8348 
  44   2.0000      -1.133016       -30.8309 
  45   2.0000      -1.097515       -29.8649 
  46   2.0000      -1.094070       -29.7712 
  47   2.0000      -1.090154       -29.6646 
  48   2.0000      -1.070906       -29.1408 
  49   2.0000      -1.068832       -29.0844 
  50   2.0000      -1.032599       -28.0984 
  51   2.0000      -1.026597       -27.9351 
  52   2.0000      -1.001207       -27.2442 
  53   2.0000      -0.985502       -26.8169 
  54   2.0000      -0.973251       -26.4835 
  55   2.0000      -0.959628       -26.1128 
  56   2.0000      -0.958141       -26.0723 
  57   2.0000      -0.948040       -25.7975 
  58   2.0000      -0.941063       -25.6076 
  59   2.0000      -0.937857       -25.5204 
  60   2.0000      -0.924806       -25.1653 
  61   2.0000      -0.920824       -25.0569 
  62   2.0000      -0.894567       -24.3424 
  63   2.0000      -0.865580       -23.5536 
  64   2.0000      -0.844038       -22.9674 
  65   2.0000      -0.836806       -22.7707 
  66   2.0000      -0.811987       -22.0953 
  67   2.0000      -0.802818       -21.8458 
  68   2.0000      -0.802261       -21.8306 
  69   2.0000      -0.792327       -21.5603 
  70   2.0000      -0.785494       -21.3744 
  71   2.0000      -0.778123       -21.1738 
  72   2.0000      -0.776381       -21.1264 
  73   2.0000      -0.758377       -20.6365 
  74   2.0000      -0.736770       -20.0485 
  75   2.0000      -0.717876       -19.5344 
  76   2.0000      -0.716632       -19.5006 
  77   2.0000      -0.708366       -19.2756 
  78   2.0000      -0.702008       -19.1026 
  79   2.0000      -0.687398       -18.7050 
  80   2.0000      -0.672745       -18.3063 
  81   2.0000      -0.653718       -17.7886 
  82   2.0000      -0.653100       -17.7717 
  83   2.0000      -0.644719       -17.5437 
  84   2.0000      -0.640284       -17.4230 
  85   2.0000      -0.629847       -17.1390 
  86   2.0000      -0.615040       -16.7361 
  87   2.0000      -0.603157       -16.4127 
  88   2.0000      -0.600784       -16.3482 
  89   2.0000      -0.599395       -16.3104 
  90   2.0000      -0.592955       -16.1351 
  91   2.0000      -0.589976       -16.0541 
  92   2.0000      -0.582991       -15.8640 
  93   2.0000      -0.576735       -15.6938 
  94   2.0000      -0.574911       -15.6441 
  95   2.0000      -0.571343       -15.5470 
  96   2.0000      -0.569568       -15.4987 
  97   2.0000      -0.566948       -15.4274 
  98   2.0000      -0.563604       -15.3365 
  99   2.0000      -0.560961       -15.2645 
 100   2.0000      -0.556390       -15.1402 
 101   2.0000      -0.550255       -14.9732 
 102   2.0000      -0.546677       -14.8758 
 103   2.0000      -0.544857       -14.8263 
 104   2.0000      -0.543005       -14.7759 
 105   2.0000      -0.539041       -14.6681 
 106   2.0000      -0.532086       -14.4788 
 107   2.0000      -0.531299       -14.4574 
 108   2.0000      -0.528843       -14.3905 
 109   2.0000      -0.524471       -14.2716 
 110   2.0000      -0.522090       -14.2068 
 111   2.0000      -0.517451       -14.0805 
 112   2.0000      -0.508014       -13.8238 
 113   2.0000      -0.502712       -13.6795 
 114   2.0000      -0.502118       -13.6633 
 115   2.0000      -0.494748       -13.4628 
 116   2.0000      -0.494567       -13.4578 
 117   2.0000      -0.492412       -13.3992 
 118   2.0000      -0.486841       -13.2476 
 119   2.0000      -0.477067       -12.9816 
 120   2.0000      -0.476189       -12.9578 
 121   2.0000      -0.472865       -12.8673 
 122   2.0000      -0.465129       -12.6568 
 123   2.0000      -0.462640       -12.5891 
 124   2.0000      -0.461549       -12.5594 
 125   2.0000      -0.460559       -12.5324 
 126   2.0000      -0.456643       -12.4259 
 127   2.0000      -0.448018       -12.1912 
 128   2.0000      -0.444070       -12.0838 
 129   2.0000      -0.433550       -11.7975 
 130   2.0000      -0.399052       -10.8588 
 131   2.0000      -0.391154       -10.6438 
 132   2.0000      -0.366071        -9.9613 
 133   2.0000      -0.365813        -9.9543 
 134   2.0000      -0.362991        -9.8775 
 135   2.0000      -0.352293        -9.5864 
 136   2.0000      -0.344245        -9.3674 
 137   2.0000      -0.339785        -9.2460 
 138   2.0000      -0.319753        -8.7009 
 139   2.0000      -0.308190        -8.3863 
 140   2.0000      -0.269090        -7.3223 
 141   0.0000       0.018525         0.5041 
 142   0.0000       0.030285         0.8241 
 143   0.0000       0.037669         1.0250 
 144   0.0000       0.063445         1.7264 
 145   0.0000       0.066997         1.8231 
 146   0.0000       0.074259         2.0207 
 147   0.0000       0.085375         2.3232 
 148   0.0000       0.095885         2.6092 
 149   0.0000       0.101477         2.7613 
 150   0.0000       0.114968         3.1284 
 151   0.0000       0.118829         3.2335 
 152   0.0000       0.126433         3.4404 
 153   0.0000       0.126995         3.4557 
 154   0.0000       0.127984         3.4826 
 155   0.0000       0.137513         3.7419 
 156   0.0000       0.140224         3.8157 
 157   0.0000       0.141558         3.8520 
 158   0.0000       0.142458         3.8765 
 159   0.0000       0.146249         3.9796 
 160   0.0000       0.150424         4.0933 
 161   0.0000       0.151553         4.1240 
 162   0.0000       0.154127         4.1940 
 163   0.0000       0.162926         4.4334 
 164   0.0000       0.167507         4.5581 
 165   0.0000       0.173643         4.7251 
 166   0.0000       0.177137         4.8202 
 167   0.0000       0.178362         4.8535 
 168   0.0000       0.182069         4.9544 
 169   0.0000       0.182809         4.9745 
 170   0.0000       0.185307         5.0425 
 171   0.0000       0.188843         5.1387 
 172   0.0000       0.190345         5.1795 
 173   0.0000       0.193802         5.2736 
 174   0.0000       0.197333         5.3697 
 175   0.0000       0.199655         5.4329 
 176   0.0000       0.200735         5.4623 
 177   0.0000       0.207413         5.6440 
 178   0.0000       0.209272         5.6946 
 179   0.0000       0.212622         5.7857 
 180   0.0000       0.216540         5.8923 
 181   0.0000       0.217147         5.9089 
 182   0.0000       0.218990         5.9590 
 183   0.0000       0.227352         6.1866 
 184   0.0000       0.231654         6.3036 
 185   0.0000       0.234010         6.3677 
 186   0.0000       0.235079         6.3968 
 187   0.0000       0.246474         6.7069 
 188   0.0000       0.247317         6.7299 
 189   0.0000       0.252692         6.8761 
 190   0.0000       0.255233         6.9452 
 191   0.0000       0.257412         7.0045 
 192   0.0000       0.260045         7.0762 
 193   0.0000       0.266782         7.2595 
 194   0.0000       0.269953         7.3458 
 195   0.0000       0.271614         7.3910 
 196   0.0000       0.273385         7.4392 
 197   0.0000       0.279253         7.5989 
 198   0.0000       0.279802         7.6138 
 199   0.0000       0.281468         7.6591 
 200   0.0000       0.283861         7.7243 
 201   0.0000       0.287648         7.8273 
 202   0.0000       0.289467         7.8768 
 203   0.0000       0.291514         7.9325 
 204   0.0000       0.292320         7.9544 
 205   0.0000       0.295927         8.0526 
 206   0.0000       0.298722         8.1286 
 207   0.0000       0.300904         8.1880 
 208   0.0000       0.304543         8.2870 
 209   0.0000       0.306127         8.3301 
 210   0.0000       0.308611         8.3977 
 211   0.0000       0.309973         8.4348 
 212   0.0000       0.316735         8.6188 
 213   0.0000       0.319842         8.7033 
 214   0.0000       0.321499         8.7484 
 215   0.0000       0.325045         8.8449 
 216   0.0000       0.327067         8.8999 
 217   0.0000       0.330428         8.9914 
 218   0.0000       0.332554         9.0492 
 219   0.0000       0.335312         9.1243 
 220   0.0000       0.338057         9.1990 
 221   0.0000       0.338487         9.2107 
 222   0.0000       0.340606         9.2684 
 223   0.0000       0.342490         9.3196 
 224   0.0000       0.346393         9.4258 
 225   0.0000       0.348585         9.4855 
 226   0.0000       0.350954         9.5500 
 227   0.0000       0.352523         9.5926 
 228   0.0000       0.355135         9.6637 
 229   0.0000       0.355756         9.6806 
 230   0.0000       0.360388         9.8066 
 231   0.0000       0.363892         9.9020 
 232   0.0000       0.365437         9.9440 
 233   0.0000       0.372211        10.1284 
 234   0.0000       0.373071        10.1518 
 235   0.0000       0.373905        10.1745 
 236   0.0000       0.377148        10.2627 
 237   0.0000       0.379719        10.3327 
 238   0.0000       0.381414        10.3788 
 239   0.0000       0.382942        10.4204 
 240   0.0000       0.385978        10.5030 
 241   0.0000       0.390593        10.6286 
 242   0.0000       0.391465        10.6523 
 243   0.0000       0.394501        10.7349 
 244   0.0000       0.395539        10.7632 
 245   0.0000       0.399149        10.8614 
 246   0.0000       0.404677        11.0118 
 247   0.0000       0.406834        11.0705 
 248   0.0000       0.409718        11.1490 
 249   0.0000       0.412075        11.2131 
 250   0.0000       0.414786        11.2869 
 251   0.0000       0.417921        11.3722 
 252   0.0000       0.419382        11.4120 
 253   0.0000       0.422798        11.5049 
 254   0.0000       0.424562        11.5529 
 255   0.0000       0.427228        11.6255 
 256   0.0000       0.432019        11.7558 
 257   0.0000       0.434628        11.8268 
 258   0.0000       0.436023        11.8648 
 259   0.0000       0.440220        11.9790 
 260   0.0000       0.442597        12.0437 
 261   0.0000       0.443364        12.0645 
 262   0.0000       0.444675        12.1002 
 263   0.0000       0.446604        12.1527 
 264   0.0000       0.447571        12.1790 
 265   0.0000       0.449649        12.2356 
 266   0.0000       0.453065        12.3285 
 267   0.0000       0.454664        12.3720 
 268   0.0000       0.460819        12.5395 
 269   0.0000       0.461413        12.5557 
 270   0.0000       0.465298        12.6614 
 271   0.0000       0.466579        12.6963 
 272   0.0000       0.471065        12.8183 
 273   0.0000       0.473418        12.8824 
 274   0.0000       0.476137        12.9563 
 275   0.0000       0.478741        13.0272 
 276   0.0000       0.481287        13.0965 
 277   0.0000       0.486497        13.2383 
 278   0.0000       0.489144        13.3103 
 279   0.0000       0.491722        13.3804 
 280   0.0000       0.494256        13.4494 
 281   0.0000       0.496804        13.5187 
 282   0.0000       0.499794        13.6001 
 283   0.0000       0.501808        13.6549 
 284   0.0000       0.504542        13.7293 
 285   0.0000       0.508718        13.8429 
 286   0.0000       0.509679        13.8691 
 287   0.0000       0.511840        13.9279 
 288   0.0000       0.514143        13.9906 
 289   0.0000       0.517114        14.0714 
 290   0.0000       0.518532        14.1100 
 291   0.0000       0.520926        14.1751 
 292   0.0000       0.523635        14.2488 
 293   0.0000       0.524733        14.2787 
 294   0.0000       0.527579        14.3562 
 295   0.0000       0.530614        14.4387 
 296   0.0000       0.532653        14.4942 
 297   0.0000       0.534166        14.5354 
 298   0.0000       0.536367        14.5953 
 299   0.0000       0.538200        14.6452 
 300   0.0000       0.538724        14.6594 
 301   0.0000       0.544217        14.8089 
 302   0.0000       0.545453        14.8425 
 303   0.0000       0.545809        14.8522 
 304   0.0000       0.550351        14.9758 
 305   0.0000       0.551955        15.0195 
 306   0.0000       0.554422        15.0866 
 307   0.0000       0.555887        15.1265 
 308   0.0000       0.560486        15.2516 
 309   0.0000       0.565150        15.3785 
 310   0.0000       0.568817        15.4783 
 311   0.0000       0.570025        15.5112 
 312   0.0000       0.572868        15.5885 
 313   0.0000       0.574314        15.6279 
 314   0.0000       0.578024        15.7288 
 315   0.0000       0.579458        15.7678 
 316   0.0000       0.581227        15.8160 
 317   0.0000       0.582468        15.8498 
 318   0.0000       0.583090        15.8667 
 319   0.0000       0.584898        15.9159 
 320   0.0000       0.587765        15.9939 
 321   0.0000       0.595413        16.2020 
 322   0.0000       0.600804        16.3487 
 323   0.0000       0.604947        16.4614 
 324   0.0000       0.605462        16.4755 
 325   0.0000       0.608539        16.5592 
 326   0.0000       0.608966        16.5708 
 327   0.0000       0.614625        16.7248 
 328   0.0000       0.617281        16.7971 
 329   0.0000       0.619279        16.8514 
 330   0.0000       0.621072        16.9002 
 331   0.0000       0.623147        16.9567 
 332   0.0000       0.624089        16.9823 
 333   0.0000       0.626997        17.0614 
 334   0.0000       0.631379        17.1807 
 335   0.0000       0.634154        17.2562 
 336   0.0000       0.636462        17.3190 
 337   0.0000       0.641435        17.4543 
 338   0.0000       0.644263        17.5313 
 339   0.0000       0.650433        17.6992 
 340   0.0000       0.653315        17.7776 
 341   0.0000       0.656329        17.8596 
 342   0.0000       0.657980        17.9046 
 343   0.0000       0.662346        18.0233 
 344   0.0000       0.662593        18.0301 
 345   0.0000       0.664652        18.0861 
 346   0.0000       0.665675        18.1139 
 347   0.0000       0.672219        18.2920 
 348   0.0000       0.673547        18.3281 
 349   0.0000       0.676456        18.4073 
 350   0.0000       0.681758        18.5516 
 351   0.0000       0.684862        18.6360 
 352   0.0000       0.691287        18.8109 
 353   0.0000       0.693877        18.8814 
 354   0.0000       0.695960        18.9380 
 355   0.0000       0.703479        19.1426 
 356   0.0000       0.707257        19.2454 
 357   0.0000       0.707852        19.2616 
 358   0.0000       0.710381        19.3305 
 359   0.0000       0.714621        19.4458 
 360   0.0000       0.715717        19.4756 
 361   0.0000       0.720879        19.6161 
 362   0.0000       0.723570        19.6893 
 363   0.0000       0.725404        19.7392 
 364   0.0000       0.732281        19.9264 
 365   0.0000       0.734099        19.9759 
 366   0.0000       0.739126        20.1126 
 367   0.0000       0.744436        20.2571 
 368   0.0000       0.749774        20.4024 
[...]
   135a -> 147a  :     0.072908 
   136a -> 141a  :     0.015098 
   136a -> 144a  :     0.129310 
   136a -> 146a  :     0.030174 
   136a -> 148a  :     0.099355 
   136a -> 149a  :     0.045046 
   137a -> 145a  :     0.027274 
   137a -> 147a  :     0.013975 
   138a -> 142a  :     0.013407 
   140a -> 141a  :     0.051027 
   140a -> 148a  :     0.043976 

STATE 18:  E=   0.215869 au      5.874 eV    47377.8 cm**-1 <S**2> =   0.000000
   132a -> 141a  :     0.063501 
   132a -> 142a  :     0.055041 
   133a -> 141a  :     0.067675 
   133a -> 142a  :     0.051550 
   134a -> 145a  :     0.032524 
   135a -> 141a  :     0.103403 
   135a -> 149a  :     0.015474 
   136a -> 142a  :     0.062226 
   137a -> 141a  :     0.021187 
   138a -> 144a  :     0.021037 
   138a -> 146a  :     0.069375 
   139a -> 141a  :     0.020068 
   140a -> 142a  :     0.012058 
   140a -> 147a  :     0.304841 

STATE 19:  E=   0.218376 au      5.942 eV    47928.0 cm**-1 <S**2> =   0.000000
   132a -> 141a  :     0.045829 
   132a -> 142a  :     0.034052 
   133a -> 141a  :     0.034466 
   133a -> 142a  :     0.033687 
   134a -> 146a  :     0.027699 
   135a -> 142a  :     0.023936 
   135a -> 145a  :     0.025223 
   135a -> 147a  :     0.021588 
   136a -> 141a  :     0.060165 
   136a -> 149a  :     0.035797 
   138a -> 147a  :     0.075601 
   139a -> 147a  :     0.013132 
   140a -> 144a  :     0.105321 
   140a -> 148a  :     0.172172 
   140a -> 149a  :     0.152952 
   140a -> 150a  :     0.017763 

STATE 20:  E=   0.226280 au      6.157 eV    49662.8 cm**-1 <S**2> =   0.000000
   135a -> 144a  :     0.035567 
   135a -> 146a  :     0.012256 
   137a -> 144a  :     0.471937 
   137a -> 146a  :     0.136241 
   137a -> 148a  :     0.032632 
   138a -> 141a  :     0.035610 
   138a -> 144a  :     0.029651 
   138a -> 146a  :     0.011053 
   138a -> 149a  :     0.012470 
   139a -> 141a  :     0.011155 
   139a -> 143a  :     0.069159 
   140a -> 142a  :     0.048823 

STATE 21:  E=   0.233205 au      6.346 eV    51182.5 cm**-1 <S**2> =   0.000000
   130a -> 143a  :     0.250037 
   131a -> 143a  :     0.075613 
   138a -> 151a  :     0.025364 
   139a -> 141a  :     0.019893 
   139a -> 148a  :     0.035244 
   139a -> 151a  :     0.472686 
   140a -> 142a  :     0.012321 

STATE 22:  E=   0.230739 au      6.279 eV    50641.3 cm**-1 <S**2> =   0.000000
   134a -> 150a  :     0.012459 
   140a -> 150a  :     0.586787 
   140a -> 154a  :     0.071085 
   140a -> 156a  :     0.065620 
   140a -> 161a  :     0.059522 
   140a -> 167a  :     0.010524 

STATE 23:  E=   0.227158 au      6.181 eV    49855.5 cm**-1 <S**2> =   0.000000
   132a -> 145a  :     0.027334 
   132a -> 146a  :     0.035317 
   132a -> 147a  :     0.026139 
   133a -> 145a  :     0.018196 
   133a -> 146a  :     0.033729 
   133a -> 147a  :     0.020535 
   135a -> 144a  :     0.031535 
   136a -> 145a  :     0.049111 
   136a -> 147a  :     0.014085 
   137a -> 144a  :     0.013780 
   137a -> 146a  :     0.013288 
   138a -> 141a  :     0.014380 
   139a -> 141a  :     0.450231 
   139a -> 148a  :     0.045751 
   139a -> 149a  :     0.021827 
   140a -> 142a  :     0.010951 

STATE 24:  E=   0.229120 au      6.235 eV    50286.0 cm**-1 <S**2> =   0.000000
   127a -> 141a  :     0.024624 
   130a -> 142a  :     0.012572 
   131a -> 142a  :     0.062070 
   132a -> 145a  :     0.015446 
   132a -> 146a  :     0.016928 
   133a -> 144a  :     0.011678 
   133a -> 145a  :     0.046562 
   133a -> 146a  :     0.051693 
   133a -> 147a  :     0.028119 
   134a -> 141a  :     0.027106 
   134a -> 148a  :     0.013870 
   135a -> 145a  :     0.034173 
   135a -> 147a  :     0.024566 
   136a -> 141a  :     0.028594 
   136a -> 144a  :     0.017254 
   136a -> 148a  :     0.010640 
   136a -> 149a  :     0.014578 
   140a -> 141a  :     0.040261 
   140a -> 148a  :     0.107897 
   140a -> 149a  :     0.233771 
   140a -> 170a  :     0.013763 

STATE 25:  E=   0.230794 au      6.280 eV    50653.3 cm**-1 <S**2> =   0.000000
   130a -> 143a  :     0.011405 
   132a -> 144a  :     0.017543 
   132a -> 145a  :     0.059377 
   132a -> 146a  :     0.071478 
   132a -> 147a  :     0.047266 
   133a -> 145a  :     0.022717 
   133a -> 146a  :     0.039771 
   133a -> 147a  :     0.021349 
   135a -> 144a  :     0.011398 
   136a -> 145a  :     0.020366 
   138a -> 141a  :     0.180318 
   138a -> 148a  :     0.022051 
   138a -> 149a  :     0.010919 
   139a -> 141a  :     0.275283 
   139a -> 148a  :     0.011870 
   139a -> 149a  :     0.020312 
   140a -> 142a  :     0.012289 

STATE 26:  E=   0.254082 au      6.914 eV    55764.5 cm**-1 <S**2> =   0.000000
   117a -> 157a  :     0.024053 
   117a -> 158a  :     0.012459 
   119a -> 157a  :     0.031762 
   119a -> 158a  :     0.023913 
   124a -> 141a  :     0.019476 
   124a -> 142a  :     0.017658 
   125a -> 141a  :     0.018092 
   125a -> 142a  :     0.022589 
   127a -> 157a  :     0.025452 
   127a -> 158a  :     0.013308 
   131a -> 156a  :     0.012424 
   131a -> 157a  :     0.041862 
   131a -> 158a  :     0.032233 
   134a -> 156a  :     0.018828 
   134a -> 157a  :     0.082177 
   134a -> 158a  :     0.041752 
   138a -> 156a  :     0.018287 
   138a -> 157a  :     0.060997 
   138a -> 158a  :     0.046506 
   140a -> 156a  :     0.011726 
   140a -> 157a  :     0.044545 
   140a -> 158a  :     0.021298 

STATE 27:  E=   0.252273 au      6.865 eV    55367.4 cm**-1 <S**2> =   0.000000
   117a -> 157a  :     0.019151 
   117a -> 158a  :     0.021200 
   119a -> 157a  :     0.019555 
   119a -> 158a  :     0.023019 
   120a -> 158a  :     0.011110 
   124a -> 141a  :     0.014921 
   124a -> 142a  :     0.017175 
   125a -> 141a  :     0.020299 
   125a -> 142a  :     0.022609 
   127a -> 157a  :     0.017870 
   127a -> 158a  :     0.019395 
   131a -> 157a  :     0.032301 
   131a -> 158a  :     0.038440 
   133a -> 145a  :     0.013122 
   133a -> 146a  :     0.015902 
   133a -> 147a  :     0.010183 
   134a -> 157a  :     0.061792 
   134a -> 158a  :     0.066943 
   138a -> 157a  :     0.050522 
   138a -> 158a  :     0.058593 
   140a -> 157a  :     0.033467 
   140a -> 158a  :     0.033764 

STATE 28:  E=   0.239151 au      6.508 eV    52487.7 cm**-1 <S**2> =   0.000000
   131a -> 157a  :     0.010382 
   132a -> 144a  :     0.019557 
   132a -> 145a  :     0.057798 
   132a -> 146a  :     0.077913 
   132a -> 147a  :     0.043195 
   133a -> 144a  :     0.015595 
   133a -> 145a  :     0.068116 
   133a -> 146a  :     0.080056 
   133a -> 147a  :     0.052711 
   134a -> 141a  :     0.059064 
   134a -> 158a  :     0.018706 
   138a -> 142a  :     0.077748 
   138a -> 145a  :     0.012903 
   138a -> 157a  :     0.017158 
   139a -> 142a  :     0.011079 
   140a -> 141a  :     0.056416 
   140a -> 148a  :     0.060031 

STATE 29:  E=   0.238743 au      6.497 eV    52398.1 cm**-1 <S**2> =   0.000000
   126a -> 143a  :     0.055945 
   130a -> 144a  :     0.174915 
   130a -> 146a  :     0.056352 
   130a -> 148a  :     0.012417 
   131a -> 144a  :     0.051023 
   131a -> 146a  :     0.015238 
   135a -> 151a  :     0.034074 
   137a -> 148a  :     0.022563 
   137a -> 151a  :     0.389801 
   138a -> 151a  :     0.015866 

STATE 30:  E=   0.246681 au      6.713 eV    54140.2 cm**-1 <S**2> =   0.000000
   127a -> 142a  :     0.011968 
   130a -> 144a  :     0.012082 
   131a -> 141a  :     0.049827 
   132a -> 144a  :     0.015573 
   132a -> 145a  :     0.048486 
   132a -> 146a  :     0.047281 
   132a -> 147a  :     0.023972 
   133a -> 144a  :     0.013215 
   133a -> 145a  :     0.041665 
   133a -> 146a  :     0.053727 
   133a -> 147a  :     0.021113 
   134a -> 142a  :     0.028604 
   135a -> 144a  :     0.018551 
   135a -> 148a  :     0.021319 
   136a -> 142a  :     0.020643 
   136a -> 145a  :     0.059752 
   136a -> 147a  :     0.042743 
   137a -> 151a  :     0.033662 
   138a -> 141a  :     0.035997 
   138a -> 144a  :     0.014557 
   138a -> 148a  :     0.079068 
   138a -> 149a  :     0.016057 
   140a -> 142a  :     0.014926 
   140a -> 145a  :     0.011624 
   140a -> 152a  :     0.033339 
   140a -> 153a  :     0.026167 


-------------------------
TD-DFT-EXCITATION SPECTRA
-------------------------

Center of mass = (  0.0001, -0.0135, -0.0045)
Calculating the Dipole integrals                  ... done
Transforming integrals                            ... done
Calculating the Linear Momentum integrals         ... done
Transforming integrals                            ... done
Calculating angular momentum integrals            ... done
Transforming integrals                            ... done

-----------------------------------------------------------------------------
         ABSORPTION SPECTRUM VIA TRANSITION ELECTRIC DIPOLE MOMENTS
-----------------------------------------------------------------------------
State   Energy    Wavelength  fosc         T2        TX        TY        TZ  
        (cm-1)      (nm)                 (au**2)    (au)      (au)      (au) 
-----------------------------------------------------------------------------
   1   29883.3    334.6   1.609834246  17.73490   4.21122   0.01599   0.01543
   2   34460.7    290.2   0.538181505   5.14139  -0.01755   2.25378  -0.24813
   3   37378.8    267.5   0.106046958   0.93400   0.00365  -0.96238   0.08841
   4   35766.3    279.6   0.112293835   1.03361   0.02180  -1.00767   0.13316
   5   36363.6    275.0   0.003538129   0.03203   0.03224  -0.16966  -0.04697
   6   35542.1    281.4   0.055956274   0.51830  -0.71531  -0.08052  -0.01223
   7   35359.8    282.8   0.023298312   0.21692   0.46295  -0.05013   0.00888
   8   39561.7    252.8   0.003474586   0.02891  -0.00169   0.16486  -0.04160
   9   39658.3    252.2   0.008044844   0.06678  -0.16374  -0.03441  -0.19694
  10   42147.5    237.3   0.256678816   2.00491  -1.41590  -0.00009   0.01187
  11   46000.2    217.4   0.356465193   2.55113  -0.00224  -0.41612  -1.54207
  12   46443.9    215.3   0.989660982   7.01509  -0.02665   0.87649   2.49923
  13   44664.2    223.9   0.062063706   0.45746  -0.37489  -0.13365  -0.54686
  14   45694.5    218.8   0.024182859   0.17423   0.00112  -0.08546   0.40856
  15   44637.5    224.0   0.068115047   0.50236   0.23135  -0.15034  -0.65287
  16   47682.2    209.7   0.136654330   0.94350   0.00318   0.80146  -0.54877
  17   49568.9    201.7   1.500281650   9.96412  -3.15199   0.04046   0.16576
  18   47377.8    211.1   0.716884641   4.98139  -0.01567  -2.17836   0.48568
  19   47928.0    208.6   0.135771260   0.93260   0.71881  -0.23011  -0.60246
  20   49662.8    201.4   0.768302369   5.09303  -0.02489  -2.21578   0.42745
  21   51182.5    195.4   0.003918609   0.02520  -0.04168  -0.15307  -0.00598
  22   50641.3    197.5   0.028754263   0.18693   0.19127   0.33140   0.20129
  23   49855.5    200.6   0.142221444   0.93913   0.12405  -0.83016   0.48433
  24   50286.0    198.9   0.041653156   0.27269   0.47018   0.19813  -0.11122
  25   50653.3    197.4   0.100764423   0.65490  -0.07495  -0.80233   0.07444
  26   55764.5    179.3   0.021531538   0.12711   0.35619   0.01440  -0.00582
  27   55367.4    180.6   0.126603529   0.75278  -0.86672   0.03924  -0.00579
  28   52487.7    190.5   0.855307912   5.36464   2.31594  -0.01568   0.02843
  29   52398.1    190.8   0.004945185   0.03107  -0.00648  -0.16211  -0.06892
  30   54140.2    184.7   0.006813740   0.04143  -0.02011  -0.20219  -0.01218

-----------------------------------------------------------------------------
         ABSORPTION SPECTRUM VIA TRANSITION VELOCITY DIPOLE MOMENTS
-----------------------------------------------------------------------------
State   Energy    Wavelength   fosc        P2         PX        PY        PZ  
        (cm-1)      (nm)                 (au**2)     (au)      (au)      (au) 
-----------------------------------------------------------------------------
   1   29883.3    334.6   1.802477435   0.36813  -0.60673  -0.00233  -0.00218
   2   34460.7    290.2   0.579233813   0.13642   0.00287  -0.36711   0.04052
   3   37378.8    267.5   0.112248906   0.02868  -0.00065   0.16859  -0.01591
   4   35766.3    279.6   0.128588850   0.03143  -0.00389   0.17576  -0.02297
   5   36363.6    275.0   0.003775581   0.00094  -0.00575   0.02930   0.00684
   6   35542.1    281.4   0.068815068   0.01672   0.12846   0.01443   0.00253
   7   35359.8    282.8   0.029525923   0.00714  -0.08396   0.00909  -0.00194
   8   39561.7    252.8   0.003781457   0.00102   0.00033  -0.03098   0.00790
   9   39658.3    252.2   0.009180989   0.00249   0.03235   0.00652   0.03741
  10   42147.5    237.3   0.270048230   0.07779   0.27890   0.00008  -0.00233
  11   46000.2    217.4   0.378857004   0.11911   0.00050   0.09137   0.33280
  12   46443.9    215.3   1.045583566   0.33189   0.00577  -0.19036  -0.54371
  13   44664.2    223.9   0.072866595   0.02224   0.08344   0.02933   0.12008
  14   45694.5    218.8   0.027063433   0.00845  -0.00027   0.01850  -0.09005
  15   44637.5    224.0   0.084791974   0.02587  -0.05460   0.03394   0.14743
  16   47682.2    209.7   0.150218370   0.04895  -0.00074  -0.18278   0.12467
  17   49568.9    201.7   1.568012030   0.53121   0.72776  -0.00948  -0.03856
  18   47377.8    211.1   0.829319589   0.26854   0.00370   0.50585  -0.11241
  19   47928.0    208.6   0.156374856   0.05122  -0.16833   0.05406   0.14130
  20   49662.8    201.4   0.831612623   0.28227   0.00585   0.52167  -0.10048
  21   51182.5    195.4   0.003880702   0.00136   0.00985   0.03550   0.00070
  22   50641.3    197.5   0.030565968   0.01058  -0.04627  -0.08024  -0.04471
  23   49855.5    200.6   0.162006026   0.05520  -0.03030   0.20107  -0.11770
  24   50286.0    198.9   0.048024369   0.01651  -0.11574  -0.04856   0.02740
  25   50653.3    197.4   0.115185613   0.03988   0.01853   0.19803  -0.01778
  26   55764.5    179.3   0.020810778   0.00793  -0.08897  -0.00361   0.00141
  27   55367.4    180.6   0.124209708   0.04700   0.21657  -0.00982   0.00156
  28   52487.7    190.5   0.933656188   0.33493  -0.57867   0.00389  -0.00718
  29   52398.1    190.8   0.005744658   0.00206   0.00163   0.04148   0.01828
  30   54140.2    184.7   0.006914838   0.00256   0.00507   0.05024   0.00296

-------------------------------------------------------------------
                             CD SPECTRUM
-------------------------------------------------------------------
State  Energy     Wavelength     R         MX        MY        MZ   
       (cm-1)       (nm)     (1e40*cgs)   (au)      (au)      (au)  
-------------------------------------------------------------------
   1   29883.3    334.6     56.14449   0.03330  -0.38910  -0.96617
   2   34460.7    290.2     30.40265   0.14120   0.02945  -0.00239
   3   37378.8    267.5    -15.66543   0.14969   0.03499  -0.00114
   4   35766.3    279.6    -33.17829  -0.15523   0.06519  -0.00975
   5   36363.6    275.0     -2.88275  -0.09865   0.01583   0.00528
   6   35542.1    281.4     -1.66750   0.02007  -0.10029  -0.22422
   7   35359.8    282.8      0.22427  -0.01942  -0.16827   0.11639
   8   39561.7    252.8     10.85110   0.00247   0.13402  -0.02226
   9   39658.3    252.2    -10.01534   0.02449   0.03679   0.08108
  10   42147.5    237.3      9.94054  -0.01549   0.06535  -0.07109
  11   46000.2    217.4     51.13092  -1.57219   0.04829  -0.08108
  12   46443.9    215.3    142.29621   2.55804  -0.02677   0.15744
  13   44664.2    223.9    -72.29014  -0.06040   0.08461   0.30112
  14   45694.5    218.8    -61.48417   0.33839   0.82352  -0.14788
  15   44637.5    224.0    -627.99091   0.14934   0.38320   2.00496
  16   47682.2    209.7    -12.88020  -0.37219  -0.03365  -0.00151
  17   49568.9    201.7     96.95124  -0.05714   0.26833   0.08855
  18   47377.8    211.1    997.74866  -0.16910  -0.93376   0.16396
  19   47928.0    208.6    -760.07749   0.24775   0.42214   2.81043
  20   49662.8    201.4     73.62271   0.29689  -0.08304  -0.04784
  21   51182.5    195.4    -13.34506   0.96482  -0.06999  -0.20034
  22   50641.3    197.5    133.11941   0.30531   0.20315   0.77820
  23   49855.5    200.6     42.97813   0.11349  -0.04515   0.08177
  24   50286.0    198.9     -7.25989   0.00678  -0.02932   0.11487
  25   50653.3    197.4     -6.36497  -0.06898   0.02820   0.05310
  26   55764.5    179.3     22.07369   0.12831   0.01953  -0.14382
  27   55367.4    180.6     48.97960  -0.11292   0.19894   0.30826
  28   52487.7    190.5    -92.51386  -0.07667  -0.33187  -0.83995
  29   52398.1    190.8     -1.16169  -0.14524   0.02016   0.00200
  30   54140.2    184.7     -4.29793  -0.12282   0.05852  -0.02015

Total run time:    23441.822 sec

           *** ORCA-CIS/TD-DFT FINISHED WITHOUT ERROR ***

Maximum memory used throughout the entire CIS-calculation: 4237.1 MB

-----------------------
CIS/TD-DFT TOTAL ENERGY
-----------------------

    E(SCF)  =  -1661.986292314 Eh
    DE(CIS) =      0.136158147 Eh (Root  1)
    ----------------------------- ---------
    E(tot)  =  -1661.850134167 Eh


-------------------------   --------------------
FINAL SINGLE POINT ENERGY     -1661.850134166653
-------------------------   --------------------


                            ***************************************
                            *     ORCA property calculations      *
                            ***************************************


  WARNING: The energy has been calculated at the MP2 level but the densities
           used in the property calculations are still SCF densities
           MP2 response densities have not been calculated 
           use %mp2 Density relaxed end
           or  %mp2 Density unrelaxed end

                                    ---------------------
                                    Active property flags
                                    ---------------------
   (+) Dipole Moment


------------------------------------------------------------------------------
                       ORCA ELECTRIC PROPERTIES CALCULATION
------------------------------------------------------------------------------

Dipole Moment Calculation                       ... on
Quadrupole Moment Calculation                   ... off
Polarizability Calculation                      ... off
GBWName                                         ... Me2-Acr_3_M06L_def2TZVP_coords.gbw
Electron density                                ... Me2-Acr_3_M06L_def2TZVP_coords.scfp
The origin for moment calculation is the CENTER OF MASS  = ( 0.000053, -0.013511 -0.004462)

-------------
DIPOLE MOMENT
-------------
                                X             Y             Z
Electronic contribution:      0.02216      -0.52470      -1.80342
Nuclear contribution   :     -0.01502       3.81011       1.25834
                        -----------------------------------------
Total Dipole Moment    :      0.00714       3.28541      -0.54508
                        -----------------------------------------
Magnitude (a.u.)       :      3.33033
Magnitude (Debye)      :      8.46503



--------------------
Rotational spectrum 
--------------------
 
Rotational constants in cm-1:     0.003437     0.001388     0.001054 
Rotational constants in MHz :   103.045994    41.609262    31.611058 

 Dipole components along the rotational axes: 
x,y,z [a.u.] :    -0.007386     3.285557    -0.544210 
x,y,z [Debye]:    -0.018774     8.351221    -1.383272 

 

Timings for individual modules:

Sum of individual times         ...    26375.268 sec (= 439.588 min)
GTO integral calculation        ...        3.994 sec (=   0.067 min)   0.0 %
SCF iterations                  ...      891.507 sec (=  14.858 min)   3.4 %
MP2 module                      ...     2036.685 sec (=  33.945 min)   7.7 %
CIS module                      ...    23443.083 sec (= 390.718 min)  88.9 %
                             ****ORCA TERMINATED NORMALLY****
TOTAL RUN TIME: 0 days 7 hours 19 minutes 47 seconds 118 msec
