 Entering Gaussian System, Link 0=g09
 Input=/home/png4rjv/fotokatalizis/benchmark/OPCs/Me2-Acr_3_M06_def2TZVP.gjf
 Output=/home/png4rjv/fotokatalizis/benchmark/OPCs/Me2-Acr_3_M06_def2TZVP.log
 Initial command:
 /opt/nce/packages/global/g09/l1.exe "/home/png4rjv/fotokatalizis/benchmark/OPCs/Me2-Acr_3_M06_def2TZVP/Gau-8254.inp" -scrdir="/home/png4rjv/fotokatalizis/benchmark/OPCs/Me2-Acr_3_M06_def2TZVP/"
 Default is to use a total of  12 processors:
                               12 via shared-memory
                                1 via Linda
 Entering Link 1 = /opt/nce/packages/global/g09/l1.exe PID=      8255.
  
 Copyright (c) 1988,1990,1992,1993,1995,1998,2003,2009,2015,
            Gaussian, Inc.  All Rights Reserved.
  
 This is part of the Gaussian(R) 09 program.  It is based on
 the Gaussian(R) 03 system (copyright 2003, Gaussian, Inc.),
 the Gaussian(R) 98 system (copyright 1998, Gaussian, Inc.),
 the Gaussian(R) 94 system (copyright 1995, Gaussian, Inc.),
 the Gaussian 92(TM) system (copyright 1992, Gaussian, Inc.),
 the Gaussian 90(TM) system (copyright 1990, Gaussian, Inc.),
 the Gaussian 88(TM) system (copyright 1988, Gaussian, Inc.),
 the Gaussian 86(TM) system (copyright 1986, Carnegie Mellon
 University), and the Gaussian 82(TM) system (copyright 1983,
 Carnegie Mellon University). Gaussian is a federally registered
 trademark of Gaussian, Inc.
  
 This software contains proprietary and confidential information,
 including trade secrets, belonging to Gaussian, Inc.
  
 This software is provided under written license and may be
 used, copied, transmitted, or stored only in accord with that
 written license.
  
 The following legend is applicable only to US Government
 contracts under FAR:
  
                    RESTRICTED RIGHTS LEGEND
  
 Use, reproduction and disclosure by the US Government is
 subject to restrictions as set forth in subparagraphs (a)
 and (c) of the Commercial Computer Software - Restricted
 Rights clause in FAR 52.227-19.
  
 Gaussian, Inc.
 340 Quinnipiac St., Bldg. 40, Wallingford CT 06492
  
  
 ---------------------------------------------------------------
 Warning -- This program may not be used in any manner that
 competes with the business of Gaussian, Inc. or will provide
 assistance to any competitor of Gaussian, Inc.  The licensee
 of this program is prohibited from giving any competitor of
 Gaussian, Inc. access to this program.  By using this program,
 the user acknowledges that Gaussian, Inc. is engaged in the
 business of creating and licensing software in the field of
 computational chemistry and represents and warrants to the
 licensee that it is not a competitor of Gaussian, Inc. and that
 it will not use this program in any manner prohibited above.
 ---------------------------------------------------------------
  

 Cite this work as:
 Gaussian 09, Revision E.01,
 M. J. Frisch, G. W. Trucks, H. B. Schlegel, G. E. Scuseria, 
 M. A. Robb, J. R. Cheeseman, G. Scalmani, V. Barone, B. Mennucci, 
 G. A. Petersson, H. Nakatsuji, M. Caricato, X. Li, H. P. Hratchian, 
 A. F. Izmaylov, J. Bloino, G. Zheng, J. L. Sonnenberg, M. Hada, 
 M. Ehara, K. Toyota, R. Fukuda, J. Hasegawa, M. Ishida, T. Nakajima, 
 Y. Honda, O. Kitao, H. Nakai, T. Vreven, J. A. Montgomery, Jr., 
 J. E. Peralta, F. Ogliaro, M. Bearpark, J. J. Heyd, E. Brothers, 
 K. N. Kudin, V. N. Staroverov, T. Keith, R. Kobayashi, J. Normand, 
 K. Raghavachari, A. Rendell, J. C. Burant, S. S. Iyengar, J. Tomasi, 
 M. Cossi, N. Rega, J. M. Millam, M. Klene, J. E. Knox, J. B. Cross, 
 V. Bakken, C. Adamo, J. Jaramillo, R. Gomperts, R. E. Stratmann, 
 O. Yazyev, A. J. Austin, R. Cammi, C. Pomelli, J. W. Ochterski, 
 R. L. Martin, K. Morokuma, V. G. Zakrzewski, G. A. Voth, 
 P. Salvador, J. J. Dannenberg, S. Dapprich, A. D. Daniels, 
 O. Farkas, J. B. Foresman, J. V. Ortiz, J. Cioslowski, 
 and D. J. Fox, Gaussian, Inc., Wallingford CT, 2013.
 
 ******************************************
 Gaussian 09:  ES64L-G09RevE.01 30-Nov-2015
                20-Feb-2021 
 ******************************************
 %chk=cp.chk
 Default route:  MaxDisk=500GB
 ----------------------------------------------------------------------
 #p m06/def2TZVP opt freq=noraman nosymm int=ultrafine scrf=(SMD,solven
 t=n,n-DiMethylFormamide)
 ----------------------------------------------------------------------
 1/14=-1,18=20,19=15,26=4,38=1/1,3;
 2/9=110,12=2,15=1,17=6,18=5,40=1/2;
 3/5=44,7=101,11=2,16=1,25=1,30=1,70=32201,71=1,72=148,74=-54,75=-5/1,2,3;
 4//1;
 5/5=2,38=5,53=148/2;
 6/7=2,8=2,9=2,10=2,28=1/1;
 7/30=1/1,2,3,16;
 1/14=-1,18=20,19=15,26=4/3(2);
 2/9=110,15=1/2;
 99//99;
 2/9=110,15=1/2;
 3/5=44,7=101,11=2,16=1,25=1,30=1,70=32205,71=1,72=148,74=-54,75=-5/1,2,3;
 4/5=5,16=3,69=1/1;
 5/5=2,38=5,53=148/2;
 7/30=1/1,2,3,16;
 1/14=-1,18=20,19=15,26=4/3(-5);
 2/9=110,15=1/2;
 6/7=2,8=2,9=2,10=2,19=2,28=1/1;
 99/9=1/99;
 Leave Link    1 at Sat Feb 20 07:39:39 2021, MaxMem=           0 cpu:         1.5
 (Enter /opt/nce/packages/global/g09/l101.exe)
 -----
 Title
 -----
 Symbolic Z-matrix:
 Charge =  0 Multiplicity = 1
 C                     3.65569   0.76137  -0.40332 
 C                     2.43136   1.39755  -0.5431 
 C                     1.22226   0.67512  -0.46716 
 C                     1.26474  -0.71664  -0.23616 
 C                     2.51578  -1.32414  -0.09868 
 C                     3.729    -0.62348  -0.17617 
 C                     0.00069  -1.5787   -0.16683 
 C                    -1.2639   -0.71884  -0.25293 
 C                    -1.22042   0.6749   -0.47141 
 C                    -2.42905   1.39854  -0.54264 
 H                    -2.40146   2.47272  -0.7162 
 C                    -3.65375   0.76236  -0.4062 
 C                    -3.72829  -0.62566  -0.20005 
 C                    -2.51562  -1.32817  -0.13075 
 H                     2.40379   2.47372  -0.70387 
 H                     2.552    -2.40426   0.0465 
 H                    -4.56717   1.35384  -0.49118 
 N                     0.00115   1.34172  -0.61315 
 C                     0.00136   2.75835  -0.82379 
 C                    -0.00005   3.63046   0.30658 
 C                     0.00268   3.26212  -2.10739 
 C                    -0.00117   3.14581   1.64234 
 C                    -0.00016   5.04617   0.0762 
 C                     0.00255   4.66024  -2.32918 
 H                     0.00353   2.566    -2.94809 
 C                    -0.00235   4.0238    2.70506 
 H                    -0.00087   2.06874   1.81351 
 C                    -0.0015    5.92186   1.19702 
 C                     0.00114   5.53096  -1.26078 
 H                     0.00344   5.04243  -3.35215 
 C                    -0.00256   5.42369   2.48195 
 H                    -0.00292   3.64035   3.7279 
 H                    -0.00153   7.00028   1.01994 
 H                     0.00099   6.611    -1.42723 
 H                    -0.00337   6.10678   3.3344 
 H                    -2.55126  -2.40249   0.05229 
 H                     4.56791   1.3595   -0.44226 
 C                     0.00795  -2.57197  -1.3549 
 H                     0.012    -2.02934  -2.31178 
 H                     0.89799  -3.21829  -1.32429 
 H                    -0.88175  -3.21926  -1.33213 
 C                    -0.00587  -2.36294   1.16718 
 H                     0.88068  -3.00758   1.25342 
 H                    -0.01176  -1.67141   2.02273 
 H                    -0.89058  -3.01104   1.24488 
 C                     5.02632  -1.31597  -0.02334 
 C                     5.15965  -2.43661   0.82056 
 C                     6.17114  -0.87574  -0.71689 
 C                     6.37673  -3.09278   0.96596 
 H                     4.29853  -2.78345   1.39423 
 C                     7.3947   -1.52111  -0.57746 
 H                     6.09355  -0.0267   -1.39802 
 C                     7.51093  -2.64058   0.2669 
 H                     6.46252  -3.95418   1.63054 
 H                     8.2686   -1.17057  -1.12924 
 C                    -5.02654  -1.31969  -0.06208 
 C                    -5.19964  -2.64107  -0.52 
 C                    -6.13253  -0.68001   0.53215 
 C                    -6.41767  -3.29874  -0.39 
 H                    -4.37066  -3.1531   -1.01148 
 C                    -7.35667  -1.32558   0.66517 
 H                    -6.0224    0.33393   0.92027 
 C                    -7.51279  -2.64614   0.20531 
 H                    -6.53496  -4.31939  -0.75818 
 H                    -8.19966  -0.81675   1.1358 
 C                    -8.77185  -3.31811   0.34121 
 C                     8.76924  -3.31172   0.41356 
 N                     9.78856  -3.85554   0.53232 
 N                    -9.79179  -3.86258   0.45143 
 
 NAtoms=     69 NQM=       69 NQMF=       0 NMMI=      0 NMMIF=      0
                NMic=       0 NMicF=      0.
                    Isotopes and Nuclear Properties:
 (Nuclear quadrupole moments (NQMom) in fm**2, nuclear magnetic moments (NMagM)
  in nuclear magnetons)

  Atom         1           2           3           4           5           6           7           8           9          10
 IAtWgt=          12          12          12          12          12          12          12          12          12          12
 AtmWgt=  12.0000000  12.0000000  12.0000000  12.0000000  12.0000000  12.0000000  12.0000000  12.0000000  12.0000000  12.0000000
 NucSpn=           0           0           0           0           0           0           0           0           0           0
 AtZEff=   0.0000000   0.0000000   0.0000000   0.0000000   0.0000000   0.0000000   0.0000000   0.0000000   0.0000000   0.0000000
 NQMom=    0.0000000   0.0000000   0.0000000   0.0000000   0.0000000   0.0000000   0.0000000   0.0000000   0.0000000   0.0000000
 NMagM=    0.0000000   0.0000000   0.0000000   0.0000000   0.0000000   0.0000000   0.0000000   0.0000000   0.0000000   0.0000000
 AtZNuc=   6.0000000   6.0000000   6.0000000   6.0000000   6.0000000   6.0000000   6.0000000   6.0000000   6.0000000   6.0000000

  Atom        11          12          13          14          15          16          17          18          19          20
 IAtWgt=           1          12          12          12           1           1           1          14          12          12
 AtmWgt=   1.0078250  12.0000000  12.0000000  12.0000000   1.0078250   1.0078250   1.0078250  14.0030740  12.0000000  12.0000000
 NucSpn=           1           0           0           0           1           1           1           2           0           0
 AtZEff=   0.0000000   0.0000000   0.0000000   0.0000000   0.0000000   0.0000000   0.0000000   0.0000000   0.0000000   0.0000000
 NQMom=    0.0000000   0.0000000   0.0000000   0.0000000   0.0000000   0.0000000   0.0000000   2.0440000   0.0000000   0.0000000
 NMagM=    2.7928460   0.0000000   0.0000000   0.0000000   2.7928460   2.7928460   2.7928460   0.4037610   0.0000000   0.0000000
 AtZNuc=   1.0000000   6.0000000   6.0000000   6.0000000   1.0000000   1.0000000   1.0000000   7.0000000   6.0000000   6.0000000

  Atom        21          22          23          24          25          26          27          28          29          30
 IAtWgt=          12          12          12          12           1          12           1          12          12           1
 AtmWgt=  12.0000000  12.0000000  12.0000000  12.0000000   1.0078250  12.0000000   1.0078250  12.0000000  12.0000000   1.0078250
 NucSpn=           0           0           0           0           1           0           1           0           0           1
 AtZEff=   0.0000000   0.0000000   0.0000000   0.0000000   0.0000000   0.0000000   0.0000000   0.0000000   0.0000000   0.0000000
 NQMom=    0.0000000   0.0000000   0.0000000   0.0000000   0.0000000   0.0000000   0.0000000   0.0000000   0.0000000   0.0000000
 NMagM=    0.0000000   0.0000000   0.0000000   0.0000000   2.7928460   0.0000000   2.7928460   0.0000000   0.0000000   2.7928460
 AtZNuc=   6.0000000   6.0000000   6.0000000   6.0000000   1.0000000   6.0000000   1.0000000   6.0000000   6.0000000   1.0000000

  Atom        31          32          33          34          35          36          37          38          39          40
 IAtWgt=          12           1           1           1           1           1           1          12           1           1
 AtmWgt=  12.0000000   1.0078250   1.0078250   1.0078250   1.0078250   1.0078250   1.0078250  12.0000000   1.0078250   1.0078250
 NucSpn=           0           1           1           1           1           1           1           0           1           1
 AtZEff=   0.0000000   0.0000000   0.0000000   0.0000000   0.0000000   0.0000000   0.0000000   0.0000000   0.0000000   0.0000000
 NQMom=    0.0000000   0.0000000   0.0000000   0.0000000   0.0000000   0.0000000   0.0000000   0.0000000   0.0000000   0.0000000
 NMagM=    0.0000000   2.7928460   2.7928460   2.7928460   2.7928460   2.7928460   2.7928460   0.0000000   2.7928460   2.7928460
 AtZNuc=   6.0000000   1.0000000   1.0000000   1.0000000   1.0000000   1.0000000   1.0000000   6.0000000   1.0000000   1.0000000

  Atom        41          42          43          44          45          46          47          48          49          50
 IAtWgt=           1          12           1           1           1          12          12          12          12           1
 AtmWgt=   1.0078250  12.0000000   1.0078250   1.0078250   1.0078250  12.0000000  12.0000000  12.0000000  12.0000000   1.0078250
 NucSpn=           1           0           1           1           1           0           0           0           0           1
 AtZEff=   0.0000000   0.0000000   0.0000000   0.0000000   0.0000000   0.0000000   0.0000000   0.0000000   0.0000000   0.0000000
 NQMom=    0.0000000   0.0000000   0.0000000   0.0000000   0.0000000   0.0000000   0.0000000   0.0000000   0.0000000   0.0000000
 NMagM=    2.7928460   0.0000000   2.7928460   2.7928460   2.7928460   0.0000000   0.0000000   0.0000000   0.0000000   2.7928460
 AtZNuc=   1.0000000   6.0000000   1.0000000   1.0000000   1.0000000   6.0000000   6.0000000   6.0000000   6.0000000   1.0000000

  Atom        51          52          53          54          55          56          57          58          59          60
 IAtWgt=          12           1          12           1           1          12          12          12          12           1
 AtmWgt=  12.0000000   1.0078250  12.0000000   1.0078250   1.0078250  12.0000000  12.0000000  12.0000000  12.0000000   1.0078250
 NucSpn=           0           1           0           1           1           0           0           0           0           1
 AtZEff=   0.0000000   0.0000000   0.0000000   0.0000000   0.0000000   0.0000000   0.0000000   0.0000000   0.0000000   0.0000000
 NQMom=    0.0000000   0.0000000   0.0000000   0.0000000   0.0000000   0.0000000   0.0000000   0.0000000   0.0000000   0.0000000
 NMagM=    0.0000000   2.7928460   0.0000000   2.7928460   2.7928460   0.0000000   0.0000000   0.0000000   0.0000000   2.7928460
 AtZNuc=   6.0000000   1.0000000   6.0000000   1.0000000   1.0000000   6.0000000   6.0000000   6.0000000   6.0000000   1.0000000

  Atom        61          62          63          64          65          66          67          68          69
 IAtWgt=          12           1          12           1           1          12          12          14          14
 AtmWgt=  12.0000000   1.0078250  12.0000000   1.0078250   1.0078250  12.0000000  12.0000000  14.0030740  14.0030740
 NucSpn=           0           1           0           1           1           0           0           2           2
 AtZEff=   0.0000000   0.0000000   0.0000000   0.0000000   0.0000000   0.0000000   0.0000000   0.0000000   0.0000000
 NQMom=    0.0000000   0.0000000   0.0000000   0.0000000   0.0000000   0.0000000   0.0000000   2.0440000   2.0440000
 NMagM=    0.0000000   2.7928460   0.0000000   2.7928460   2.7928460   0.0000000   0.0000000   0.4037610   0.4037610
 AtZNuc=   6.0000000   1.0000000   6.0000000   1.0000000   1.0000000   6.0000000   6.0000000   7.0000000   7.0000000
 Leave Link  101 at Sat Feb 20 07:39:39 2021, MaxMem=  5242880000 cpu:         4.4
 (Enter /opt/nce/packages/global/g09/l103.exe)

 GradGradGradGradGradGradGradGradGradGradGradGradGradGradGradGradGradGrad
 Berny optimization.
 Initialization pass.
                           ----------------------------
                           !    Initial Parameters    !
                           ! (Angstroms and Degrees)  !
 --------------------------                            --------------------------
 ! Name  Definition              Value          Derivative Info.                !
 --------------------------------------------------------------------------------
 ! R1    R(1,2)                  1.3868         estimate D2E/DX2                !
 ! R2    R(1,6)                  1.4053         estimate D2E/DX2                !
 ! R3    R(1,37)                 1.0915         estimate D2E/DX2                !
 ! R4    R(2,3)                  1.4105         estimate D2E/DX2                !
 ! R5    R(2,15)                 1.0885         estimate D2E/DX2                !
 ! R6    R(3,4)                  1.4114         estimate D2E/DX2                !
 ! R7    R(3,18)                 1.3988         estimate D2E/DX2                !
 ! R8    R(4,5)                  1.3975         estimate D2E/DX2                !
 ! R9    R(4,7)                  1.5316         estimate D2E/DX2                !
 ! R10   R(5,6)                  1.4032         estimate D2E/DX2                !
 ! R11   R(5,16)                 1.0904         estimate D2E/DX2                !
 ! R12   R(6,46)                 1.4785         estimate D2E/DX2                !
 ! R13   R(7,8)                  1.5317         estimate D2E/DX2                !
 ! R14   R(7,38)                 1.5486         estimate D2E/DX2                !
 ! R15   R(7,42)                 1.5475         estimate D2E/DX2                !
 ! R16   R(8,9)                  1.4114         estimate D2E/DX2                !
 ! R17   R(8,14)                 1.3975         estimate D2E/DX2                !
 ! R18   R(9,10)                 1.4105         estimate D2E/DX2                !
 ! R19   R(9,18)                 1.3989         estimate D2E/DX2                !
 ! R20   R(10,11)                1.0885         estimate D2E/DX2                !
 ! R21   R(10,12)                1.3868         estimate D2E/DX2                !
 ! R22   R(12,13)                1.4052         estimate D2E/DX2                !
 ! R23   R(12,17)                1.0915         estimate D2E/DX2                !
 ! R24   R(13,14)                1.4032         estimate D2E/DX2                !
 ! R25   R(13,56)                1.4786         estimate D2E/DX2                !
 ! R26   R(14,36)                1.0904         estimate D2E/DX2                !
 ! R27   R(18,19)                1.4322         estimate D2E/DX2                !
 ! R28   R(19,20)                1.4277         estimate D2E/DX2                !
 ! R29   R(19,21)                1.3789         estimate D2E/DX2                !
 ! R30   R(20,22)                1.421          estimate D2E/DX2                !
 ! R31   R(20,23)                1.4343         estimate D2E/DX2                !
 ! R32   R(21,24)                1.4156         estimate D2E/DX2                !
 ! R33   R(21,25)                1.0915         estimate D2E/DX2                !
 ! R34   R(22,26)                1.3785         estimate D2E/DX2                !
 ! R35   R(22,27)                1.0906         estimate D2E/DX2                !
 ! R36   R(23,28)                1.4223         estimate D2E/DX2                !
 ! R37   R(23,29)                1.4222         estimate D2E/DX2                !
 ! R38   R(24,29)                1.3783         estimate D2E/DX2                !
 ! R39   R(24,30)                1.092          estimate D2E/DX2                !
 ! R40   R(26,31)                1.4176         estimate D2E/DX2                !
 ! R41   R(26,32)                1.0924         estimate D2E/DX2                !
 ! R42   R(28,31)                1.3781         estimate D2E/DX2                !
 ! R43   R(28,33)                1.0929         estimate D2E/DX2                !
 ! R44   R(29,34)                1.0928         estimate D2E/DX2                !
 ! R45   R(31,35)                1.0924         estimate D2E/DX2                !
 ! R46   R(38,39)                1.1            estimate D2E/DX2                !
 ! R47   R(38,40)                1.1004         estimate D2E/DX2                !
 ! R48   R(38,41)                1.1005         estimate D2E/DX2                !
 ! R49   R(42,43)                1.0995         estimate D2E/DX2                !
 ! R50   R(42,44)                1.1001         estimate D2E/DX2                !
 ! R51   R(42,45)                1.0994         estimate D2E/DX2                !
 ! R52   R(46,47)                1.4092         estimate D2E/DX2                !
 ! R53   R(46,48)                1.4091         estimate D2E/DX2                !
 ! R54   R(47,49)                1.3903         estimate D2E/DX2                !
 ! R55   R(47,50)                1.0913         estimate D2E/DX2                !
 ! R56   R(48,51)                1.3903         estimate D2E/DX2                !
 ! R57   R(48,52)                1.0912         estimate D2E/DX2                !
 ! R58   R(49,53)                1.407          estimate D2E/DX2                !
 ! R59   R(49,54)                1.0913         estimate D2E/DX2                !
 ! R60   R(51,53)                1.407          estimate D2E/DX2                !
 ! R61   R(51,55)                1.0913         estimate D2E/DX2                !
 ! R62   R(53,67)                1.4336         estimate D2E/DX2                !
 ! R63   R(56,57)                1.4091         estimate D2E/DX2                !
 ! R64   R(56,58)                1.4091         estimate D2E/DX2                !
 ! R65   R(57,59)                1.3903         estimate D2E/DX2                !
 ! R66   R(57,60)                1.0913         estimate D2E/DX2                !
 ! R67   R(58,61)                1.3903         estimate D2E/DX2                !
 ! R68   R(58,62)                1.0913         estimate D2E/DX2                !
 ! R69   R(59,63)                1.407          estimate D2E/DX2                !
 ! R70   R(59,64)                1.0913         estimate D2E/DX2                !
 ! R71   R(61,63)                1.407          estimate D2E/DX2                !
 ! R72   R(61,65)                1.0913         estimate D2E/DX2                !
 ! R73   R(63,66)                1.4336         estimate D2E/DX2                !
 ! R74   R(66,69)                1.1614         estimate D2E/DX2                !
 ! R75   R(67,68)                1.1614         estimate D2E/DX2                !
 ! A1    A(2,1,6)              120.9587         estimate D2E/DX2                !
 ! A2    A(2,1,37)             118.8713         estimate D2E/DX2                !
 ! A3    A(6,1,37)             120.1444         estimate D2E/DX2                !
 ! A4    A(1,2,3)              121.0907         estimate D2E/DX2                !
 ! A5    A(1,2,15)             119.3934         estimate D2E/DX2                !
 ! A6    A(3,2,15)             119.5129         estimate D2E/DX2                !
 ! A7    A(2,3,4)              119.2111         estimate D2E/DX2                !
 ! A8    A(2,3,18)             119.9074         estimate D2E/DX2                !
 ! A9    A(4,3,18)             120.8805         estimate D2E/DX2                !
 ! A10   A(3,4,5)              118.1438         estimate D2E/DX2                !
 ! A11   A(3,4,7)              122.518          estimate D2E/DX2                !
 ! A12   A(5,4,7)              119.3203         estimate D2E/DX2                !
 ! A13   A(4,5,6)              123.4712         estimate D2E/DX2                !
 ! A14   A(4,5,16)             118.2567         estimate D2E/DX2                !
 ! A15   A(6,5,16)             118.2454         estimate D2E/DX2                !
 ! A16   A(1,6,5)              117.1233         estimate D2E/DX2                !
 ! A17   A(1,6,46)             121.6048         estimate D2E/DX2                !
 ! A18   A(5,6,46)             121.2719         estimate D2E/DX2                !
 ! A19   A(4,7,8)              111.2776         estimate D2E/DX2                !
 ! A20   A(4,7,38)             108.8089         estimate D2E/DX2                !
 ! A21   A(4,7,42)             109.133          estimate D2E/DX2                !
 ! A22   A(8,7,38)             108.7132         estimate D2E/DX2                !
 ! A23   A(8,7,42)             109.2362         estimate D2E/DX2                !
 ! A24   A(38,7,42)            109.6538         estimate D2E/DX2                !
 ! A25   A(7,8,9)              122.5221         estimate D2E/DX2                !
 ! A26   A(7,8,14)             119.3286         estimate D2E/DX2                !
 ! A27   A(9,8,14)             118.1431         estimate D2E/DX2                !
 ! A28   A(8,9,10)             119.211          estimate D2E/DX2                !
 ! A29   A(8,9,18)             120.8828         estimate D2E/DX2                !
 ! A30   A(10,9,18)            119.9059         estimate D2E/DX2                !
 ! A31   A(9,10,11)            119.5143         estimate D2E/DX2                !
 ! A32   A(9,10,12)            121.0912         estimate D2E/DX2                !
 ! A33   A(11,10,12)           119.3923         estimate D2E/DX2                !
 ! A34   A(10,12,13)           120.9568         estimate D2E/DX2                !
 ! A35   A(10,12,17)           118.8668         estimate D2E/DX2                !
 ! A36   A(13,12,17)           120.1517         estimate D2E/DX2                !
 ! A37   A(12,13,14)           117.125          estimate D2E/DX2                !
 ! A38   A(12,13,56)           121.5947         estimate D2E/DX2                !
 ! A39   A(14,13,56)           121.2803         estimate D2E/DX2                !
 ! A40   A(8,14,13)            123.468          estimate D2E/DX2                !
 ! A41   A(8,14,36)            118.2647         estimate D2E/DX2                !
 ! A42   A(13,14,36)           118.25           estimate D2E/DX2                !
 ! A43   A(3,18,9)             121.6376         estimate D2E/DX2                !
 ! A44   A(3,18,19)            119.1156         estimate D2E/DX2                !
 ! A45   A(9,18,19)            119.112          estimate D2E/DX2                !
 ! A46   A(18,19,20)           119.1938         estimate D2E/DX2                !
 ! A47   A(18,19,21)           119.8859         estimate D2E/DX2                !
 ! A48   A(20,19,21)           120.9203         estimate D2E/DX2                !
 ! A49   A(19,20,22)           122.4071         estimate D2E/DX2                !
 ! A50   A(19,20,23)           118.4082         estimate D2E/DX2                !
 ! A51   A(22,20,23)           119.1847         estimate D2E/DX2                !
 ! A52   A(19,21,24)           120.4423         estimate D2E/DX2                !
 ! A53   A(19,21,25)           118.9457         estimate D2E/DX2                !
 ! A54   A(24,21,25)           120.6119         estimate D2E/DX2                !
 ! A55   A(20,22,26)           120.4957         estimate D2E/DX2                !
 ! A56   A(20,22,27)           118.972          estimate D2E/DX2                !
 ! A57   A(26,22,27)           120.5323         estimate D2E/DX2                !
 ! A58   A(20,23,28)           118.7575         estimate D2E/DX2                !
 ! A59   A(20,23,29)           119.1737         estimate D2E/DX2                !
 ! A60   A(28,23,29)           122.0688         estimate D2E/DX2                !
 ! A61   A(21,24,29)           120.1657         estimate D2E/DX2                !
 ! A62   A(21,24,30)           119.4998         estimate D2E/DX2                !
 ! A63   A(29,24,30)           120.3345         estimate D2E/DX2                !
 ! A64   A(22,26,31)           120.5071         estimate D2E/DX2                !
 ! A65   A(22,26,32)           119.887          estimate D2E/DX2                !
 ! A66   A(31,26,32)           119.6059         estimate D2E/DX2                !
 ! A67   A(23,28,31)           120.8084         estimate D2E/DX2                !
 ! A68   A(23,28,33)           118.6754         estimate D2E/DX2                !
 ! A69   A(31,28,33)           120.5163         estimate D2E/DX2                !
 ! A70   A(23,29,24)           120.8897         estimate D2E/DX2                !
 ! A71   A(23,29,34)           118.6918         estimate D2E/DX2                !
 ! A72   A(24,29,34)           120.4185         estimate D2E/DX2                !
 ! A73   A(26,31,28)           120.2467         estimate D2E/DX2                !
 ! A74   A(26,31,35)           119.6509         estimate D2E/DX2                !
 ! A75   A(28,31,35)           120.1024         estimate D2E/DX2                !
 ! A76   A(7,38,39)            110.547          estimate D2E/DX2                !
 ! A77   A(7,38,40)            111.0502         estimate D2E/DX2                !
 ! A78   A(7,38,41)            110.9524         estimate D2E/DX2                !
 ! A79   A(39,38,40)           108.1171         estimate D2E/DX2                !
 ! A80   A(39,38,41)           108.1266         estimate D2E/DX2                !
 ! A81   A(40,38,41)           107.9307         estimate D2E/DX2                !
 ! A82   A(7,42,43)            111.1811         estimate D2E/DX2                !
 ! A83   A(7,42,44)            110.6027         estimate D2E/DX2                !
 ! A84   A(7,42,45)            111.2892         estimate D2E/DX2                !
 ! A85   A(43,42,44)           108.1714         estimate D2E/DX2                !
 ! A86   A(43,42,45)           107.3171         estimate D2E/DX2                !
 ! A87   A(44,42,45)           108.137          estimate D2E/DX2                !
 ! A88   A(6,46,47)            121.1576         estimate D2E/DX2                !
 ! A89   A(6,46,48)            121.0441         estimate D2E/DX2                !
 ! A90   A(47,46,48)           117.7982         estimate D2E/DX2                !
 ! A91   A(46,47,49)           121.3843         estimate D2E/DX2                !
 ! A92   A(46,47,50)           119.5314         estimate D2E/DX2                !
 ! A93   A(49,47,50)           119.0637         estimate D2E/DX2                !
 ! A94   A(46,48,51)           121.3741         estimate D2E/DX2                !
 ! A95   A(46,48,52)           119.5079         estimate D2E/DX2                !
 ! A96   A(51,48,52)           119.0993         estimate D2E/DX2                !
 ! A97   A(47,49,53)           120.1345         estimate D2E/DX2                !
 ! A98   A(47,49,54)           120.3325         estimate D2E/DX2                !
 ! A99   A(53,49,54)           119.5294         estimate D2E/DX2                !
 ! A100  A(48,51,53)           120.1459         estimate D2E/DX2                !
 ! A101  A(48,51,55)           120.3245         estimate D2E/DX2                !
 ! A102  A(53,51,55)           119.5264         estimate D2E/DX2                !
 ! A103  A(49,53,51)           119.1627         estimate D2E/DX2                !
 ! A104  A(49,53,67)           120.4148         estimate D2E/DX2                !
 ! A105  A(51,53,67)           120.4226         estimate D2E/DX2                !
 ! A106  A(13,56,57)           121.1771         estimate D2E/DX2                !
 ! A107  A(13,56,58)           121.0268         estimate D2E/DX2                !
 ! A108  A(57,56,58)           117.7962         estimate D2E/DX2                !
 ! A109  A(56,57,59)           121.3855         estimate D2E/DX2                !
 ! A110  A(56,57,60)           119.5388         estimate D2E/DX2                !
 ! A111  A(59,57,60)           119.0553         estimate D2E/DX2                !
 ! A112  A(56,58,61)           121.3748         estimate D2E/DX2                !
 ! A113  A(56,58,62)           119.5106         estimate D2E/DX2                !
 ! A114  A(61,58,62)           119.0957         estimate D2E/DX2                !
 ! A115  A(57,59,63)           120.1355         estimate D2E/DX2                !
 ! A116  A(57,59,64)           120.3311         estimate D2E/DX2                !
 ! A117  A(63,59,64)           119.53           estimate D2E/DX2                !
 ! A118  A(58,61,63)           120.1475         estimate D2E/DX2                !
 ! A119  A(58,61,65)           120.3227         estimate D2E/DX2                !
 ! A120  A(63,61,65)           119.5266         estimate D2E/DX2                !
 ! A121  A(59,63,61)           119.1602         estimate D2E/DX2                !
 ! A122  A(59,63,66)           120.4162         estimate D2E/DX2                !
 ! A123  A(61,63,66)           120.4236         estimate D2E/DX2                !
 ! A124  L(63,66,69,64,-1)     179.998          estimate D2E/DX2                !
 ! A125  L(53,67,68,54,-1)     179.9974         estimate D2E/DX2                !
 ! A126  L(63,66,69,64,-2)     179.9896         estimate D2E/DX2                !
 ! A127  L(53,67,68,54,-2)     179.9929         estimate D2E/DX2                !
 ! D1    D(6,1,2,3)             -0.2544         estimate D2E/DX2                !
 ! D2    D(6,1,2,15)           179.1132         estimate D2E/DX2                !
 ! D3    D(37,1,2,3)          -178.4163         estimate D2E/DX2                !
 ! D4    D(37,1,2,15)            0.9513         estimate D2E/DX2                !
 ! D5    D(2,1,6,5)              0.0105         estimate D2E/DX2                !
 ! D6    D(2,1,6,46)          -179.9227         estimate D2E/DX2                !
 ! D7    D(37,1,6,5)           178.1491         estimate D2E/DX2                !
 ! D8    D(37,1,6,46)           -1.7841         estimate D2E/DX2                !
 ! D9    D(1,2,3,4)              0.4205         estimate D2E/DX2                !
 ! D10   D(1,2,3,18)          -179.9306         estimate D2E/DX2                !
 ! D11   D(15,2,3,4)          -178.9464         estimate D2E/DX2                !
 ! D12   D(15,2,3,18)            0.7025         estimate D2E/DX2                !
 ! D13   D(2,3,4,5)             -0.3379         estimate D2E/DX2                !
 ! D14   D(2,3,4,7)           -178.7892         estimate D2E/DX2                !
 ! D15   D(18,3,4,5)          -179.9833         estimate D2E/DX2                !
 ! D16   D(18,3,4,7)             1.5654         estimate D2E/DX2                !
 ! D17   D(2,3,18,9)          -176.4331         estimate D2E/DX2                !
 ! D18   D(2,3,18,19)           -0.6914         estimate D2E/DX2                !
 ! D19   D(4,3,18,9)             3.2098         estimate D2E/DX2                !
 ! D20   D(4,3,18,19)          178.9515         estimate D2E/DX2                !
 ! D21   D(3,4,5,6)              0.1015         estimate D2E/DX2                !
 ! D22   D(3,4,5,16)          -177.9877         estimate D2E/DX2                !
 ! D23   D(7,4,5,6)            178.6037         estimate D2E/DX2                !
 ! D24   D(7,4,5,16)             0.5145         estimate D2E/DX2                !
 ! D25   D(3,4,7,8)             -5.0457         estimate D2E/DX2                !
 ! D26   D(3,4,7,38)           114.7141         estimate D2E/DX2                !
 ! D27   D(3,4,7,42)          -125.6657         estimate D2E/DX2                !
 ! D28   D(5,4,7,8)            176.5205         estimate D2E/DX2                !
 ! D29   D(5,4,7,38)           -63.7197         estimate D2E/DX2                !
 ! D30   D(5,4,7,42)            55.9006         estimate D2E/DX2                !
 ! D31   D(4,5,6,1)              0.0645         estimate D2E/DX2                !
 ! D32   D(4,5,6,46)           179.998          estimate D2E/DX2                !
 ! D33   D(16,5,6,1)           178.1539         estimate D2E/DX2                !
 ! D34   D(16,5,6,46)           -1.9127         estimate D2E/DX2                !
 ! D35   D(1,6,46,47)          147.4412         estimate D2E/DX2                !
 ! D36   D(1,6,46,48)          -32.514          estimate D2E/DX2                !
 ! D37   D(5,6,46,47)          -32.4892         estimate D2E/DX2                !
 ! D38   D(5,6,46,48)          147.5556         estimate D2E/DX2                !
 ! D39   D(4,7,8,9)              4.4629         estimate D2E/DX2                !
 ! D40   D(4,7,8,14)          -176.458          estimate D2E/DX2                !
 ! D41   D(38,7,8,9)          -115.3537         estimate D2E/DX2                !
 ! D42   D(38,7,8,14)           63.7253         estimate D2E/DX2                !
 ! D43   D(42,7,8,9)           125.0221         estimate D2E/DX2                !
 ! D44   D(42,7,8,14)          -55.8988         estimate D2E/DX2                !
 ! D45   D(4,7,38,39)          -60.742          estimate D2E/DX2                !
 ! D46   D(4,7,38,40)           59.2638         estimate D2E/DX2                !
 ! D47   D(4,7,38,41)          179.3041         estimate D2E/DX2                !
 ! D48   D(8,7,38,39)           60.5989         estimate D2E/DX2                !
 ! D49   D(8,7,38,40)         -179.3952         estimate D2E/DX2                !
 ! D50   D(8,7,38,41)          -59.355          estimate D2E/DX2                !
 ! D51   D(42,7,38,39)         179.9624         estimate D2E/DX2                !
 ! D52   D(42,7,38,40)         -60.0317         estimate D2E/DX2                !
 ! D53   D(42,7,38,41)          60.0085         estimate D2E/DX2                !
 ! D54   D(4,7,42,43)          -59.2561         estimate D2E/DX2                !
 ! D55   D(4,7,42,44)           60.9411         estimate D2E/DX2                !
 ! D56   D(4,7,42,45)         -178.8336         estimate D2E/DX2                !
 ! D57   D(8,7,42,43)          178.8818         estimate D2E/DX2                !
 ! D58   D(8,7,42,44)          -60.921          estimate D2E/DX2                !
 ! D59   D(8,7,42,45)           59.3044         estimate D2E/DX2                !
 ! D60   D(38,7,42,43)          59.8401         estimate D2E/DX2                !
 ! D61   D(38,7,42,44)        -179.9627         estimate D2E/DX2                !
 ! D62   D(38,7,42,45)         -59.7374         estimate D2E/DX2                !
 ! D63   D(7,8,9,10)           179.8062         estimate D2E/DX2                !
 ! D64   D(7,8,9,18)            -0.3806         estimate D2E/DX2                !
 ! D65   D(14,8,9,10)            0.7168         estimate D2E/DX2                !
 ! D66   D(14,8,9,18)         -179.4701         estimate D2E/DX2                !
 ! D67   D(7,8,14,13)         -179.8027         estimate D2E/DX2                !
 ! D68   D(7,8,14,36)            1.7402         estimate D2E/DX2                !
 ! D69   D(9,8,14,13)           -0.6833         estimate D2E/DX2                !
 ! D70   D(9,8,14,36)         -179.1404         estimate D2E/DX2                !
 ! D71   D(8,9,10,11)         -179.6791         estimate D2E/DX2                !
 ! D72   D(8,9,10,12)           -0.2188         estimate D2E/DX2                !
 ! D73   D(18,9,10,11)           0.5059         estimate D2E/DX2                !
 ! D74   D(18,9,10,12)         179.9661         estimate D2E/DX2                !
 ! D75   D(8,9,18,3)            -3.8025         estimate D2E/DX2                !
 ! D76   D(8,9,18,19)         -179.5443         estimate D2E/DX2                !
 ! D77   D(10,9,18,3)          176.0094         estimate D2E/DX2                !
 ! D78   D(10,9,18,19)           0.2675         estimate D2E/DX2                !
 ! D79   D(9,10,12,13)          -0.3624         estimate D2E/DX2                !
 ! D80   D(9,10,12,17)        -178.5567         estimate D2E/DX2                !
 ! D81   D(11,10,12,13)        179.0985         estimate D2E/DX2                !
 ! D82   D(11,10,12,17)          0.9042         estimate D2E/DX2                !
 ! D83   D(10,12,13,14)          0.4102         estimate D2E/DX2                !
 ! D84   D(10,12,13,56)       -179.5706         estimate D2E/DX2                !
 ! D85   D(17,12,13,14)        178.5814         estimate D2E/DX2                !
 ! D86   D(17,12,13,56)         -1.3994         estimate D2E/DX2                !
 ! D87   D(12,13,14,8)           0.1201         estimate D2E/DX2                !
 ! D88   D(12,13,14,36)        178.5775         estimate D2E/DX2                !
 ! D89   D(56,13,14,8)        -179.899          estimate D2E/DX2                !
 ! D90   D(56,13,14,36)         -1.4416         estimate D2E/DX2                !
 ! D91   D(12,13,56,57)        147.3881         estimate D2E/DX2                !
 ! D92   D(12,13,56,58)        -32.5929         estimate D2E/DX2                !
 ! D93   D(14,13,56,57)        -32.5919         estimate D2E/DX2                !
 ! D94   D(14,13,56,58)        147.4271         estimate D2E/DX2                !
 ! D95   D(3,18,19,20)         -87.8954         estimate D2E/DX2                !
 ! D96   D(3,18,19,21)          92.1158         estimate D2E/DX2                !
 ! D97   D(9,18,19,20)          87.9551         estimate D2E/DX2                !
 ! D98   D(9,18,19,21)         -92.0337         estimate D2E/DX2                !
 ! D99   D(18,19,20,22)          0.024          estimate D2E/DX2                !
 ! D100  D(18,19,20,23)       -179.9843         estimate D2E/DX2                !
 ! D101  D(21,19,20,22)       -179.9874         estimate D2E/DX2                !
 ! D102  D(21,19,20,23)          0.0043         estimate D2E/DX2                !
 ! D103  D(18,19,21,24)        179.9835         estimate D2E/DX2                !
 ! D104  D(18,19,21,25)          0.0014         estimate D2E/DX2                !
 ! D105  D(20,19,21,24)         -0.005          estimate D2E/DX2                !
 ! D106  D(20,19,21,25)       -179.9872         estimate D2E/DX2                !
 ! D107  D(19,20,22,26)        179.9919         estimate D2E/DX2                !
 ! D108  D(19,20,22,27)          0.0042         estimate D2E/DX2                !
 ! D109  D(23,20,22,26)          0.0002         estimate D2E/DX2                !
 ! D110  D(23,20,22,27)       -179.9875         estimate D2E/DX2                !
 ! D111  D(19,20,23,28)       -179.997          estimate D2E/DX2                !
 ! D112  D(19,20,23,29)         -0.0005         estimate D2E/DX2                !
 ! D113  D(22,20,23,28)         -0.005          estimate D2E/DX2                !
 ! D114  D(22,20,23,29)        179.9915         estimate D2E/DX2                !
 ! D115  D(19,21,24,29)          0.0018         estimate D2E/DX2                !
 ! D116  D(19,21,24,30)       -179.9896         estimate D2E/DX2                !
 ! D117  D(25,21,24,29)        179.9837         estimate D2E/DX2                !
 ! D118  D(25,21,24,30)         -0.0078         estimate D2E/DX2                !
 ! D119  D(20,22,26,31)          0.0041         estimate D2E/DX2                !
 ! D120  D(20,22,26,32)       -179.9827         estimate D2E/DX2                !
 ! D121  D(27,22,26,31)        179.9916         estimate D2E/DX2                !
 ! D122  D(27,22,26,32)          0.0048         estimate D2E/DX2                !
 ! D123  D(20,23,28,31)          0.0057         estimate D2E/DX2                !
 ! D124  D(20,23,28,33)        179.9965         estimate D2E/DX2                !
 ! D125  D(29,23,28,31)       -179.9907         estimate D2E/DX2                !
 ! D126  D(29,23,28,33)          0.0001         estimate D2E/DX2                !
 ! D127  D(20,23,29,24)         -0.0026         estimate D2E/DX2                !
 ! D128  D(20,23,29,34)        179.9963         estimate D2E/DX2                !
 ! D129  D(28,23,29,24)        179.9938         estimate D2E/DX2                !
 ! D130  D(28,23,29,34)         -0.0073         estimate D2E/DX2                !
 ! D131  D(21,24,29,23)          0.002          estimate D2E/DX2                !
 ! D132  D(21,24,29,34)       -179.9969         estimate D2E/DX2                !
 ! D133  D(30,24,29,23)        179.9934         estimate D2E/DX2                !
 ! D134  D(30,24,29,34)         -0.0055         estimate D2E/DX2                !
 ! D135  D(22,26,31,28)         -0.0035         estimate D2E/DX2                !
 ! D136  D(22,26,31,35)       -179.9923         estimate D2E/DX2                !
 ! D137  D(32,26,31,28)        179.9834         estimate D2E/DX2                !
 ! D138  D(32,26,31,35)         -0.0054         estimate D2E/DX2                !
 ! D139  D(23,28,31,26)         -0.0015         estimate D2E/DX2                !
 ! D140  D(23,28,31,35)        179.9872         estimate D2E/DX2                !
 ! D141  D(33,28,31,26)       -179.9922         estimate D2E/DX2                !
 ! D142  D(33,28,31,35)         -0.0035         estimate D2E/DX2                !
 ! D143  D(6,46,47,49)         179.8852         estimate D2E/DX2                !
 ! D144  D(6,46,47,50)          -1.7818         estimate D2E/DX2                !
 ! D145  D(48,46,47,49)         -0.1582         estimate D2E/DX2                !
 ! D146  D(48,46,47,50)        178.1748         estimate D2E/DX2                !
 ! D147  D(6,46,48,51)         179.9484         estimate D2E/DX2                !
 ! D148  D(6,46,48,52)          -1.6416         estimate D2E/DX2                !
 ! D149  D(47,46,48,51)         -0.0083         estimate D2E/DX2                !
 ! D150  D(47,46,48,52)        178.4018         estimate D2E/DX2                !
 ! D151  D(46,47,49,53)          0.187          estimate D2E/DX2                !
 ! D152  D(46,47,49,54)        179.4989         estimate D2E/DX2                !
 ! D153  D(50,47,49,53)       -178.1536         estimate D2E/DX2                !
 ! D154  D(50,47,49,54)          1.1583         estimate D2E/DX2                !
 ! D155  D(46,48,51,53)          0.1446         estimate D2E/DX2                !
 ! D156  D(46,48,51,55)        179.4924         estimate D2E/DX2                !
 ! D157  D(52,48,51,53)       -178.2718         estimate D2E/DX2                !
 ! D158  D(52,48,51,55)          1.076          estimate D2E/DX2                !
 ! D159  D(47,49,53,51)         -0.0471         estimate D2E/DX2                !
 ! D160  D(47,49,53,67)        179.9282         estimate D2E/DX2                !
 ! D161  D(54,49,53,51)       -179.3646         estimate D2E/DX2                !
 ! D162  D(54,49,53,67)          0.6107         estimate D2E/DX2                !
 ! D163  D(48,51,53,49)         -0.1163         estimate D2E/DX2                !
 ! D164  D(48,51,53,67)        179.9084         estimate D2E/DX2                !
 ! D165  D(55,51,53,49)       -179.4693         estimate D2E/DX2                !
 ! D166  D(55,51,53,67)          0.5554         estimate D2E/DX2                !
 ! D167  D(13,56,57,59)        179.8667         estimate D2E/DX2                !
 ! D168  D(13,56,57,60)         -1.7894         estimate D2E/DX2                !
 ! D169  D(58,56,57,59)         -0.1517         estimate D2E/DX2                !
 ! D170  D(58,56,57,60)        178.1922         estimate D2E/DX2                !
 ! D171  D(13,56,58,61)        179.9782         estimate D2E/DX2                !
 ! D172  D(13,56,58,62)         -1.6186         estimate D2E/DX2                !
 ! D173  D(57,56,58,61)         -0.0034         estimate D2E/DX2                !
 ! D174  D(57,56,58,62)        178.3998         estimate D2E/DX2                !
 ! D175  D(56,57,59,63)          0.1762         estimate D2E/DX2                !
 ! D176  D(56,57,59,64)        179.4948         estimate D2E/DX2                !
 ! D177  D(60,57,59,63)       -178.1755         estimate D2E/DX2                !
 ! D178  D(60,57,59,64)          1.143          estimate D2E/DX2                !
 ! D179  D(56,58,61,63)          0.1327         estimate D2E/DX2                !
 ! D180  D(56,58,61,65)        179.4846         estimate D2E/DX2                !
 ! D181  D(62,58,61,63)       -178.277          estimate D2E/DX2                !
 ! D182  D(62,58,61,65)          1.0749         estimate D2E/DX2                !
 ! D183  D(57,59,63,61)         -0.0434         estimate D2E/DX2                !
 ! D184  D(57,59,63,66)        179.9373         estimate D2E/DX2                !
 ! D185  D(64,59,63,61)       -179.3674         estimate D2E/DX2                !
 ! D186  D(64,59,63,66)          0.6133         estimate D2E/DX2                !
 ! D187  D(58,61,63,59)         -0.1089         estimate D2E/DX2                !
 ! D188  D(58,61,63,66)        179.9104         estimate D2E/DX2                !
 ! D189  D(65,61,63,59)       -179.4659         estimate D2E/DX2                !
 ! D190  D(65,61,63,66)          0.5534         estimate D2E/DX2                !
 --------------------------------------------------------------------------------
 Trust Radius=3.00D-01 FncErr=1.00D-07 GrdErr=1.00D-06
 Number of steps in this run=    402 maximum allowed number of steps=    414.
 GradGradGradGradGradGradGradGradGradGradGradGradGradGradGradGradGradGrad

 Leave Link  103 at Sat Feb 20 07:39:41 2021, MaxMem=  5242880000 cpu:         3.4
 (Enter /opt/nce/packages/global/g09/l202.exe)
 Symmetry turned off by external request.
 Stoichiometry    C39H27N3
 Framework group  C1[X(C39H27N3)]
 Deg. of freedom   201
 Full point group                 C1      NOp   1
                          Input orientation:                          
 ---------------------------------------------------------------------
 Center     Atomic      Atomic             Coordinates (Angstroms)
 Number     Number       Type             X           Y           Z
 ---------------------------------------------------------------------
      1          6           0        3.655688    0.761369   -0.403318
      2          6           0        2.431360    1.397545   -0.543103
      3          6           0        1.222255    0.675122   -0.467164
      4          6           0        1.264744   -0.716643   -0.236159
      5          6           0        2.515776   -1.324140   -0.098681
      6          6           0        3.729002   -0.623482   -0.176165
      7          6           0        0.000687   -1.578702   -0.166834
      8          6           0       -1.263899   -0.718838   -0.252928
      9          6           0       -1.220416    0.674895   -0.471414
     10          6           0       -2.429045    1.398539   -0.542641
     11          1           0       -2.401456    2.472717   -0.716202
     12          6           0       -3.653750    0.762364   -0.406195
     13          6           0       -3.728285   -0.625663   -0.200052
     14          6           0       -2.515618   -1.328168   -0.130752
     15          1           0        2.403789    2.473719   -0.703874
     16          1           0        2.552001   -2.404264    0.046496
     17          1           0       -4.567165    1.353841   -0.491183
     18          7           0        0.001151    1.341720   -0.613153
     19          6           0        0.001362    2.758345   -0.823789
     20          6           0       -0.000051    3.630455    0.306583
     21          6           0        0.002682    3.262123   -2.107392
     22          6           0       -0.001169    3.145814    1.642337
     23          6           0       -0.000162    5.046165    0.076202
     24          6           0        0.002553    4.660240   -2.329176
     25          1           0        0.003528    2.566002   -2.948090
     26          6           0       -0.002350    4.023802    2.705059
     27          1           0       -0.000873    2.068735    1.813510
     28          6           0       -0.001501    5.921856    1.197020
     29          6           0        0.001141    5.530962   -1.260783
     30          1           0        0.003438    5.042430   -3.352148
     31          6           0       -0.002555    5.423689    2.481951
     32          1           0       -0.002917    3.640350    3.727896
     33          1           0       -0.001526    7.000283    1.019938
     34          1           0        0.000985    6.610996   -1.427228
     35          1           0       -0.003368    6.106781    3.334397
     36          1           0       -2.551262   -2.402492    0.052294
     37          1           0        4.567914    1.359503   -0.442262
     38          6           0        0.007954   -2.571970   -1.354903
     39          1           0        0.012000   -2.029339   -2.311785
     40          1           0        0.897987   -3.218286   -1.324290
     41          1           0       -0.881746   -3.219263   -1.332129
     42          6           0       -0.005873   -2.362935    1.167182
     43          1           0        0.880677   -3.007580    1.253421
     44          1           0       -0.011756   -1.671412    2.022726
     45          1           0       -0.890579   -3.011044    1.244881
     46          6           0        5.026325   -1.315974   -0.023337
     47          6           0        5.159649   -2.436608    0.820559
     48          6           0        6.171142   -0.875738   -0.716893
     49          6           0        6.376726   -3.092781    0.965960
     50          1           0        4.298532   -2.783449    1.394225
     51          6           0        7.394704   -1.521109   -0.577461
     52          1           0        6.093549   -0.026700   -1.398023
     53          6           0        7.510934   -2.640578    0.266899
     54          1           0        6.462517   -3.954180    1.630543
     55          1           0        8.268598   -1.170572   -1.129243
     56          6           0       -5.026544   -1.319694   -0.062075
     57          6           0       -5.199638   -2.641070   -0.520002
     58          6           0       -6.132528   -0.680008    0.532151
     59          6           0       -6.417670   -3.298741   -0.389997
     60          1           0       -4.370664   -3.153098   -1.011479
     61          6           0       -7.356670   -1.325584    0.665167
     62          1           0       -6.022397    0.333928    0.920267
     63          6           0       -7.512789   -2.646138    0.205311
     64          1           0       -6.534962   -4.319388   -0.758182
     65          1           0       -8.199657   -0.816750    1.135798
     66          6           0       -8.771854   -3.318112    0.341205
     67          6           0        8.769237   -3.311723    0.413559
     68          7           0        9.788563   -3.855535    0.532317
     69          7           0       -9.791787   -3.862584    0.451429
 ---------------------------------------------------------------------
 Rotational constants (GHZ):      0.1019980      0.0410421      0.0312838
 Leave Link  202 at Sat Feb 20 07:39:41 2021, MaxMem=  5242880000 cpu:         0.1
 (Enter /opt/nce/packages/global/g09/l301.exe)
 Standard basis: def2TZVP (5D, 7F)
 Ernie: Thresh=  0.10000D-02 Tol=  0.10000D-05 Strict=F.
  1464 basis functions,  2358 primitive gaussians,  1674 cartesian basis functions
   141 alpha electrons      141 beta electrons
       nuclear repulsion energy      4204.9252395032 Hartrees.
 IExCor= 4235 DFT=T Ex+Corr=M06 ExCW=0 ScaHFX=  0.270000
 ScaDFX=  1.000000  1.000000  1.000000  1.000000 ScalE2=  1.000000  1.000000
 IRadAn=      5 IRanWt=     -1 IRanGd=            0 ICorTp=0 IEmpDi=  4
 NAtoms=   69 NActive=   69 NUniq=   69 SFac= 1.00D+00 NAtFMM=   60 NAOKFM=T Big=T
 Integral buffers will be    131072 words long.
 Raffenetti 2 integral format.
 Two-electron integral symmetry is turned off.
 ------------------------------------------------------------------------------
 Polarizable Continuum Model (PCM)
 =================================
 Model                : PCM (using non-symmetric T matrix).
 Atomic radii         : SMD-Coulomb.
 Polarization charges : Total charges.
 Charge compensation  : None.
 Solution method      : On-the-fly selection.
 Cavity type          : VdW (van der Waals Surface) (Alpha=1.000).
 Cavity algorithm     : GePol (No added spheres)
                        Default sphere list used, NSphG=   69.
                        Lebedev-Laikov grids with approx.  5.0 points / Ang**2.
                        Smoothing algorithm: York/Karplus (Gamma=1.0000).
                        Polarization charges: spherical gaussians, with
                                              point-specific exponents (IZeta= 3).
                        Self-potential: point-specific (ISelfS= 7).
                        Self-field    : sphere-specific E.n sum rule (ISelfD= 2).
 1st derivatives      : Analytical E(r).r(x)/FMM algorithm (CHGder, D1EAlg=3).
                        Cavity 1st derivative terms included.
 Solvent              : n,n-DiMethylFormamide, Eps=  37.219000 Eps(inf)=   2.046330
 ------------------------------------------------------------------------------
 GePol: Number of generator spheres                  =      69
 GePol: Total number of spheres                      =      69
 GePol: Number of exposed spheres                    =      69 (100.00%)
 GePol: Number of points                             =    5359
 GePol: Average weight of points                     =       0.11
 GePol: Minimum weight of points                     =   0.49D-11
 GePol: Maximum weight of points                     =    0.17992
 GePol: Number of points with low weight             =     307
 GePol: Fraction of low-weight points (<1% of avg)   =       5.73%
 GePol: Cavity surface area                          =    575.459 Ang**2
 GePol: Cavity volume                                =    565.600 Ang**3
 ------------------------------------------------------------------------------
 Atomic radii for non-electrostatic terms: SMD-CDS.
 ------------------------------------------------------------------------------
 PCM non-electrostatic energy =        -0.0036462890 Hartrees.
 Nuclear repulsion after PCM non-electrostatic terms =     4204.9215932142 Hartrees.
 Leave Link  301 at Sat Feb 20 07:39:47 2021, MaxMem=  5242880000 cpu:        25.3
 (Enter /opt/nce/packages/global/g09/l302.exe)
 NPDir=0 NMtPBC=     1 NCelOv=     1 NCel=       1 NClECP=     1 NCelD=      1
         NCelK=      1 NCelE2=     1 NClLst=     1 CellRange=     0.0.
 One-electron integrals computed using PRISM.
   1 Symmetry operations used in ECPInt.
 ECPInt:  NShTT=  162735 NPrTT=  503508 LenC2=  113989 LenP2D=  233081.
 LDataN:  DoStor=T MaxTD1= 6 Len=  172
 NBasis=  1464 RedAO= T EigKep=  3.48D-06  NBF=  1464
 NBsUse=  1464 1.00D-06 EigRej= -1.00D+00 NBFU=  1464
 Precomputing XC quadrature grid using
 IXCGrd= 4 IRadAn=           5 IRanWt=          -1 IRanGd=           0 AccXCQ= 0.00D+00.
 Generated NRdTot=       0 NPtTot=           0 NUsed=           0 NTot=          32
 NSgBfM=  1456  1456  1463  1473  1473 MxSgAt=    69 MxSgA2=    69.
 Leave Link  302 at Sat Feb 20 07:39:52 2021, MaxMem=  5242880000 cpu:        61.2
 (Enter /opt/nce/packages/global/g09/l303.exe)
 DipDrv:  MaxL=1.
 Leave Link  303 at Sat Feb 20 07:39:53 2021, MaxMem=  5242880000 cpu:         5.5
 (Enter /opt/nce/packages/global/g09/l401.exe)
 ExpMin= 9.52D-02 ExpMax= 1.97D+04 ExpMxC= 6.73D+02 IAcc=3 IRadAn=         5 AccDes= 0.00D+00
 Harris functional with IExCor= 1009 and IRadAn=       5 diagonalized for initial guess.
 HarFok:  IExCor= 1009 AccDes= 0.00D+00 IRadAn=         5 IDoV= 1 UseB2=F ITyADJ=14
 ICtDFT=  3500011 ScaDFX=  1.000000  1.000000  1.000000  1.000000
 FoFCou: FMM=F IPFlag=           0 FMFlag=      100000 FMFlg1=        2001
         NFxFlg=           0 DoJE=T BraDBF=F KetDBF=T FulRan=T
         wScrn=  0.000000 ICntrl=     500 IOpCl=  0 I1Cent=   200000004 NGrid=           0
         NMat0=    1 NMatS0=      1 NMatT0=    0 NMatD0=    1 NMtDS0=    0 NMtDT0=    0
 Symmetry not used in FoFCou.
 Harris En= -1665.78110317570    
 JPrj=0 DoOrth=F DoCkMO=F.
 Leave Link  401 at Sat Feb 20 07:40:12 2021, MaxMem=  5242880000 cpu:       215.5
 (Enter /opt/nce/packages/global/g09/l502.exe)
 Closed shell SCF:
 Using DIIS extrapolation, IDIIS=  1040.
 Two-electron integral symmetry not used.
 IVT=     8455648 IEndB=     8455648 NGot=  5242880000 MDV=  5237244943
 LenX=  5237244943 LenY=  5234440993
 Requested convergence on RMS density matrix=1.00D-08 within 128 cycles.
 Requested convergence on MAX density matrix=1.00D-06.
 Requested convergence on             energy=1.00D-06.
 No special actions if energy rises.
 Fock matrices will be formed incrementally for  20 cycles.

 Cycle   1  Pass 1  IDiag  1:
 FoFJK:  IHMeth= 1 ICntrl=       0 DoSepK=F KAlg= 0 I1Cent=   0 FoldK=F
 IRaf= 640000000 NMat=   1 IRICut=       1 DoRegI=T DoRafI=F ISym2E= 0.
 FoFCou: FMM=T IPFlag=           0 FMFlag=      100000 FMFlg1=        2001
         NFxFlg=           0 DoJE=F BraDBF=F KetDBF=F FulRan=T
         wScrn=  0.000000 ICntrl=       0 IOpCl=  0 I1Cent=           0 NGrid=           0
         NMat0=    1 NMatS0=      1 NMatT0=    0 NMatD0=    1 NMtDS0=    0 NMtDT0=    0
 Symmetry not used in FoFCou.
 FMM levels:  10  Number of levels for PrismC:   9
 Inv3:  Mode=1 IEnd=    86156643.
 Iteration    1 A*A^-1 deviation from unit magnitude is 1.13D-14 for   5340.
 Iteration    1 A*A^-1 deviation from orthogonality  is 8.19D-15 for   5353   4639.
 Iteration    1 A^-1*A deviation from unit magnitude is 1.07D-14 for   5340.
 Iteration    1 A^-1*A deviation from orthogonality  is 6.27D-11 for   4864   4855.
 E= -1665.31291111530    
 DIIS: error= 1.93D-02 at cycle   1 NSaved=   1.
 NSaved= 1 IEnMin= 1 EnMin= -1665.31291111530     IErMin= 1 ErrMin= 1.93D-02
 ErrMax= 1.93D-02  0.00D+00 EMaxC= 1.00D-01 BMatC= 7.13D-01 BMatP= 7.13D-01
 IDIUse=3 WtCom= 8.07D-01 WtEn= 1.93D-01
 Coeff-Com:  0.100D+01
 Coeff-En:   0.100D+01
 Coeff:      0.100D+01
 Gap=     0.170 Goal=   None    Shift=    0.000
 GapD=    0.170 DampG=1.000 DampE=0.500 DampFc=0.5000 IDamp=-1.
 Damping current iteration by 5.00D-01
 RMSDP=2.81D-03 MaxDP=6.06D-01              OVMax= 2.17D-01

 Cycle   2  Pass 1  IDiag  1:
 RMSU=  1.40D-03    CP:  1.00D+00
 E= -1665.63841791070     Delta-E=       -0.325506795403 Rises=F Damp=T
 DIIS: error= 3.91D-03 at cycle   2 NSaved=   2.
 NSaved= 2 IEnMin= 2 EnMin= -1665.63841791070     IErMin= 2 ErrMin= 3.91D-03
 ErrMax= 3.91D-03  0.00D+00 EMaxC= 1.00D-01 BMatC= 5.75D-02 BMatP= 7.13D-01
 IDIUse=3 WtCom= 9.61D-01 WtEn= 3.91D-02
 Coeff-Com:  0.365D-01 0.963D+00
 Coeff-En:   0.525D-01 0.947D+00
 Coeff:      0.371D-01 0.963D+00
 Gap=     0.137 Goal=   None    Shift=    0.000
 RMSDP=1.16D-03 MaxDP=1.16D-01 DE=-3.26D-01 OVMax= 2.27D-01

 Cycle   3  Pass 1  IDiag  1:
 RMSU=  1.15D-03    CP:  1.01D+00  1.05D+00
 E= -1665.96020003146     Delta-E=       -0.321782120762 Rises=F Damp=F
 DIIS: error= 6.12D-03 at cycle   3 NSaved=   3.
 NSaved= 3 IEnMin= 3 EnMin= -1665.96020003146     IErMin= 2 ErrMin= 3.91D-03
 ErrMax= 6.12D-03  0.00D+00 EMaxC= 1.00D-01 BMatC= 7.42D-02 BMatP= 5.75D-02
 IDIUse=3 WtCom= 1.13D-01 WtEn= 8.87D-01
 Coeff-Com: -0.437D-01 0.558D+00 0.486D+00
 Coeff-En:   0.000D+00 0.000D+00 0.100D+01
 Coeff:     -0.496D-02 0.632D-01 0.942D+00
 Gap=     0.178 Goal=   None    Shift=    0.000
 RMSDP=6.11D-04 MaxDP=6.24D-02 DE=-3.22D-01 OVMax= 1.76D-01

 Cycle   4  Pass 1  IDiag  1:
 RMSU=  5.80D-04    CP:  1.01D+00  1.07D+00  8.36D-01
 E= -1665.79090268408     Delta-E=        0.169297347383 Rises=F Damp=F
 DIIS: error= 1.08D-02 at cycle   4 NSaved=   4.
 NSaved= 4 IEnMin= 3 EnMin= -1665.96020003146     IErMin= 2 ErrMin= 3.91D-03
 ErrMax= 1.08D-02  0.00D+00 EMaxC= 1.00D-01 BMatC= 2.56D-01 BMatP= 5.75D-02
 IDIUse=2 WtCom= 0.00D+00 WtEn= 1.00D+00
 Coeff-En:   0.000D+00 0.000D+00 0.719D+00 0.281D+00
 Coeff:      0.000D+00 0.000D+00 0.719D+00 0.281D+00
 Gap=     0.150 Goal=   None    Shift=    0.000
 RMSDP=2.96D-04 MaxDP=3.28D-02 DE= 1.69D-01 OVMax= 9.71D-02

 Cycle   5  Pass 1  IDiag  1:
 RMSU=  9.52D-05    CP:  1.01D+00  1.03D+00  9.25D-01  5.65D-01
 E= -1666.02129032416     Delta-E=       -0.230387640076 Rises=F Damp=F
 DIIS: error= 2.10D-03 at cycle   5 NSaved=   5.
 NSaved= 5 IEnMin= 5 EnMin= -1666.02129032416     IErMin= 5 ErrMin= 2.10D-03
 ErrMax= 2.10D-03  0.00D+00 EMaxC= 1.00D-01 BMatC= 1.19D-02 BMatP= 5.75D-02
 IDIUse=3 WtCom= 9.79D-01 WtEn= 2.10D-02
 Coeff-Com:  0.466D-02 0.132D-02 0.308D+00 0.261D-01 0.660D+00
 Coeff-En:   0.000D+00 0.000D+00 0.171D+00 0.000D+00 0.829D+00
 Coeff:      0.456D-02 0.129D-02 0.305D+00 0.255D-01 0.664D+00
 Gap=     0.139 Goal=   None    Shift=    0.000
 RMSDP=9.76D-05 MaxDP=1.13D-02 DE=-2.30D-01 OVMax= 3.60D-02

 Cycle   6  Pass 1  IDiag  1:
 RMSU=  4.25D-05    CP:  1.01D+00  1.03D+00  9.49D-01  4.22D-01  9.70D-01
 E= -1666.03256215399     Delta-E=       -0.011271829832 Rises=F Damp=F
 DIIS: error= 4.74D-04 at cycle   6 NSaved=   6.
 NSaved= 6 IEnMin= 6 EnMin= -1666.03256215399     IErMin= 6 ErrMin= 4.74D-04
 ErrMax= 4.74D-04  0.00D+00 EMaxC= 1.00D-01 BMatC= 2.92D-04 BMatP= 1.19D-02
 IDIUse=3 WtCom= 9.95D-01 WtEn= 4.74D-03
 Coeff-Com:  0.594D-03-0.341D-02 0.102D+00-0.367D-01 0.430D+00 0.507D+00
 Coeff-En:   0.000D+00 0.000D+00 0.000D+00 0.000D+00 0.000D+00 0.100D+01
 Coeff:      0.591D-03-0.340D-02 0.101D+00-0.366D-01 0.428D+00 0.510D+00
 Gap=     0.140 Goal=   None    Shift=    0.000
 RMSDP=1.90D-05 MaxDP=1.83D-03 DE=-1.13D-02 OVMax= 5.13D-03

 Cycle   7  Pass 1  IDiag  1:
 RMSU=  1.50D-05    CP:  1.01D+00  1.03D+00  9.53D-01  4.30D-01  1.06D+00
                    CP:  9.12D-01
 E= -1666.03280242217     Delta-E=       -0.000240268188 Rises=F Damp=F
 DIIS: error= 1.14D-04 at cycle   7 NSaved=   7.
 NSaved= 7 IEnMin= 7 EnMin= -1666.03280242217     IErMin= 7 ErrMin= 1.14D-04
 ErrMax= 1.14D-04  0.00D+00 EMaxC= 1.00D-01 BMatC= 2.28D-05 BMatP= 2.92D-04
 IDIUse=3 WtCom= 9.99D-01 WtEn= 1.14D-03
 Coeff-Com: -0.267D-03-0.395D-03 0.273D-01-0.248D-01 0.178D+00 0.294D+00
 Coeff-Com:  0.526D+00
 Coeff-En:   0.000D+00 0.000D+00 0.000D+00 0.000D+00 0.000D+00 0.000D+00
 Coeff-En:   0.100D+01
 Coeff:     -0.267D-03-0.395D-03 0.273D-01-0.248D-01 0.178D+00 0.293D+00
 Coeff:      0.526D+00
 Gap=     0.140 Goal=   None    Shift=    0.000
 RMSDP=7.53D-06 MaxDP=8.28D-04 DE=-2.40D-04 OVMax= 1.23D-03

 Cycle   8  Pass 1  IDiag  1:
 RMSU=  5.33D-06    CP:  1.01D+00  1.03D+00  9.55D-01  4.32D-01  1.09D+00
                    CP:  9.86D-01  1.08D+00
 E= -1666.03282327198     Delta-E=       -0.000020849804 Rises=F Damp=F
 DIIS: error= 2.72D-05 at cycle   8 NSaved=   8.
 NSaved= 8 IEnMin= 8 EnMin= -1666.03282327198     IErMin= 8 ErrMin= 2.72D-05
 ErrMax= 2.72D-05  0.00D+00 EMaxC= 1.00D-01 BMatC= 1.57D-06 BMatP= 2.28D-05
 IDIUse=1 WtCom= 1.00D+00 WtEn= 0.00D+00
 Coeff-Com: -0.946D-04 0.888D-05-0.284D-02-0.613D-02 0.171D-01 0.644D-01
 Coeff-Com:  0.237D+00 0.690D+00
 Coeff:     -0.946D-04 0.888D-05-0.284D-02-0.613D-02 0.171D-01 0.644D-01
 Coeff:      0.237D+00 0.690D+00
 Gap=     0.140 Goal=   None    Shift=    0.000
 RMSDP=4.61D-06 MaxDP=4.98D-04 DE=-2.08D-05 OVMax= 4.06D-04

 Cycle   9  Pass 1  IDiag  1:
 RMSU=  2.30D-06    CP:  1.01D+00  1.03D+00  9.56D-01  4.34D-01  1.11D+00
                    CP:  1.04D+00  1.24D+00  1.19D+00
 E= -1666.03282462032     Delta-E=       -0.000001348340 Rises=F Damp=F
 DIIS: error= 1.19D-05 at cycle   9 NSaved=   9.
 NSaved= 9 IEnMin= 9 EnMin= -1666.03282462032     IErMin= 9 ErrMin= 1.19D-05
 ErrMax= 1.19D-05  0.00D+00 EMaxC= 1.00D-01 BMatC= 2.77D-07 BMatP= 1.57D-06
 IDIUse=1 WtCom= 1.00D+00 WtEn= 0.00D+00
 Coeff-Com:  0.555D-04-0.194D-03-0.408D-02 0.297D-04-0.117D-01-0.354D-03
 Coeff-Com:  0.531D-01 0.348D+00 0.616D+00
 Coeff:      0.555D-04-0.194D-03-0.408D-02 0.297D-04-0.117D-01-0.354D-03
 Coeff:      0.531D-01 0.348D+00 0.616D+00
 Gap=     0.140 Goal=   None    Shift=    0.000
 RMSDP=2.02D-06 MaxDP=4.13D-04 DE=-1.35D-06 OVMax= 1.28D-04

 Cycle  10  Pass 1  IDiag  1:
 RMSU=  9.01D-07    CP:  1.01D+00  1.03D+00  9.56D-01  4.35D-01  1.12D+00
                    CP:  1.06D+00  1.29D+00  1.31D+00  1.29D+00
 E= -1666.03282489508     Delta-E=       -0.000000274759 Rises=F Damp=F
 DIIS: error= 3.40D-06 at cycle  10 NSaved=  10.
 NSaved=10 IEnMin=10 EnMin= -1666.03282489508     IErMin=10 ErrMin= 3.40D-06
 ErrMax= 3.40D-06  0.00D+00 EMaxC= 1.00D-01 BMatC= 2.92D-08 BMatP= 2.77D-07
 IDIUse=1 WtCom= 1.00D+00 WtEn= 0.00D+00
 Coeff-Com:  0.601D-04-0.147D-03-0.142D-02 0.103D-02-0.814D-02-0.983D-02
 Coeff-Com: -0.142D-01 0.481D-01 0.274D+00 0.711D+00
 Coeff:      0.601D-04-0.147D-03-0.142D-02 0.103D-02-0.814D-02-0.983D-02
 Coeff:     -0.142D-01 0.481D-01 0.274D+00 0.711D+00
 Gap=     0.140 Goal=   None    Shift=    0.000
 RMSDP=1.04D-06 MaxDP=1.31D-04 DE=-2.75D-07 OVMax= 6.38D-05

 Cycle  11  Pass 1  IDiag  1:
 RMSU=  2.82D-07    CP:  1.01D+00  1.03D+00  9.56D-01  4.35D-01  1.12D+00
                    CP:  1.07D+00  1.32D+00  1.38D+00  1.48D+00  1.19D+00
 E= -1666.03282492525     Delta-E=       -0.000000030169 Rises=F Damp=F
 DIIS: error= 1.20D-06 at cycle  11 NSaved=  11.
 NSaved=11 IEnMin=11 EnMin= -1666.03282492525     IErMin=11 ErrMin= 1.20D-06
 ErrMax= 1.20D-06  0.00D+00 EMaxC= 1.00D-01 BMatC= 3.51D-09 BMatP= 2.92D-08
 IDIUse=1 WtCom= 1.00D+00 WtEn= 0.00D+00
 Coeff-Com:  0.217D-04-0.437D-04-0.297D-03 0.448D-03-0.260D-02-0.432D-02
 Coeff-Com: -0.116D-01-0.993D-02 0.606D-01 0.321D+00 0.646D+00
 Coeff:      0.217D-04-0.437D-04-0.297D-03 0.448D-03-0.260D-02-0.432D-02
 Coeff:     -0.116D-01-0.993D-02 0.606D-01 0.321D+00 0.646D+00
 Gap=     0.140 Goal=   None    Shift=    0.000
 RMSDP=3.33D-07 MaxDP=4.27D-05 DE=-3.02D-08 OVMax= 1.51D-05

 Cycle  12  Pass 1  IDiag  1:
 RMSU=  9.59D-08    CP:  1.01D+00  1.03D+00  9.56D-01  4.35D-01  1.12D+00
                    CP:  1.08D+00  1.34D+00  1.40D+00  1.55D+00  1.27D+00
                    CP:  1.11D+00
 E= -1666.03282492865     Delta-E=       -0.000000003407 Rises=F Damp=F
 DIIS: error= 5.72D-07 at cycle  12 NSaved=  12.
 NSaved=12 IEnMin=12 EnMin= -1666.03282492865     IErMin=12 ErrMin= 5.72D-07
 ErrMax= 5.72D-07  0.00D+00 EMaxC= 1.00D-01 BMatC= 6.10D-10 BMatP= 3.51D-09
 IDIUse=1 WtCom= 1.00D+00 WtEn= 0.00D+00
 Coeff-Com:  0.169D-05 0.181D-05 0.441D-04 0.708D-04-0.130D-03-0.756D-03
 Coeff-Com: -0.364D-02-0.110D-01-0.107D-01 0.580D-01 0.328D+00 0.640D+00
 Coeff:      0.169D-05 0.181D-05 0.441D-04 0.708D-04-0.130D-03-0.756D-03
 Coeff:     -0.364D-02-0.110D-01-0.107D-01 0.580D-01 0.328D+00 0.640D+00
 Gap=     0.140 Goal=   None    Shift=    0.000
 RMSDP=1.38D-07 MaxDP=1.93D-05 DE=-3.41D-09 OVMax= 9.86D-06

 Cycle  13  Pass 1  IDiag  1:
 RMSU=  4.17D-08    CP:  1.01D+00  1.03D+00  9.56D-01  4.35D-01  1.12D+00
                    CP:  1.08D+00  1.34D+00  1.40D+00  1.58D+00  1.31D+00
                    CP:  1.24D+00  1.23D+00
 E= -1666.03282492927     Delta-E=       -0.000000000612 Rises=F Damp=F
 DIIS: error= 1.86D-07 at cycle  13 NSaved=  13.
 NSaved=13 IEnMin=13 EnMin= -1666.03282492927     IErMin=13 ErrMin= 1.86D-07
 ErrMax= 1.86D-07  0.00D+00 EMaxC= 1.00D-01 BMatC= 9.22D-11 BMatP= 6.10D-10
 IDIUse=1 WtCom= 1.00D+00 WtEn= 0.00D+00
 Coeff-Com: -0.215D-05 0.722D-05 0.584D-04-0.210D-04 0.260D-03 0.132D-03
 Coeff-Com: -0.309D-03-0.413D-02-0.138D-01-0.111D-01 0.922D-01 0.340D+00
 Coeff-Com:  0.597D+00
 Coeff:     -0.215D-05 0.722D-05 0.584D-04-0.210D-04 0.260D-03 0.132D-03
 Coeff:     -0.309D-03-0.413D-02-0.138D-01-0.111D-01 0.922D-01 0.340D+00
 Coeff:      0.597D+00
 Gap=     0.140 Goal=   None    Shift=    0.000
 RMSDP=5.13D-08 MaxDP=8.19D-06 DE=-6.12D-10 OVMax= 3.82D-06

 Cycle  14  Pass 1  IDiag  1:
 RMSU=  1.95D-08    CP:  1.01D+00  1.03D+00  9.56D-01  4.35D-01  1.12D+00
                    CP:  1.08D+00  1.34D+00  1.41D+00  1.59D+00  1.32D+00
                    CP:  1.29D+00  1.40D+00  1.17D+00
 E= -1666.03282492932     Delta-E=       -0.000000000058 Rises=F Damp=F
 DIIS: error= 4.86D-08 at cycle  14 NSaved=  14.
 NSaved=14 IEnMin=14 EnMin= -1666.03282492932     IErMin=14 ErrMin= 4.86D-08
 ErrMax= 4.86D-08  0.00D+00 EMaxC= 1.00D-01 BMatC= 6.71D-12 BMatP= 9.22D-11
 IDIUse=1 WtCom= 1.00D+00 WtEn= 0.00D+00
 Coeff-Com: -0.109D-05 0.287D-05 0.186D-04-0.158D-04 0.114D-03 0.126D-03
 Coeff-Com:  0.345D-03-0.147D-03-0.402D-02-0.111D-01-0.380D-02 0.473D-01
 Coeff-Com:  0.230D+00 0.741D+00
 Coeff:     -0.109D-05 0.287D-05 0.186D-04-0.158D-04 0.114D-03 0.126D-03
 Coeff:      0.345D-03-0.147D-03-0.402D-02-0.111D-01-0.380D-02 0.473D-01
 Coeff:      0.230D+00 0.741D+00
 Gap=     0.140 Goal=   None    Shift=    0.000
 RMSDP=3.39D-08 MaxDP=3.31D-06 DE=-5.82D-11 OVMax= 8.42D-07

 Cycle  15  Pass 1  IDiag  1:
 RMSU=  1.73D-08    CP:  1.01D+00  1.03D+00  9.56D-01  4.35D-01  1.12D+00
                    CP:  1.08D+00  1.34D+00  1.41D+00  1.59D+00  1.33D+00
                    CP:  1.31D+00  1.49D+00  1.41D+00  1.98D+00
 E= -1666.03282492938     Delta-E=       -0.000000000058 Rises=F Damp=F
 DIIS: error= 2.98D-08 at cycle  15 NSaved=  15.
 NSaved=15 IEnMin=15 EnMin= -1666.03282492938     IErMin=15 ErrMin= 2.98D-08
 ErrMax= 2.98D-08  0.00D+00 EMaxC= 1.00D-01 BMatC= 1.60D-12 BMatP= 6.71D-12
 IDIUse=1 WtCom= 1.00D+00 WtEn= 0.00D+00
 Coeff-Com: -0.204D-06 0.312D-06 0.291D-06-0.388D-05 0.130D-04 0.330D-04
 Coeff-Com:  0.196D-03 0.532D-03 0.751D-04-0.354D-02-0.153D-01-0.294D-01
 Coeff-Com:  0.257D-01 0.373D+00 0.649D+00
 Coeff:     -0.204D-06 0.312D-06 0.291D-06-0.388D-05 0.130D-04 0.330D-04
 Coeff:      0.196D-03 0.532D-03 0.751D-04-0.354D-02-0.153D-01-0.294D-01
 Coeff:      0.257D-01 0.373D+00 0.649D+00
 Gap=     0.140 Goal=   None    Shift=    0.000
 RMSDP=3.70D-08 MaxDP=2.60D-06 DE=-5.82D-11 OVMax= 4.81D-07

 Cycle  16  Pass 1  IDiag  1:
 RMSU=  1.38D-08    CP:  1.01D+00  1.03D+00  9.56D-01  4.35D-01  1.12D+00
                    CP:  1.08D+00  1.34D+00  1.41D+00  1.59D+00  1.33D+00
                    CP:  1.32D+00  1.54D+00  1.62D+00  3.00D+00  2.25D+00
 E= -1666.03282492937     Delta-E=        0.000000000017 Rises=F Damp=F
 DIIS: error= 3.11D-08 at cycle  16 NSaved=  16.
 NSaved=16 IEnMin=15 EnMin= -1666.03282492938     IErMin=15 ErrMin= 2.98D-08
 ErrMax= 3.11D-08  0.00D+00 EMaxC= 1.00D-01 BMatC= 5.50D-13 BMatP= 1.60D-12
 IDIUse=1 WtCom= 1.00D+00 WtEn= 0.00D+00
 Coeff-Com: -0.876D-07 0.568D-07-0.531D-06-0.187D-05 0.393D-05 0.163D-04
 Coeff-Com:  0.109D-03 0.347D-03 0.195D-03-0.179D-02-0.961D-02-0.208D-01
 Coeff-Com:  0.810D-02 0.208D+00 0.423D+00 0.392D+00
 Coeff:     -0.876D-07 0.568D-07-0.531D-06-0.187D-05 0.393D-05 0.163D-04
 Coeff:      0.109D-03 0.347D-03 0.195D-03-0.179D-02-0.961D-02-0.208D-01
 Coeff:      0.810D-02 0.208D+00 0.423D+00 0.392D+00
 Gap=     0.140 Goal=   None    Shift=    0.000
 RMSDP=3.07D-08 MaxDP=2.33D-06 DE= 1.73D-11 OVMax= 5.83D-08

 Cycle  17  Pass 1  IDiag  1:
 RMSU=  1.64D-08    CP:  1.01D+00  1.03D+00  9.56D-01  4.35D-01  1.12D+00
                    CP:  1.08D+00  1.34D+00  1.41D+00  1.59D+00  1.33D+00
                    CP:  1.32D+00  1.57D+00  1.76D+00  3.00D+00  3.00D+00
                    CP:  2.30D+00
 E= -1666.03282492947     Delta-E=       -0.000000000103 Rises=F Damp=F
 DIIS: error= 4.18D-08 at cycle  17 NSaved=  17.
 NSaved=17 IEnMin=17 EnMin= -1666.03282492947     IErMin=15 ErrMin= 2.98D-08
 ErrMax= 4.18D-08  0.00D+00 EMaxC= 1.00D-01 BMatC= 6.94D-13 BMatP= 5.50D-13
 IDIUse=1 WtCom= 1.00D+00 WtEn= 0.00D+00
 Coeff-Com: -0.683D-07-0.336D-07-0.132D-05-0.171D-05 0.663D-06 0.151D-04
 Coeff-Com:  0.120D-03 0.427D-03 0.383D-03-0.177D-02-0.115D-01-0.269D-01
 Coeff-Com:  0.188D-02 0.228D+00 0.518D+00 0.779D+00-0.488D+00
 Coeff:     -0.683D-07-0.336D-07-0.132D-05-0.171D-05 0.663D-06 0.151D-04
 Coeff:      0.120D-03 0.427D-03 0.383D-03-0.177D-02-0.115D-01-0.269D-01
 Coeff:      0.188D-02 0.228D+00 0.518D+00 0.779D+00-0.488D+00
 Gap=     0.140 Goal=   None    Shift=    0.000
 RMSDP=3.26D-08 MaxDP=2.25D-06 DE=-1.03D-10 OVMax= 4.44D-08

 Cycle  18  Pass 1  IDiag  1:
 RMSU=  9.08D-09    CP:  1.01D+00  1.03D+00  9.56D-01  4.35D-01  1.12D+00
                    CP:  1.08D+00  1.34D+00  1.41D+00  1.59D+00  1.33D+00
                    CP:  1.32D+00  1.55D+00  1.63D+00  3.00D+00  2.39D+00
                    CP:  8.59D-01 -8.34D-02
 E= -1666.03282492936     Delta-E=        0.000000000107 Rises=F Damp=F
 DIIS: error= 3.27D-08 at cycle  18 NSaved=  18.
 NSaved=18 IEnMin=17 EnMin= -1666.03282492947     IErMin=15 ErrMin= 2.98D-08
 ErrMax= 3.27D-08  0.00D+00 EMaxC= 1.00D-01 BMatC= 4.74D-13 BMatP= 5.50D-13
 IDIUse=1 WtCom= 1.00D+00 WtEn= 0.00D+00
 Coeff-Com: -0.958D-08-0.154D-06-0.141D-05-0.702D-06-0.278D-05 0.710D-05
 Coeff-Com:  0.688D-04 0.296D-03 0.375D-03-0.831D-03-0.776D-02-0.200D-01
 Coeff-Com: -0.575D-02 0.126D+00 0.357D+00 0.901D+00-0.122D+01 0.874D+00
 Coeff:     -0.958D-08-0.154D-06-0.141D-05-0.702D-06-0.278D-05 0.710D-05
 Coeff:      0.688D-04 0.296D-03 0.375D-03-0.831D-03-0.776D-02-0.200D-01
 Coeff:     -0.575D-02 0.126D+00 0.357D+00 0.901D+00-0.122D+01 0.874D+00
 Gap=     0.140 Goal=   None    Shift=    0.000
 RMSDP=2.96D-08 MaxDP=1.76D-06 DE= 1.07D-10 OVMax= 5.08D-08

 Cycle  19  Pass 1  IDiag  1:
 RMSU=  1.71D-08    CP:  1.01D+00  1.03D+00  9.56D-01  4.35D-01  1.12D+00
                    CP:  1.08D+00  1.34D+00  1.41D+00  1.59D+00  1.33D+00
                    CP:  1.32D+00  1.54D+00  1.57D+00  2.62D+00  1.80D+00
                    CP:  3.46D-01 -5.24D-01  2.72D+00
 E= -1666.03282492949     Delta-E=       -0.000000000125 Rises=F Damp=F
 DIIS: error= 2.53D-08 at cycle  19 NSaved=  19.
 NSaved=19 IEnMin=19 EnMin= -1666.03282492949     IErMin=19 ErrMin= 2.53D-08
 ErrMax= 2.53D-08  0.00D+00 EMaxC= 1.00D-01 BMatC= 3.50D-13 BMatP= 4.74D-13
 IDIUse=1 WtCom= 1.00D+00 WtEn= 0.00D+00
 Coeff-Com: -0.169D-07-0.116D-06-0.119D-05-0.754D-06-0.184D-05 0.739D-05
 Coeff-Com:  0.659D-04 0.272D-03 0.317D-03-0.849D-03-0.720D-02-0.181D-01
 Coeff-Com: -0.374D-02 0.121D+00 0.327D+00 0.765D+00-0.109D+01 0.636D+00
 Coeff-Com:  0.267D+00
 Coeff:     -0.169D-07-0.116D-06-0.119D-05-0.754D-06-0.184D-05 0.739D-05
 Coeff:      0.659D-04 0.272D-03 0.317D-03-0.849D-03-0.720D-02-0.181D-01
 Coeff:     -0.374D-02 0.121D+00 0.327D+00 0.765D+00-0.109D+01 0.636D+00
 Coeff:      0.267D+00
 Gap=     0.140 Goal=   None    Shift=    0.000
 RMSDP=1.11D-08 MaxDP=5.08D-07 DE=-1.25D-10 OVMax= 1.41D-08

 Cycle  20  Pass 1  IDiag  1:
 RMSU=  5.86D-09    CP:  1.01D+00  1.03D+00  9.56D-01  4.35D-01  1.12D+00
                    CP:  1.08D+00  1.34D+00  1.41D+00  1.59D+00  1.33D+00
                    CP:  1.32D+00  1.54D+00  1.57D+00  2.59D+00  1.75D+00
                    CP:  3.66D-01 -5.32D-01  2.80D+00  1.54D+00
 E= -1666.03282492934     Delta-E=        0.000000000142 Rises=F Damp=F
 DIIS: error= 2.66D-08 at cycle  20 NSaved=  20.
 NSaved=20 IEnMin=19 EnMin= -1666.03282492949     IErMin=19 ErrMin= 2.53D-08
 ErrMax= 2.66D-08  0.00D+00 EMaxC= 1.00D-01 BMatC= 3.46D-13 BMatP= 3.50D-13
 IDIUse=1 WtCom= 1.00D+00 WtEn= 0.00D+00
 Coeff-Com: -0.172D-07-0.113D-06-0.120D-05-0.752D-06-0.185D-05 0.730D-05
 Coeff-Com:  0.659D-04 0.272D-03 0.317D-03-0.847D-03-0.717D-02-0.180D-01
 Coeff-Com: -0.367D-02 0.122D+00 0.327D+00 0.757D+00-0.106D+01 0.562D+00
 Coeff-Com: -0.639D-02 0.325D+00
 Coeff:     -0.172D-07-0.113D-06-0.120D-05-0.752D-06-0.185D-05 0.730D-05
 Coeff:      0.659D-04 0.272D-03 0.317D-03-0.847D-03-0.717D-02-0.180D-01
 Coeff:     -0.367D-02 0.122D+00 0.327D+00 0.757D+00-0.106D+01 0.562D+00
 Coeff:     -0.639D-02 0.325D+00
 Gap=     0.140 Goal=   None    Shift=    0.000
 RMSDP=6.63D-09 MaxDP=6.21D-07 DE= 1.42D-10 OVMax= 5.50D-09

 Error on total polarization charges =  0.07604
 SCF Done:  E(RM06) =  -1666.03282493     A.U. after   20 cycles
            NFock= 20  Conv=0.66D-08     -V/T= 2.0058
 KE= 1.656425591554D+03 PE=-1.227371887596D+04 EE= 4.746338866258D+03
 SMD-CDS (non-electrostatic) energy       (kcal/mol) =      -2.29
 (included in total energy above)
 Leave Link  502 at Sat Feb 20 09:09:13 2021, MaxMem=  5242880000 cpu:     52189.7
 (Enter /opt/nce/packages/global/g09/l601.exe)
 Copying SCF densities to generalized density rwf, IOpCl= 0 IROHF=0.

 **********************************************************************

            Population analysis using the SCF density.

[...]
 Alpha virt. eigenvalues --    1.92939   1.93916   1.94220   1.94955   1.95229
 Alpha virt. eigenvalues --    1.95932   1.96287   1.96686   1.96888   1.97023
 Alpha virt. eigenvalues --    1.97826   1.98746   1.98946   1.99298   1.99902
 Alpha virt. eigenvalues --    2.00199   2.00417   2.02295   2.02429   2.02551
 Alpha virt. eigenvalues --    2.03019   2.04018   2.04816   2.04993   2.06237
 Alpha virt. eigenvalues --    2.07486   2.07896   2.08283   2.08567   2.08723
 Alpha virt. eigenvalues --    2.10372   2.10697   2.11129   2.11678   2.11720
 Alpha virt. eigenvalues --    2.12776   2.12912   2.13353   2.13590   2.13798
 Alpha virt. eigenvalues --    2.13963   2.14301   2.15777   2.15884   2.15941
 Alpha virt. eigenvalues --    2.16657   2.17018   2.17359   2.17587   2.18132
 Alpha virt. eigenvalues --    2.18214   2.18522   2.19430   2.19992   2.20464
 Alpha virt. eigenvalues --    2.20875   2.21281   2.21638   2.22101   2.22730
 Alpha virt. eigenvalues --    2.22929   2.23536   2.23921   2.24645   2.25063
 Alpha virt. eigenvalues --    2.26210   2.26278   2.26984   2.27647   2.27771
 Alpha virt. eigenvalues --    2.27876   2.28031   2.28726   2.28863   2.29602
 Alpha virt. eigenvalues --    2.30180   2.30445   2.30806   2.31968   2.32393
 Alpha virt. eigenvalues --    2.33363   2.33622   2.34467   2.34695   2.35636
 Alpha virt. eigenvalues --    2.36089   2.36314   2.37190   2.37877   2.38070
 Alpha virt. eigenvalues --    2.39122   2.40317   2.40875   2.40937   2.42080
 Alpha virt. eigenvalues --    2.42472   2.42679   2.42908   2.44069   2.45001
 Alpha virt. eigenvalues --    2.45189   2.45948   2.46900   2.47035   2.47440
 Alpha virt. eigenvalues --    2.47562   2.47577   2.47620   2.47984   2.48684
 Alpha virt. eigenvalues --    2.48813   2.49414   2.50010   2.50442   2.51096
 Alpha virt. eigenvalues --    2.51735   2.51842   2.52804   2.53091   2.54154
 Alpha virt. eigenvalues --    2.54420   2.54944   2.55552   2.55943   2.56244
 Alpha virt. eigenvalues --    2.56990   2.57387   2.57546   2.58393   2.58754
 Alpha virt. eigenvalues --    2.58838   2.59066   2.59580   2.59819   2.60151
 Alpha virt. eigenvalues --    2.60364   2.60678   2.60818   2.61409   2.62031
 Alpha virt. eigenvalues --    2.62253   2.62623   2.63256   2.63329   2.63872
 Alpha virt. eigenvalues --    2.63981   2.64286   2.64871   2.65037   2.65607
 Alpha virt. eigenvalues --    2.66030   2.66385   2.66910   2.67326   2.67467
 Alpha virt. eigenvalues --    2.67916   2.68345   2.68989   2.69244   2.69394
 Alpha virt. eigenvalues --    2.69789   2.69953   2.70357   2.70598   2.70738
 Alpha virt. eigenvalues --    2.71078   2.71417   2.71644   2.72069   2.72256
 Alpha virt. eigenvalues --    2.72579   2.72721   2.73183   2.73441   2.74367
 Alpha virt. eigenvalues --    2.74747   2.74994   2.75086   2.75357   2.75831
 Alpha virt. eigenvalues --    2.76001   2.76414   2.76747   2.76968   2.77408
 Alpha virt. eigenvalues --    2.77915   2.77996   2.78101   2.78459   2.78686
 Alpha virt. eigenvalues --    2.78824   2.79057   2.79169   2.79505   2.79811
 Alpha virt. eigenvalues --    2.80052   2.80333   2.80941   2.81215   2.81566
 Alpha virt. eigenvalues --    2.81784   2.81831   2.82233   2.82374   2.82529
 Alpha virt. eigenvalues --    2.82805   2.83044   2.83749   2.84132   2.84520
 Alpha virt. eigenvalues --    2.84744   2.84884   2.85445   2.86114   2.86495
 Alpha virt. eigenvalues --    2.86801   2.87147   2.87959   2.88066   2.88349
 Alpha virt. eigenvalues --    2.88644   2.89005   2.89442   2.89926   2.90367
 Alpha virt. eigenvalues --    2.90995   2.91303   2.91481   2.91780   2.92018
 Alpha virt. eigenvalues --    2.92241   2.92480   2.92597   2.93558   2.93801
 Alpha virt. eigenvalues --    2.94058   2.94409   2.94585   2.94758   2.95336
 Alpha virt. eigenvalues --    2.96144   2.97048   2.97745   2.97981   2.98143
 Alpha virt. eigenvalues --    2.98302   2.98554   2.98609   2.98889   2.99182
 Alpha virt. eigenvalues --    2.99400   2.99700   2.99955   3.00192   3.00910
 Alpha virt. eigenvalues --    3.01532   3.01578   3.01890   3.02363   3.02422
 Alpha virt. eigenvalues --    3.02633   3.03019   3.03284   3.03309   3.03436
 Alpha virt. eigenvalues --    3.04172   3.04287   3.04790   3.05162   3.05650
 Alpha virt. eigenvalues --    3.06320   3.06540   3.06592   3.06931   3.07332
 Alpha virt. eigenvalues --    3.07537   3.08278   3.09026   3.09220   3.09522
 Alpha virt. eigenvalues --    3.09830   3.10038   3.10166   3.10442   3.10562
 Alpha virt. eigenvalues --    3.10908   3.11747   3.11885   3.12295   3.12680
 Alpha virt. eigenvalues --    3.12913   3.13110   3.13343   3.13625   3.13842
 Alpha virt. eigenvalues --    3.14009   3.14349   3.14831   3.15536   3.16155
 Alpha virt. eigenvalues --    3.16590   3.17009   3.17394   3.17655   3.18322
 Alpha virt. eigenvalues --    3.18539   3.18806   3.19570   3.19802   3.19871
 Alpha virt. eigenvalues --    3.20096   3.20606   3.20912   3.21358   3.21431
 Alpha virt. eigenvalues --    3.21758   3.21850   3.22049   3.22335   3.23121
 Alpha virt. eigenvalues --    3.23335   3.23667   3.23898   3.24255   3.24659
 Alpha virt. eigenvalues --    3.25061   3.25510   3.25798   3.26124   3.26282
 Alpha virt. eigenvalues --    3.27210   3.27342   3.27469   3.27947   3.28182
 Alpha virt. eigenvalues --    3.28631   3.28786   3.29073   3.29253   3.29595
 Alpha virt. eigenvalues --    3.30420   3.30937   3.31038   3.31221   3.31840
 Alpha virt. eigenvalues --    3.32030   3.32331   3.32487   3.32839   3.32990
 Alpha virt. eigenvalues --    3.33261   3.33547   3.33747   3.33882   3.34106
 Alpha virt. eigenvalues --    3.34333   3.34850   3.34991   3.35159   3.35350
 Alpha virt. eigenvalues --    3.35534   3.35948   3.36026   3.36319   3.36726
 Alpha virt. eigenvalues --    3.36887   3.37451   3.37707   3.37993   3.38541
 Alpha virt. eigenvalues --    3.38827   3.39040   3.39355   3.39407   3.39699
 Alpha virt. eigenvalues --    3.40412   3.40649   3.40847   3.41143   3.41857
 Alpha virt. eigenvalues --    3.42007   3.42136   3.43052   3.43276   3.43564
 Alpha virt. eigenvalues --    3.44028   3.44492   3.45196   3.45304   3.45423
 Alpha virt. eigenvalues --    3.45711   3.46276   3.46746   3.46850   3.47393
 Alpha virt. eigenvalues --    3.47732   3.48032   3.48333   3.48962   3.49385
 Alpha virt. eigenvalues --    3.49675   3.49975   3.50348   3.50925   3.51223
 Alpha virt. eigenvalues --    3.51534   3.52179   3.52582   3.53407   3.53565
 Alpha virt. eigenvalues --    3.54038   3.54248   3.54736   3.54948   3.55068
 Alpha virt. eigenvalues --    3.55367   3.55432   3.56131   3.56193   3.56666
 Alpha virt. eigenvalues --    3.57209   3.57447   3.57498   3.59298   3.59415
 Alpha virt. eigenvalues --    3.59652   3.60324   3.60566   3.61766   3.62363
 Alpha virt. eigenvalues --    3.63861   3.64110   3.64915   3.65302   3.66058
 Alpha virt. eigenvalues --    3.66679   3.66953   3.67482   3.67733   3.68266
 Alpha virt. eigenvalues --    3.68596   3.69211   3.69859   3.70099   3.70371
 Alpha virt. eigenvalues --    3.71523   3.71916   3.73190   3.73642   3.73792
 Alpha virt. eigenvalues --    3.74272   3.74331   3.75086   3.75168   3.76291
 Alpha virt. eigenvalues --    3.77305   3.78292   3.79003   3.80207   3.81093
 Alpha virt. eigenvalues --    3.81344   3.81948   3.82387   3.82456   3.83289
 Alpha virt. eigenvalues --    3.84383   3.84521   3.84977   3.85136   3.85807
 Alpha virt. eigenvalues --    3.86032   3.86641   3.86869   3.87149   3.88784
 Alpha virt. eigenvalues --    3.88807   3.89442   3.90566   3.91449   3.91712
 Alpha virt. eigenvalues --    3.92616   3.93604   3.94575   3.94958   3.95173
 Alpha virt. eigenvalues --    3.95838   3.96157   3.96920   3.97147   3.97191
 Alpha virt. eigenvalues --    3.97414   3.97812   3.97920   3.98931   3.99789
 Alpha virt. eigenvalues --    4.00129   4.01404   4.01424   4.04254   4.04606
 Alpha virt. eigenvalues --    4.05590   4.06026   4.06250   4.06555   4.07252
 Alpha virt. eigenvalues --    4.08228   4.08603   4.09506   4.09881   4.10327
 Alpha virt. eigenvalues --    4.10596   4.10803   4.10975   4.11349   4.11737
 Alpha virt. eigenvalues --    4.12454   4.12701   4.13116   4.13740   4.13842
 Alpha virt. eigenvalues --    4.13988   4.14216   4.14529   4.14786   4.15198
 Alpha virt. eigenvalues --    4.15560   4.16050   4.16601   4.16809   4.17342
 Alpha virt. eigenvalues --    4.17854   4.17980   4.18606   4.18674   4.18992
 Alpha virt. eigenvalues --    4.19786   4.19945   4.21126   4.21343   4.21890
 Alpha virt. eigenvalues --    4.22190   4.23208   4.23732   4.24155   4.24521
 Alpha virt. eigenvalues --    4.24871   4.25751   4.25877   4.26268   4.26434
 Alpha virt. eigenvalues --    4.26776   4.27510   4.27834   4.28205   4.28790
 Alpha virt. eigenvalues --    4.31219   4.31674   4.32930   4.33772   4.34603
 Alpha virt. eigenvalues --    4.34972   4.35901   4.36499   4.37016   4.37670
 Alpha virt. eigenvalues --    4.37854   4.38449   4.38875   4.39295   4.40600
 Alpha virt. eigenvalues --    4.41153   4.41601   4.42788   4.44169   4.44471
 Alpha virt. eigenvalues --    4.45770   4.46197   4.47700   4.48535   4.49292
 Alpha virt. eigenvalues --    4.50107   4.50665   4.50831   4.51289   4.53514
 Alpha virt. eigenvalues --    4.53967   4.54536   4.54821   4.55088   4.57492
 Alpha virt. eigenvalues --    4.58207   4.58388   4.59080   4.59299   4.59602
 Alpha virt. eigenvalues --    4.60289   4.60333   4.61727   4.62452   4.63128
 Alpha virt. eigenvalues --    4.63709   4.64353   4.65429   4.65665   4.66018
 Alpha virt. eigenvalues --    4.67026   4.67809   4.68818   4.69066   4.70134
 Alpha virt. eigenvalues --    4.71141   4.71607   4.72371   4.73583   4.74430
 Alpha virt. eigenvalues --    4.76051   4.76231   4.76684   4.77810   4.78906
 Alpha virt. eigenvalues --    4.79442   4.80071   4.80675   4.82095   4.83922
 Alpha virt. eigenvalues --    4.84178   4.87003   4.87480   4.91407   4.91801
 Alpha virt. eigenvalues --    4.91849   4.94229   4.95205   4.95238   4.95555
 Alpha virt. eigenvalues --    4.95979   4.98028   4.98274   4.99850   5.02297
 Alpha virt. eigenvalues --    5.02801   5.03419   5.04174   5.05561   5.05801
 Alpha virt. eigenvalues --    5.07133   5.09229   5.09952   5.10992   5.13450
 Alpha virt. eigenvalues --    5.13986   5.15105   5.16552   5.17343   5.17394
 Alpha virt. eigenvalues --    5.17698   5.18168   5.19362   5.20508   5.23729
 Alpha virt. eigenvalues --    5.24308   5.25153   5.26070   5.29444   5.29492
 Alpha virt. eigenvalues --    5.30909   5.36256   5.36869   5.38812   5.39317
 Alpha virt. eigenvalues --    5.39976   5.40060   5.43575   5.43960   5.45011
 Alpha virt. eigenvalues --    5.47173   5.47497   5.51734   5.52561   5.56840
 Alpha virt. eigenvalues --    5.57208   5.58000   5.59128   5.60270   5.60393
 Alpha virt. eigenvalues --    5.62505   5.64685   5.65379   5.66099   5.66128
 Alpha virt. eigenvalues --    5.66596   5.71407   5.73732   5.74135   5.74619
 Alpha virt. eigenvalues --    5.76639   5.86975   5.91825   5.96453   6.00323
 Alpha virt. eigenvalues --    6.01400   6.15140   6.15154   6.21186   6.26069
 Alpha virt. eigenvalues --    6.31889  22.18523  22.25185  22.28997  22.46086
 Alpha virt. eigenvalues --   22.46760  22.50648  22.50866  22.59967  22.66194
 Alpha virt. eigenvalues --   22.69390  22.69539  22.70250  22.71363  22.72275
 Alpha virt. eigenvalues --   22.76213  22.77640  22.77724  22.79597  22.83444
 Alpha virt. eigenvalues --   22.85189  22.88413  22.91813  22.92490  22.94687
 Alpha virt. eigenvalues --   22.96163  22.99925  23.03718  23.06113  23.09951
 Alpha virt. eigenvalues --   23.13193  23.16473  23.27728  23.36429  23.38561
 Alpha virt. eigenvalues --   23.54740  23.56880  23.64657  23.64730  23.68973
 Alpha virt. eigenvalues --   32.08466  32.08477  33.42478
          Condensed to atoms (all electrons):
 Mulliken charges:
               1
     1  C   -0.170412
     2  C   -0.269553
     3  C    0.279496
     4  C   -0.206344
     5  C   -0.221768
     6  C    0.093089
     7  C    0.065386
     8  C   -0.216574
     9  C    0.284898
    10  C   -0.272151
    11  H    0.164583
    12  C   -0.169203
    13  C    0.087956
    14  C   -0.212751
    15  H    0.165714
    16  H    0.192093
    17  H    0.135902
    18  N    0.096566
    19  C   -0.024105
    20  C   -0.228579
    21  C   -0.172677
    22  C   -0.188956
    23  C    0.019162
    24  C   -0.020480
    25  H    0.121710
    26  C   -0.118841
    27  H    0.190525
    28  C   -0.029713
    29  C   -0.056510
    30  H    0.124367
    31  C   -0.131537
    32  H    0.126884
    33  H    0.119342
    34  H    0.115999
    35  H    0.127548
    36  H    0.194678
    37  H    0.136174
    38  C   -0.377883
    39  H    0.133682
    40  H    0.128041
    41  H    0.129610
    42  C   -0.369824
    43  H    0.130510
    44  H    0.132919
    45  H    0.128059
    46  C    0.114857
    47  C   -0.185411
    48  C   -0.178112
    49  C   -0.201832
    50  H    0.168450
    51  C   -0.200826
    52  H    0.152755
    53  C    0.233386
    54  H    0.143114
    55  H    0.143386
    56  C    0.113227
    57  C   -0.187692
    58  C   -0.174528
    59  C   -0.200713
    60  H    0.169503
    61  C   -0.202010
    62  H    0.152560
    63  C    0.233503
    64  H    0.143115
    65  H    0.143309
    66  C   -0.049615
    67  C   -0.049158
    68  N   -0.224149
    69  N   -0.224150
 Sum of Mulliken charges =  -0.00000
 Mulliken charges with hydrogens summed into heavy atoms:
               1
     1  C   -0.034238
     2  C   -0.103839
     3  C    0.279496
     4  C   -0.206344
     5  C   -0.029675
     6  C    0.093089
     7  C    0.065386
     8  C   -0.216574
     9  C    0.284898
    10  C   -0.107569
    12  C   -0.033301
    13  C    0.087956
    14  C   -0.018073
    18  N    0.096566
    19  C   -0.024105
    20  C   -0.228579
    21  C   -0.050968
    22  C    0.001569
    23  C    0.019162
    24  C    0.103887
    26  C    0.008042
    28  C    0.089629
    29  C    0.059490
    31  C   -0.003989
    38  C    0.013450
    42  C    0.021664
    46  C    0.114857
    47  C   -0.016961
    48  C   -0.025358
    49  C   -0.058719
    51  C   -0.057440
    53  C    0.233386
    56  C    0.113227
    57  C   -0.018188
    58  C   -0.021967
    59  C   -0.057598
    61  C   -0.058700
    63  C    0.233503
    66  C   -0.049615
    67  C   -0.049158
    68  N   -0.224149
    69  N   -0.224150
 Electronic spatial extent (au):  <R**2>=          31403.6294
 Charge=             -0.0000 electrons
 Dipole moment (field-independent basis, Debye):
    X=              0.0127    Y=              8.3865    Z=             -1.3043  Tot=              8.4873
 Quadrupole moment (field-independent basis, Debye-Ang):
   XX=           -426.8530   YY=           -238.0104   ZZ=           -233.1672
   XY=             -1.1488   XZ=             -4.8738   YZ=             -0.5992
 Traceless Quadrupole moment (field-independent basis, Debye-Ang):
   XX=           -127.5094   YY=             61.3331   ZZ=             66.1763
   XY=             -1.1488   XZ=             -4.8738   YZ=             -0.5992
 Octapole moment (field-independent basis, Debye-Ang**2):
  XXX=             -0.9120  YYY=            270.5588  ZZZ=              8.8184  XYY=            -14.2949
  XXY=            974.0471  XXZ=           -140.9613  XZZ=             18.4468  YZZ=             48.5869
  YYZ=            -17.6622  XYZ=            -33.8966
 Hexadecapole moment (field-independent basis, Debye-Ang**3):
 XXXX=         -55251.6692 YYYY=         -11129.9270 ZZZZ=          -1652.6863 XXXY=           -136.1485
 XXXZ=           -630.5877 YYYX=             93.9738 YYYZ=             64.5616 ZZZX=             -4.8586
 ZZZY=             20.0611 XXYY=         -11312.2736 XXZZ=          -5544.8255 YYZZ=          -2060.0099
 XXYZ=            456.9808 YYXZ=            150.2543 ZZXY=            -42.6195
 N-N= 4.238550088727D+03 E-N=-1.234229618452D+04  KE= 1.658051057055D+03
 Leave Link  601 at Tue Feb 23 10:44:11 2021, MaxMem=  5242880000 cpu:        12.5
 (Enter /opt/nce/packages/global/g09/l9999.exe)
 1\1\GINC-CN002\SP\RM06 TD-FC\Gen\C39H27N3\PNG4RJV\23-Feb-2021\0\\#p m0
 6 chkbasis geom=allcheck Guess=Read int=ultrafine scrf=(SMD,solvent=n,
 n-DiMethylFormamide) td=(NStates=30)\\Title\\0,1\C,0,3.6315042072,0.73
 8622394,-0.5110106131\C,0,2.4171964264,1.3729186916,-0.6306145102\C,0,
 1.2153474854,0.6690727976,-0.4964059364\C,0,1.2561200385,-0.7030539589
 ,-0.2240192059\C,0,2.497508839,-1.3091714082,-0.1021793946\C,0,3.70180
 16196,-0.6263324093,-0.2413410288\C,0,0.0008409485,-1.5406616211,-0.04
 12636937\C,0,-1.2538766071,-0.705433996,-0.2384981539\C,0,-1.212154700
 4,0.6686721104,-0.5010143643\C,0,-2.4136904495,1.3735547841,-0.6325212
 462\H,0,-2.3935959426,2.4349947413,-0.8441067683\C,0,-3.6281281055,0.7
 401987147,-0.5106479342\C,0,-3.6997016306,-0.6286210199,-0.2613161977\
 C,0,-2.4955040255,-1.3140245853,-0.1318772515\H,0,2.3975359545,2.43701
 21489,-0.8285061347\H,0,2.5312382589,-2.3756805049,0.0927934207\H,0,-4
 .5348409524,1.3207497092,-0.6389070914\N,0,0.0016249165,1.3366950574,-
 0.6292724309\C,0,0.0017612073,2.7544421352,-0.8008460741\C,0,-0.000919
 0738,3.5872145594,0.3452038683\C,0,0.0046947924,3.2863353509,-2.058317
 3894\C,0,-0.0035653401,3.0764915766,1.6612404423\C,0,-0.0006914862,4.9
 944467232,0.1516814869\C,0,0.0048806351,4.6794738453,-2.2423507232\H,0
 ,0.0067475968,2.6174108426,-2.9124843731\C,0,-0.0059310429,3.923000288
 2,2.7337088395\H,0,-0.0036845947,2.0018730174,1.8148073933\C,0,-0.0032
 228781,5.8383377,1.2829092863\C,0,0.0021997687,5.5125260061,-1.1611029
 102\H,0,0.007141711,5.0847362087,-3.2473368808\C,0,-0.005781739,5.3169
 508306,2.5445304129\H,0,-0.0079018109,3.5199614172,3.7400528239\H,0,-0
 .0030125439,6.9121895942,1.1255281596\H,0,0.0022981574,6.5898707871,-1
 .2917809185\H,0,-0.0076385661,5.9747162683,3.406171892\H,0,-2.52832387
 91,-2.3741888821,0.0953624244\H,0,4.538602316,1.3252755388,-0.60370825
 43\C,0,0.0066211118,-2.6912394774,-1.0529026373\H,0,0.0135482603,-2.30
 7331702,-2.0764450074\H,0,0.884715562,-3.326856178,-0.9219955697\H,0,-
 0.8746116755,-3.3247618139,-0.9332975643\C,0,-0.0051192298,-2.10917972
 25,1.3826165407\H,0,0.8780397811,-2.7265077845,1.5622741556\H,0,-0.011
 188308,-1.3002586489,2.1192972708\H,0,-0.8858164745,-2.7323185923,1.55
 37001581\C,0,4.991897574,-1.3162025272,-0.1044465695\C,0,5.136151987,-
 2.4162265955,0.7456054995\C,0,6.1130165884,-0.8880560529,-0.8208431015
 \C,0,6.3441269386,-3.0647797863,0.8767324559\H,0,4.291762285,-2.757603
 8267,1.3331500302\C,0,7.327144435,-1.5265992234,-0.6979225322\H,0,6.02
 6943437,-0.0516593059,-1.5047368523\C,0,7.4509489137,-2.6228560626,0.1
 539223674\H,0,6.4423095071,-3.9112283226,1.5458826442\H,0,8.1851795021
 ,-1.1875920844,-1.2660918292\C,0,-4.9910911486,-1.3184110342,-0.137041
 3333\C,0,-5.1353166606,-2.6568741232,-0.513003593\C,0,-6.1146251428,-0
 .651209067,0.3592746581\C,0,-6.3445230583,-3.306024136,-0.3968187142\H
 ,0,-4.2903495998,-3.1946576457,-0.9269293976\C,0,-7.3300698492,-1.2877
 025089,0.4785951552\H,0,-6.029467072,0.3811278155,0.6780243281\C,0,-7.
 4531493921,-2.6238537654,0.1013754525\H,0,-6.4421464825,-4.3418275523,
 -0.6993762592\H,0,-8.1898889304,-0.7592305589,0.8727608849\C,0,-8.7043
 665908,-3.2878406697,0.223367453\C,0,8.7011269823,-3.2871052128,0.2854
 634679\N,0,9.7138036293,-3.825508402,0.3918717374\N,0,-9.7178183907,-3
 .826245886,0.3221737312\\Version=ES64L-G09RevE.01\State=1-A\HF=-1666.0
 400068\RMSD=1.508e-09\PG=C01 [X(C39H27N3)]\\@


 THE SOLUTION TO A PROBLEM CHANGES THE PROBLEM.

                                 -- JOHN PEERS
           PAUL DICKSON'S "THE OFFICIAL RULES"
 Job cpu time:       5 days 14 hours  3 minutes 24.9 seconds.
 File lengths (MBytes):  RWF=  10558 Int=      0 D2E=      0 Chk=   1895 Scr=      1
 Normal termination of Gaussian 09 at Tue Feb 23 10:44:14 2021.
