 Entering Gaussian System, Link 0=g09
 Input=/home/png4rjv/fotokatalizis/benchmark/OPCs/Me2-Acr_3_CAM-B3LYP-D3_def2TZVP.gjf
 Output=/home/png4rjv/fotokatalizis/benchmark/OPCs/Me2-Acr_3_CAM-B3LYP-D3_def2TZVP.log
 Initial command:
 /opt/nce/packages/global/g09/l1.exe "/home/png4rjv/fotokatalizis/benchmark/OPCs/Me2-Acr_3_CAM-B3LYP-D3_def2TZVP/Gau-11028.inp" -scrdir="/home/png4rjv/fotokatalizis/benchmark/OPCs/Me2-Acr_3_CAM-B3LYP-D3_def2TZVP/"
 Default is to use a total of  12 processors:
                               12 via shared-memory
                                1 via Linda
 Entering Link 1 = /opt/nce/packages/global/g09/l1.exe PID=     11029.
  
 Copyright (c) 1988,1990,1992,1993,1995,1998,2003,2009,2015,
            Gaussian, Inc.  All Rights Reserved.
  
 This is part of the Gaussian(R) 09 program.  It is based on
 the Gaussian(R) 03 system (copyright 2003, Gaussian, Inc.),
 the Gaussian(R) 98 system (copyright 1998, Gaussian, Inc.),
 the Gaussian(R) 94 system (copyright 1995, Gaussian, Inc.),
 the Gaussian 92(TM) system (copyright 1992, Gaussian, Inc.),
 the Gaussian 90(TM) system (copyright 1990, Gaussian, Inc.),
 the Gaussian 88(TM) system (copyright 1988, Gaussian, Inc.),
 the Gaussian 86(TM) system (copyright 1986, Carnegie Mellon
 University), and the Gaussian 82(TM) system (copyright 1983,
 Carnegie Mellon University). Gaussian is a federally registered
 trademark of Gaussian, Inc.
  
 This software contains proprietary and confidential information,
 including trade secrets, belonging to Gaussian, Inc.
  
 This software is provided under written license and may be
 used, copied, transmitted, or stored only in accord with that
 written license.
  
 The following legend is applicable only to US Government
 contracts under FAR:
  
                    RESTRICTED RIGHTS LEGEND
  
 Use, reproduction and disclosure by the US Government is
 subject to restrictions as set forth in subparagraphs (a)
 and (c) of the Commercial Computer Software - Restricted
 Rights clause in FAR 52.227-19.
  
 Gaussian, Inc.
 340 Quinnipiac St., Bldg. 40, Wallingford CT 06492
  
  
 ---------------------------------------------------------------
 Warning -- This program may not be used in any manner that
 competes with the business of Gaussian, Inc. or will provide
 assistance to any competitor of Gaussian, Inc.  The licensee
 of this program is prohibited from giving any competitor of
 Gaussian, Inc. access to this program.  By using this program,
 the user acknowledges that Gaussian, Inc. is engaged in the
 business of creating and licensing software in the field of
 computational chemistry and represents and warrants to the
 licensee that it is not a competitor of Gaussian, Inc. and that
 it will not use this program in any manner prohibited above.
 ---------------------------------------------------------------
  

 Cite this work as:
 Gaussian 09, Revision E.01,
 M. J. Frisch, G. W. Trucks, H. B. Schlegel, G. E. Scuseria, 
 M. A. Robb, J. R. Cheeseman, G. Scalmani, V. Barone, B. Mennucci, 
 G. A. Petersson, H. Nakatsuji, M. Caricato, X. Li, H. P. Hratchian, 
 A. F. Izmaylov, J. Bloino, G. Zheng, J. L. Sonnenberg, M. Hada, 
 M. Ehara, K. Toyota, R. Fukuda, J. Hasegawa, M. Ishida, T. Nakajima, 
 Y. Honda, O. Kitao, H. Nakai, T. Vreven, J. A. Montgomery, Jr., 
 J. E. Peralta, F. Ogliaro, M. Bearpark, J. J. Heyd, E. Brothers, 
 K. N. Kudin, V. N. Staroverov, T. Keith, R. Kobayashi, J. Normand, 
 K. Raghavachari, A. Rendell, J. C. Burant, S. S. Iyengar, J. Tomasi, 
 M. Cossi, N. Rega, J. M. Millam, M. Klene, J. E. Knox, J. B. Cross, 
 V. Bakken, C. Adamo, J. Jaramillo, R. Gomperts, R. E. Stratmann, 
 O. Yazyev, A. J. Austin, R. Cammi, C. Pomelli, J. W. Ochterski, 
 R. L. Martin, K. Morokuma, V. G. Zakrzewski, G. A. Voth, 
 P. Salvador, J. J. Dannenberg, S. Dapprich, A. D. Daniels, 
 O. Farkas, J. B. Foresman, J. V. Ortiz, J. Cioslowski, 
 and D. J. Fox, Gaussian, Inc., Wallingford CT, 2013.
 
 ******************************************
 Gaussian 09:  ES64L-G09RevE.01 30-Nov-2015
                24-Feb-2021 
 ******************************************
 %chk=cp.chk
 Default route:  MaxDisk=500GB
 ----------------------------------------------------------------------
 #p cam-b3lyp/def2TZVP opt freq=noraman nosymm int=ultrafine scrf=(SMD,
 solvent=n,n-DiMethylFormamide) EmpiricalDispersion=GD3BJ
 ----------------------------------------------------------------------
 1/14=-1,18=20,19=15,26=4,38=1/1,3;
 2/9=110,12=2,15=1,17=6,18=5,40=1/2;
 3/5=44,7=101,11=2,16=1,25=1,30=1,70=32201,71=1,72=148,74=-40,75=-5,124=41/1,2,3;
 4//1;
 5/5=2,38=5,53=148/2;
 6/7=2,8=2,9=2,10=2,28=1/1;
 7/30=1/1,2,3,16;
 1/14=-1,18=20,19=15,26=4/3(2);
 2/9=110,15=1/2;
 99//99;
 2/9=110,15=1/2;
 3/5=44,7=101,11=2,16=1,25=1,30=1,70=32205,71=1,72=148,74=-40,75=-5,124=41/1,2,3;
 4/5=5,16=3,69=1/1;
 5/5=2,38=5,53=148/2;
 7/30=1/1,2,3,16;
 1/14=-1,18=20,19=15,26=4/3(-5);
 2/9=110,15=1/2;
 6/7=2,8=2,9=2,10=2,19=2,28=1/1;
 99/9=1/99;
 Leave Link    1 at Wed Feb 24 20:26:56 2021, MaxMem=           0 cpu:         1.0
 (Enter /opt/nce/packages/global/g09/l101.exe)
 -----
 Title
 -----
 Symbolic Z-matrix:
 Charge =  0 Multiplicity = 1
 C                     3.65569   0.76137  -0.40332 
 C                     2.43136   1.39755  -0.5431 
 C                     1.22226   0.67512  -0.46716 
 C                     1.26474  -0.71664  -0.23616 
 C                     2.51578  -1.32414  -0.09868 
 C                     3.729    -0.62348  -0.17617 
 C                     0.00069  -1.5787   -0.16683 
 C                    -1.2639   -0.71884  -0.25293 
 C                    -1.22042   0.6749   -0.47141 
 C                    -2.42905   1.39854  -0.54264 
 H                    -2.40146   2.47272  -0.7162 
 C                    -3.65375   0.76236  -0.4062 
 C                    -3.72829  -0.62566  -0.20005 
 C                    -2.51562  -1.32817  -0.13075 
 H                     2.40379   2.47372  -0.70387 
 H                     2.552    -2.40426   0.0465 
 H                    -4.56717   1.35384  -0.49118 
 N                     0.00115   1.34172  -0.61315 
 C                     0.00136   2.75835  -0.82379 
 C                    -0.00005   3.63046   0.30658 
 C                     0.00268   3.26212  -2.10739 
 C                    -0.00117   3.14581   1.64234 
 C                    -0.00016   5.04617   0.0762 
 C                     0.00255   4.66024  -2.32918 
 H                     0.00353   2.566    -2.94809 
 C                    -0.00235   4.0238    2.70506 
 H                    -0.00087   2.06874   1.81351 
 C                    -0.0015    5.92186   1.19702 
 C                     0.00114   5.53096  -1.26078 
 H                     0.00344   5.04243  -3.35215 
 C                    -0.00256   5.42369   2.48195 
 H                    -0.00292   3.64035   3.7279 
 H                    -0.00153   7.00028   1.01994 
 H                     0.00099   6.611    -1.42723 
 H                    -0.00337   6.10678   3.3344 
 H                    -2.55126  -2.40249   0.05229 
 H                     4.56791   1.3595   -0.44226 
 C                     0.00795  -2.57197  -1.3549 
 H                     0.012    -2.02934  -2.31178 
 H                     0.89799  -3.21829  -1.32429 
 H                    -0.88175  -3.21926  -1.33213 
 C                    -0.00587  -2.36294   1.16718 
 H                     0.88068  -3.00758   1.25342 
 H                    -0.01176  -1.67141   2.02273 
 H                    -0.89058  -3.01104   1.24488 
 C                     5.02632  -1.31597  -0.02334 
 C                     5.15965  -2.43661   0.82056 
 C                     6.17114  -0.87574  -0.71689 
 C                     6.37673  -3.09278   0.96596 
 H                     4.29853  -2.78345   1.39423 
 C                     7.3947   -1.52111  -0.57746 
 H                     6.09355  -0.0267   -1.39802 
 C                     7.51093  -2.64058   0.2669 
 H                     6.46252  -3.95418   1.63054 
 H                     8.2686   -1.17057  -1.12924 
 C                    -5.02654  -1.31969  -0.06208 
 C                    -5.19964  -2.64107  -0.52 
 C                    -6.13253  -0.68001   0.53215 
 C                    -6.41767  -3.29874  -0.39 
 H                    -4.37066  -3.1531   -1.01148 
 C                    -7.35667  -1.32558   0.66517 
 H                    -6.0224    0.33393   0.92027 
 C                    -7.51279  -2.64614   0.20531 
 H                    -6.53496  -4.31939  -0.75818 
 H                    -8.19966  -0.81675   1.1358 
 C                    -8.77185  -3.31811   0.34121 
 C                     8.76924  -3.31172   0.41356 
 N                     9.78856  -3.85554   0.53232 
 N                    -9.79179  -3.86258   0.45143 
 
 NAtoms=     69 NQM=       69 NQMF=       0 NMMI=      0 NMMIF=      0
                NMic=       0 NMicF=      0.
                    Isotopes and Nuclear Properties:
 (Nuclear quadrupole moments (NQMom) in fm**2, nuclear magnetic moments (NMagM)
  in nuclear magnetons)

  Atom         1           2           3           4           5           6           7           8           9          10
 IAtWgt=          12          12          12          12          12          12          12          12          12          12
 AtmWgt=  12.0000000  12.0000000  12.0000000  12.0000000  12.0000000  12.0000000  12.0000000  12.0000000  12.0000000  12.0000000
 NucSpn=           0           0           0           0           0           0           0           0           0           0
 AtZEff=   0.0000000   0.0000000   0.0000000   0.0000000   0.0000000   0.0000000   0.0000000   0.0000000   0.0000000   0.0000000
 NQMom=    0.0000000   0.0000000   0.0000000   0.0000000   0.0000000   0.0000000   0.0000000   0.0000000   0.0000000   0.0000000
 NMagM=    0.0000000   0.0000000   0.0000000   0.0000000   0.0000000   0.0000000   0.0000000   0.0000000   0.0000000   0.0000000
 AtZNuc=   6.0000000   6.0000000   6.0000000   6.0000000   6.0000000   6.0000000   6.0000000   6.0000000   6.0000000   6.0000000

  Atom        11          12          13          14          15          16          17          18          19          20
 IAtWgt=           1          12          12          12           1           1           1          14          12          12
 AtmWgt=   1.0078250  12.0000000  12.0000000  12.0000000   1.0078250   1.0078250   1.0078250  14.0030740  12.0000000  12.0000000
 NucSpn=           1           0           0           0           1           1           1           2           0           0
 AtZEff=   0.0000000   0.0000000   0.0000000   0.0000000   0.0000000   0.0000000   0.0000000   0.0000000   0.0000000   0.0000000
 NQMom=    0.0000000   0.0000000   0.0000000   0.0000000   0.0000000   0.0000000   0.0000000   2.0440000   0.0000000   0.0000000
 NMagM=    2.7928460   0.0000000   0.0000000   0.0000000   2.7928460   2.7928460   2.7928460   0.4037610   0.0000000   0.0000000
 AtZNuc=   1.0000000   6.0000000   6.0000000   6.0000000   1.0000000   1.0000000   1.0000000   7.0000000   6.0000000   6.0000000

  Atom        21          22          23          24          25          26          27          28          29          30
 IAtWgt=          12          12          12          12           1          12           1          12          12           1
 AtmWgt=  12.0000000  12.0000000  12.0000000  12.0000000   1.0078250  12.0000000   1.0078250  12.0000000  12.0000000   1.0078250
 NucSpn=           0           0           0           0           1           0           1           0           0           1
 AtZEff=   0.0000000   0.0000000   0.0000000   0.0000000   0.0000000   0.0000000   0.0000000   0.0000000   0.0000000   0.0000000
 NQMom=    0.0000000   0.0000000   0.0000000   0.0000000   0.0000000   0.0000000   0.0000000   0.0000000   0.0000000   0.0000000
 NMagM=    0.0000000   0.0000000   0.0000000   0.0000000   2.7928460   0.0000000   2.7928460   0.0000000   0.0000000   2.7928460
 AtZNuc=   6.0000000   6.0000000   6.0000000   6.0000000   1.0000000   6.0000000   1.0000000   6.0000000   6.0000000   1.0000000

  Atom        31          32          33          34          35          36          37          38          39          40
 IAtWgt=          12           1           1           1           1           1           1          12           1           1
 AtmWgt=  12.0000000   1.0078250   1.0078250   1.0078250   1.0078250   1.0078250   1.0078250  12.0000000   1.0078250   1.0078250
 NucSpn=           0           1           1           1           1           1           1           0           1           1
 AtZEff=   0.0000000   0.0000000   0.0000000   0.0000000   0.0000000   0.0000000   0.0000000   0.0000000   0.0000000   0.0000000
 NQMom=    0.0000000   0.0000000   0.0000000   0.0000000   0.0000000   0.0000000   0.0000000   0.0000000   0.0000000   0.0000000
 NMagM=    0.0000000   2.7928460   2.7928460   2.7928460   2.7928460   2.7928460   2.7928460   0.0000000   2.7928460   2.7928460
 AtZNuc=   6.0000000   1.0000000   1.0000000   1.0000000   1.0000000   1.0000000   1.0000000   6.0000000   1.0000000   1.0000000

  Atom        41          42          43          44          45          46          47          48          49          50
 IAtWgt=           1          12           1           1           1          12          12          12          12           1
 AtmWgt=   1.0078250  12.0000000   1.0078250   1.0078250   1.0078250  12.0000000  12.0000000  12.0000000  12.0000000   1.0078250
 NucSpn=           1           0           1           1           1           0           0           0           0           1
 AtZEff=   0.0000000   0.0000000   0.0000000   0.0000000   0.0000000   0.0000000   0.0000000   0.0000000   0.0000000   0.0000000
 NQMom=    0.0000000   0.0000000   0.0000000   0.0000000   0.0000000   0.0000000   0.0000000   0.0000000   0.0000000   0.0000000
 NMagM=    2.7928460   0.0000000   2.7928460   2.7928460   2.7928460   0.0000000   0.0000000   0.0000000   0.0000000   2.7928460
 AtZNuc=   1.0000000   6.0000000   1.0000000   1.0000000   1.0000000   6.0000000   6.0000000   6.0000000   6.0000000   1.0000000

  Atom        51          52          53          54          55          56          57          58          59          60
 IAtWgt=          12           1          12           1           1          12          12          12          12           1
 AtmWgt=  12.0000000   1.0078250  12.0000000   1.0078250   1.0078250  12.0000000  12.0000000  12.0000000  12.0000000   1.0078250
 NucSpn=           0           1           0           1           1           0           0           0           0           1
 AtZEff=   0.0000000   0.0000000   0.0000000   0.0000000   0.0000000   0.0000000   0.0000000   0.0000000   0.0000000   0.0000000
 NQMom=    0.0000000   0.0000000   0.0000000   0.0000000   0.0000000   0.0000000   0.0000000   0.0000000   0.0000000   0.0000000
 NMagM=    0.0000000   2.7928460   0.0000000   2.7928460   2.7928460   0.0000000   0.0000000   0.0000000   0.0000000   2.7928460
 AtZNuc=   6.0000000   1.0000000   6.0000000   1.0000000   1.0000000   6.0000000   6.0000000   6.0000000   6.0000000   1.0000000

  Atom        61          62          63          64          65          66          67          68          69
 IAtWgt=          12           1          12           1           1          12          12          14          14
 AtmWgt=  12.0000000   1.0078250  12.0000000   1.0078250   1.0078250  12.0000000  12.0000000  14.0030740  14.0030740
 NucSpn=           0           1           0           1           1           0           0           2           2
 AtZEff=   0.0000000   0.0000000   0.0000000   0.0000000   0.0000000   0.0000000   0.0000000   0.0000000   0.0000000
 NQMom=    0.0000000   0.0000000   0.0000000   0.0000000   0.0000000   0.0000000   0.0000000   2.0440000   2.0440000
 NMagM=    0.0000000   2.7928460   0.0000000   2.7928460   2.7928460   0.0000000   0.0000000   0.4037610   0.4037610
 AtZNuc=   6.0000000   1.0000000   6.0000000   1.0000000   1.0000000   6.0000000   6.0000000   7.0000000   7.0000000
 Leave Link  101 at Wed Feb 24 20:27:01 2021, MaxMem=  5242880000 cpu:        20.9
 (Enter /opt/nce/packages/global/g09/l103.exe)

 GradGradGradGradGradGradGradGradGradGradGradGradGradGradGradGradGradGrad
 Berny optimization.
 Initialization pass.
                           ----------------------------
                           !    Initial Parameters    !
                           ! (Angstroms and Degrees)  !
 --------------------------                            --------------------------
 ! Name  Definition              Value          Derivative Info.                !
 --------------------------------------------------------------------------------
 ! R1    R(1,2)                  1.3868         estimate D2E/DX2                !
 ! R2    R(1,6)                  1.4053         estimate D2E/DX2                !
 ! R3    R(1,37)                 1.0915         estimate D2E/DX2                !
 ! R4    R(2,3)                  1.4105         estimate D2E/DX2                !
 ! R5    R(2,15)                 1.0885         estimate D2E/DX2                !
 ! R6    R(3,4)                  1.4114         estimate D2E/DX2                !
 ! R7    R(3,18)                 1.3988         estimate D2E/DX2                !
 ! R8    R(4,5)                  1.3975         estimate D2E/DX2                !
 ! R9    R(4,7)                  1.5316         estimate D2E/DX2                !
 ! R10   R(5,6)                  1.4032         estimate D2E/DX2                !
 ! R11   R(5,16)                 1.0904         estimate D2E/DX2                !
 ! R12   R(6,46)                 1.4785         estimate D2E/DX2                !
 ! R13   R(7,8)                  1.5317         estimate D2E/DX2                !
 ! R14   R(7,38)                 1.5486         estimate D2E/DX2                !
 ! R15   R(7,42)                 1.5475         estimate D2E/DX2                !
 ! R16   R(8,9)                  1.4114         estimate D2E/DX2                !
 ! R17   R(8,14)                 1.3975         estimate D2E/DX2                !
 ! R18   R(9,10)                 1.4105         estimate D2E/DX2                !
 ! R19   R(9,18)                 1.3989         estimate D2E/DX2                !
 ! R20   R(10,11)                1.0885         estimate D2E/DX2                !
 ! R21   R(10,12)                1.3868         estimate D2E/DX2                !
 ! R22   R(12,13)                1.4052         estimate D2E/DX2                !
 ! R23   R(12,17)                1.0915         estimate D2E/DX2                !
 ! R24   R(13,14)                1.4032         estimate D2E/DX2                !
 ! R25   R(13,56)                1.4786         estimate D2E/DX2                !
 ! R26   R(14,36)                1.0904         estimate D2E/DX2                !
 ! R27   R(18,19)                1.4322         estimate D2E/DX2                !
 ! R28   R(19,20)                1.4277         estimate D2E/DX2                !
 ! R29   R(19,21)                1.3789         estimate D2E/DX2                !
 ! R30   R(20,22)                1.421          estimate D2E/DX2                !
 ! R31   R(20,23)                1.4343         estimate D2E/DX2                !
 ! R32   R(21,24)                1.4156         estimate D2E/DX2                !
 ! R33   R(21,25)                1.0915         estimate D2E/DX2                !
 ! R34   R(22,26)                1.3785         estimate D2E/DX2                !
 ! R35   R(22,27)                1.0906         estimate D2E/DX2                !
 ! R36   R(23,28)                1.4223         estimate D2E/DX2                !
 ! R37   R(23,29)                1.4222         estimate D2E/DX2                !
 ! R38   R(24,29)                1.3783         estimate D2E/DX2                !
 ! R39   R(24,30)                1.092          estimate D2E/DX2                !
 ! R40   R(26,31)                1.4176         estimate D2E/DX2                !
 ! R41   R(26,32)                1.0924         estimate D2E/DX2                !
 ! R42   R(28,31)                1.3781         estimate D2E/DX2                !
 ! R43   R(28,33)                1.0929         estimate D2E/DX2                !
 ! R44   R(29,34)                1.0928         estimate D2E/DX2                !
 ! R45   R(31,35)                1.0924         estimate D2E/DX2                !
 ! R46   R(38,39)                1.1            estimate D2E/DX2                !
 ! R47   R(38,40)                1.1004         estimate D2E/DX2                !
 ! R48   R(38,41)                1.1005         estimate D2E/DX2                !
 ! R49   R(42,43)                1.0995         estimate D2E/DX2                !
 ! R50   R(42,44)                1.1001         estimate D2E/DX2                !
 ! R51   R(42,45)                1.0994         estimate D2E/DX2                !
 ! R52   R(46,47)                1.4092         estimate D2E/DX2                !
 ! R53   R(46,48)                1.4091         estimate D2E/DX2                !
 ! R54   R(47,49)                1.3903         estimate D2E/DX2                !
 ! R55   R(47,50)                1.0913         estimate D2E/DX2                !
 ! R56   R(48,51)                1.3903         estimate D2E/DX2                !
 ! R57   R(48,52)                1.0912         estimate D2E/DX2                !
 ! R58   R(49,53)                1.407          estimate D2E/DX2                !
 ! R59   R(49,54)                1.0913         estimate D2E/DX2                !
 ! R60   R(51,53)                1.407          estimate D2E/DX2                !
 ! R61   R(51,55)                1.0913         estimate D2E/DX2                !
 ! R62   R(53,67)                1.4336         estimate D2E/DX2                !
 ! R63   R(56,57)                1.4091         estimate D2E/DX2                !
 ! R64   R(56,58)                1.4091         estimate D2E/DX2                !
 ! R65   R(57,59)                1.3903         estimate D2E/DX2                !
 ! R66   R(57,60)                1.0913         estimate D2E/DX2                !
 ! R67   R(58,61)                1.3903         estimate D2E/DX2                !
 ! R68   R(58,62)                1.0913         estimate D2E/DX2                !
 ! R69   R(59,63)                1.407          estimate D2E/DX2                !
 ! R70   R(59,64)                1.0913         estimate D2E/DX2                !
 ! R71   R(61,63)                1.407          estimate D2E/DX2                !
 ! R72   R(61,65)                1.0913         estimate D2E/DX2                !
 ! R73   R(63,66)                1.4336         estimate D2E/DX2                !
 ! R74   R(66,69)                1.1614         estimate D2E/DX2                !
 ! R75   R(67,68)                1.1614         estimate D2E/DX2                !
 ! A1    A(2,1,6)              120.9587         estimate D2E/DX2                !
 ! A2    A(2,1,37)             118.8713         estimate D2E/DX2                !
 ! A3    A(6,1,37)             120.1444         estimate D2E/DX2                !
 ! A4    A(1,2,3)              121.0907         estimate D2E/DX2                !
 ! A5    A(1,2,15)             119.3934         estimate D2E/DX2                !
 ! A6    A(3,2,15)             119.5129         estimate D2E/DX2                !
 ! A7    A(2,3,4)              119.2111         estimate D2E/DX2                !
 ! A8    A(2,3,18)             119.9074         estimate D2E/DX2                !
 ! A9    A(4,3,18)             120.8805         estimate D2E/DX2                !
 ! A10   A(3,4,5)              118.1438         estimate D2E/DX2                !
 ! A11   A(3,4,7)              122.518          estimate D2E/DX2                !
 ! A12   A(5,4,7)              119.3203         estimate D2E/DX2                !
 ! A13   A(4,5,6)              123.4712         estimate D2E/DX2                !
 ! A14   A(4,5,16)             118.2567         estimate D2E/DX2                !
 ! A15   A(6,5,16)             118.2454         estimate D2E/DX2                !
 ! A16   A(1,6,5)              117.1233         estimate D2E/DX2                !
 ! A17   A(1,6,46)             121.6048         estimate D2E/DX2                !
 ! A18   A(5,6,46)             121.2719         estimate D2E/DX2                !
 ! A19   A(4,7,8)              111.2776         estimate D2E/DX2                !
 ! A20   A(4,7,38)             108.8089         estimate D2E/DX2                !
 ! A21   A(4,7,42)             109.133          estimate D2E/DX2                !
 ! A22   A(8,7,38)             108.7132         estimate D2E/DX2                !
 ! A23   A(8,7,42)             109.2362         estimate D2E/DX2                !
 ! A24   A(38,7,42)            109.6538         estimate D2E/DX2                !
 ! A25   A(7,8,9)              122.5221         estimate D2E/DX2                !
 ! A26   A(7,8,14)             119.3286         estimate D2E/DX2                !
 ! A27   A(9,8,14)             118.1431         estimate D2E/DX2                !
 ! A28   A(8,9,10)             119.211          estimate D2E/DX2                !
 ! A29   A(8,9,18)             120.8828         estimate D2E/DX2                !
 ! A30   A(10,9,18)            119.9059         estimate D2E/DX2                !
 ! A31   A(9,10,11)            119.5143         estimate D2E/DX2                !
 ! A32   A(9,10,12)            121.0912         estimate D2E/DX2                !
 ! A33   A(11,10,12)           119.3923         estimate D2E/DX2                !
 ! A34   A(10,12,13)           120.9568         estimate D2E/DX2                !
 ! A35   A(10,12,17)           118.8668         estimate D2E/DX2                !
 ! A36   A(13,12,17)           120.1517         estimate D2E/DX2                !
 ! A37   A(12,13,14)           117.125          estimate D2E/DX2                !
 ! A38   A(12,13,56)           121.5947         estimate D2E/DX2                !
 ! A39   A(14,13,56)           121.2803         estimate D2E/DX2                !
 ! A40   A(8,14,13)            123.468          estimate D2E/DX2                !
 ! A41   A(8,14,36)            118.2647         estimate D2E/DX2                !
 ! A42   A(13,14,36)           118.25           estimate D2E/DX2                !
 ! A43   A(3,18,9)             121.6376         estimate D2E/DX2                !
 ! A44   A(3,18,19)            119.1156         estimate D2E/DX2                !
 ! A45   A(9,18,19)            119.112          estimate D2E/DX2                !
 ! A46   A(18,19,20)           119.1938         estimate D2E/DX2                !
 ! A47   A(18,19,21)           119.8859         estimate D2E/DX2                !
 ! A48   A(20,19,21)           120.9203         estimate D2E/DX2                !
 ! A49   A(19,20,22)           122.4071         estimate D2E/DX2                !
 ! A50   A(19,20,23)           118.4082         estimate D2E/DX2                !
 ! A51   A(22,20,23)           119.1847         estimate D2E/DX2                !
 ! A52   A(19,21,24)           120.4423         estimate D2E/DX2                !
 ! A53   A(19,21,25)           118.9457         estimate D2E/DX2                !
 ! A54   A(24,21,25)           120.6119         estimate D2E/DX2                !
 ! A55   A(20,22,26)           120.4957         estimate D2E/DX2                !
 ! A56   A(20,22,27)           118.972          estimate D2E/DX2                !
 ! A57   A(26,22,27)           120.5323         estimate D2E/DX2                !
 ! A58   A(20,23,28)           118.7575         estimate D2E/DX2                !
 ! A59   A(20,23,29)           119.1737         estimate D2E/DX2                !
 ! A60   A(28,23,29)           122.0688         estimate D2E/DX2                !
 ! A61   A(21,24,29)           120.1657         estimate D2E/DX2                !
 ! A62   A(21,24,30)           119.4998         estimate D2E/DX2                !
 ! A63   A(29,24,30)           120.3345         estimate D2E/DX2                !
 ! A64   A(22,26,31)           120.5071         estimate D2E/DX2                !
 ! A65   A(22,26,32)           119.887          estimate D2E/DX2                !
 ! A66   A(31,26,32)           119.6059         estimate D2E/DX2                !
 ! A67   A(23,28,31)           120.8084         estimate D2E/DX2                !
 ! A68   A(23,28,33)           118.6754         estimate D2E/DX2                !
 ! A69   A(31,28,33)           120.5163         estimate D2E/DX2                !
 ! A70   A(23,29,24)           120.8897         estimate D2E/DX2                !
 ! A71   A(23,29,34)           118.6918         estimate D2E/DX2                !
 ! A72   A(24,29,34)           120.4185         estimate D2E/DX2                !
 ! A73   A(26,31,28)           120.2467         estimate D2E/DX2                !
 ! A74   A(26,31,35)           119.6509         estimate D2E/DX2                !
 ! A75   A(28,31,35)           120.1024         estimate D2E/DX2                !
 ! A76   A(7,38,39)            110.547          estimate D2E/DX2                !
 ! A77   A(7,38,40)            111.0502         estimate D2E/DX2                !
 ! A78   A(7,38,41)            110.9524         estimate D2E/DX2                !
 ! A79   A(39,38,40)           108.1171         estimate D2E/DX2                !
 ! A80   A(39,38,41)           108.1266         estimate D2E/DX2                !
 ! A81   A(40,38,41)           107.9307         estimate D2E/DX2                !
 ! A82   A(7,42,43)            111.1811         estimate D2E/DX2                !
 ! A83   A(7,42,44)            110.6027         estimate D2E/DX2                !
 ! A84   A(7,42,45)            111.2892         estimate D2E/DX2                !
 ! A85   A(43,42,44)           108.1714         estimate D2E/DX2                !
 ! A86   A(43,42,45)           107.3171         estimate D2E/DX2                !
 ! A87   A(44,42,45)           108.137          estimate D2E/DX2                !
 ! A88   A(6,46,47)            121.1576         estimate D2E/DX2                !
 ! A89   A(6,46,48)            121.0441         estimate D2E/DX2                !
 ! A90   A(47,46,48)           117.7982         estimate D2E/DX2                !
 ! A91   A(46,47,49)           121.3843         estimate D2E/DX2                !
 ! A92   A(46,47,50)           119.5314         estimate D2E/DX2                !
 ! A93   A(49,47,50)           119.0637         estimate D2E/DX2                !
 ! A94   A(46,48,51)           121.3741         estimate D2E/DX2                !
 ! A95   A(46,48,52)           119.5079         estimate D2E/DX2                !
 ! A96   A(51,48,52)           119.0993         estimate D2E/DX2                !
 ! A97   A(47,49,53)           120.1345         estimate D2E/DX2                !
 ! A98   A(47,49,54)           120.3325         estimate D2E/DX2                !
 ! A99   A(53,49,54)           119.5294         estimate D2E/DX2                !
 ! A100  A(48,51,53)           120.1459         estimate D2E/DX2                !
 ! A101  A(48,51,55)           120.3245         estimate D2E/DX2                !
 ! A102  A(53,51,55)           119.5264         estimate D2E/DX2                !
 ! A103  A(49,53,51)           119.1627         estimate D2E/DX2                !
 ! A104  A(49,53,67)           120.4148         estimate D2E/DX2                !
 ! A105  A(51,53,67)           120.4226         estimate D2E/DX2                !
 ! A106  A(13,56,57)           121.1771         estimate D2E/DX2                !
 ! A107  A(13,56,58)           121.0268         estimate D2E/DX2                !
 ! A108  A(57,56,58)           117.7962         estimate D2E/DX2                !
 ! A109  A(56,57,59)           121.3855         estimate D2E/DX2                !
 ! A110  A(56,57,60)           119.5388         estimate D2E/DX2                !
 ! A111  A(59,57,60)           119.0553         estimate D2E/DX2                !
 ! A112  A(56,58,61)           121.3748         estimate D2E/DX2                !
 ! A113  A(56,58,62)           119.5106         estimate D2E/DX2                !
 ! A114  A(61,58,62)           119.0957         estimate D2E/DX2                !
 ! A115  A(57,59,63)           120.1355         estimate D2E/DX2                !
 ! A116  A(57,59,64)           120.3311         estimate D2E/DX2                !
 ! A117  A(63,59,64)           119.53           estimate D2E/DX2                !
 ! A118  A(58,61,63)           120.1475         estimate D2E/DX2                !
 ! A119  A(58,61,65)           120.3227         estimate D2E/DX2                !
 ! A120  A(63,61,65)           119.5266         estimate D2E/DX2                !
 ! A121  A(59,63,61)           119.1602         estimate D2E/DX2                !
 ! A122  A(59,63,66)           120.4162         estimate D2E/DX2                !
 ! A123  A(61,63,66)           120.4236         estimate D2E/DX2                !
 ! A124  L(63,66,69,64,-1)     179.998          estimate D2E/DX2                !
 ! A125  L(53,67,68,54,-1)     179.9974         estimate D2E/DX2                !
 ! A126  L(63,66,69,64,-2)     179.9896         estimate D2E/DX2                !
 ! A127  L(53,67,68,54,-2)     179.9929         estimate D2E/DX2                !
 ! D1    D(6,1,2,3)             -0.2544         estimate D2E/DX2                !
 ! D2    D(6,1,2,15)           179.1132         estimate D2E/DX2                !
 ! D3    D(37,1,2,3)          -178.4163         estimate D2E/DX2                !
 ! D4    D(37,1,2,15)            0.9513         estimate D2E/DX2                !
 ! D5    D(2,1,6,5)              0.0105         estimate D2E/DX2                !
 ! D6    D(2,1,6,46)          -179.9227         estimate D2E/DX2                !
 ! D7    D(37,1,6,5)           178.1491         estimate D2E/DX2                !
 ! D8    D(37,1,6,46)           -1.7841         estimate D2E/DX2                !
 ! D9    D(1,2,3,4)              0.4205         estimate D2E/DX2                !
 ! D10   D(1,2,3,18)          -179.9306         estimate D2E/DX2                !
 ! D11   D(15,2,3,4)          -178.9464         estimate D2E/DX2                !
 ! D12   D(15,2,3,18)            0.7025         estimate D2E/DX2                !
 ! D13   D(2,3,4,5)             -0.3379         estimate D2E/DX2                !
 ! D14   D(2,3,4,7)           -178.7892         estimate D2E/DX2                !
 ! D15   D(18,3,4,5)          -179.9833         estimate D2E/DX2                !
 ! D16   D(18,3,4,7)             1.5654         estimate D2E/DX2                !
 ! D17   D(2,3,18,9)          -176.4331         estimate D2E/DX2                !
 ! D18   D(2,3,18,19)           -0.6914         estimate D2E/DX2                !
 ! D19   D(4,3,18,9)             3.2098         estimate D2E/DX2                !
 ! D20   D(4,3,18,19)          178.9515         estimate D2E/DX2                !
 ! D21   D(3,4,5,6)              0.1015         estimate D2E/DX2                !
 ! D22   D(3,4,5,16)          -177.9877         estimate D2E/DX2                !
 ! D23   D(7,4,5,6)            178.6037         estimate D2E/DX2                !
 ! D24   D(7,4,5,16)             0.5145         estimate D2E/DX2                !
 ! D25   D(3,4,7,8)             -5.0457         estimate D2E/DX2                !
 ! D26   D(3,4,7,38)           114.7141         estimate D2E/DX2                !
 ! D27   D(3,4,7,42)          -125.6657         estimate D2E/DX2                !
 ! D28   D(5,4,7,8)            176.5205         estimate D2E/DX2                !
 ! D29   D(5,4,7,38)           -63.7197         estimate D2E/DX2                !
 ! D30   D(5,4,7,42)            55.9006         estimate D2E/DX2                !
 ! D31   D(4,5,6,1)              0.0645         estimate D2E/DX2                !
 ! D32   D(4,5,6,46)           179.998          estimate D2E/DX2                !
 ! D33   D(16,5,6,1)           178.1539         estimate D2E/DX2                !
 ! D34   D(16,5,6,46)           -1.9127         estimate D2E/DX2                !
 ! D35   D(1,6,46,47)          147.4412         estimate D2E/DX2                !
 ! D36   D(1,6,46,48)          -32.514          estimate D2E/DX2                !
 ! D37   D(5,6,46,47)          -32.4892         estimate D2E/DX2                !
 ! D38   D(5,6,46,48)          147.5556         estimate D2E/DX2                !
 ! D39   D(4,7,8,9)              4.4629         estimate D2E/DX2                !
 ! D40   D(4,7,8,14)          -176.458          estimate D2E/DX2                !
 ! D41   D(38,7,8,9)          -115.3537         estimate D2E/DX2                !
 ! D42   D(38,7,8,14)           63.7253         estimate D2E/DX2                !
 ! D43   D(42,7,8,9)           125.0221         estimate D2E/DX2                !
 ! D44   D(42,7,8,14)          -55.8988         estimate D2E/DX2                !
 ! D45   D(4,7,38,39)          -60.742          estimate D2E/DX2                !
 ! D46   D(4,7,38,40)           59.2638         estimate D2E/DX2                !
 ! D47   D(4,7,38,41)          179.3041         estimate D2E/DX2                !
 ! D48   D(8,7,38,39)           60.5989         estimate D2E/DX2                !
 ! D49   D(8,7,38,40)         -179.3952         estimate D2E/DX2                !
 ! D50   D(8,7,38,41)          -59.355          estimate D2E/DX2                !
 ! D51   D(42,7,38,39)         179.9624         estimate D2E/DX2                !
 ! D52   D(42,7,38,40)         -60.0317         estimate D2E/DX2                !
 ! D53   D(42,7,38,41)          60.0085         estimate D2E/DX2                !
 ! D54   D(4,7,42,43)          -59.2561         estimate D2E/DX2                !
 ! D55   D(4,7,42,44)           60.9411         estimate D2E/DX2                !
 ! D56   D(4,7,42,45)         -178.8336         estimate D2E/DX2                !
 ! D57   D(8,7,42,43)          178.8818         estimate D2E/DX2                !
 ! D58   D(8,7,42,44)          -60.921          estimate D2E/DX2                !
 ! D59   D(8,7,42,45)           59.3044         estimate D2E/DX2                !
 ! D60   D(38,7,42,43)          59.8401         estimate D2E/DX2                !
 ! D61   D(38,7,42,44)        -179.9627         estimate D2E/DX2                !
 ! D62   D(38,7,42,45)         -59.7374         estimate D2E/DX2                !
 ! D63   D(7,8,9,10)           179.8062         estimate D2E/DX2                !
 ! D64   D(7,8,9,18)            -0.3806         estimate D2E/DX2                !
 ! D65   D(14,8,9,10)            0.7168         estimate D2E/DX2                !
 ! D66   D(14,8,9,18)         -179.4701         estimate D2E/DX2                !
 ! D67   D(7,8,14,13)         -179.8027         estimate D2E/DX2                !
 ! D68   D(7,8,14,36)            1.7402         estimate D2E/DX2                !
 ! D69   D(9,8,14,13)           -0.6833         estimate D2E/DX2                !
 ! D70   D(9,8,14,36)         -179.1404         estimate D2E/DX2                !
 ! D71   D(8,9,10,11)         -179.6791         estimate D2E/DX2                !
 ! D72   D(8,9,10,12)           -0.2188         estimate D2E/DX2                !
 ! D73   D(18,9,10,11)           0.5059         estimate D2E/DX2                !
 ! D74   D(18,9,10,12)         179.9661         estimate D2E/DX2                !
 ! D75   D(8,9,18,3)            -3.8025         estimate D2E/DX2                !
 ! D76   D(8,9,18,19)         -179.5443         estimate D2E/DX2                !
 ! D77   D(10,9,18,3)          176.0094         estimate D2E/DX2                !
 ! D78   D(10,9,18,19)           0.2675         estimate D2E/DX2                !
 ! D79   D(9,10,12,13)          -0.3624         estimate D2E/DX2                !
 ! D80   D(9,10,12,17)        -178.5567         estimate D2E/DX2                !
 ! D81   D(11,10,12,13)        179.0985         estimate D2E/DX2                !
 ! D82   D(11,10,12,17)          0.9042         estimate D2E/DX2                !
 ! D83   D(10,12,13,14)          0.4102         estimate D2E/DX2                !
 ! D84   D(10,12,13,56)       -179.5706         estimate D2E/DX2                !
 ! D85   D(17,12,13,14)        178.5814         estimate D2E/DX2                !
 ! D86   D(17,12,13,56)         -1.3994         estimate D2E/DX2                !
 ! D87   D(12,13,14,8)           0.1201         estimate D2E/DX2                !
 ! D88   D(12,13,14,36)        178.5775         estimate D2E/DX2                !
 ! D89   D(56,13,14,8)        -179.899          estimate D2E/DX2                !
 ! D90   D(56,13,14,36)         -1.4416         estimate D2E/DX2                !
 ! D91   D(12,13,56,57)        147.3881         estimate D2E/DX2                !
 ! D92   D(12,13,56,58)        -32.5929         estimate D2E/DX2                !
 ! D93   D(14,13,56,57)        -32.5919         estimate D2E/DX2                !
 ! D94   D(14,13,56,58)        147.4271         estimate D2E/DX2                !
 ! D95   D(3,18,19,20)         -87.8954         estimate D2E/DX2                !
 ! D96   D(3,18,19,21)          92.1158         estimate D2E/DX2                !
 ! D97   D(9,18,19,20)          87.9551         estimate D2E/DX2                !
 ! D98   D(9,18,19,21)         -92.0337         estimate D2E/DX2                !
 ! D99   D(18,19,20,22)          0.024          estimate D2E/DX2                !
 ! D100  D(18,19,20,23)       -179.9843         estimate D2E/DX2                !
 ! D101  D(21,19,20,22)       -179.9874         estimate D2E/DX2                !
 ! D102  D(21,19,20,23)          0.0043         estimate D2E/DX2                !
 ! D103  D(18,19,21,24)        179.9835         estimate D2E/DX2                !
 ! D104  D(18,19,21,25)          0.0014         estimate D2E/DX2                !
 ! D105  D(20,19,21,24)         -0.005          estimate D2E/DX2                !
 ! D106  D(20,19,21,25)       -179.9872         estimate D2E/DX2                !
 ! D107  D(19,20,22,26)        179.9919         estimate D2E/DX2                !
 ! D108  D(19,20,22,27)          0.0042         estimate D2E/DX2                !
 ! D109  D(23,20,22,26)          0.0002         estimate D2E/DX2                !
 ! D110  D(23,20,22,27)       -179.9875         estimate D2E/DX2                !
 ! D111  D(19,20,23,28)       -179.997          estimate D2E/DX2                !
 ! D112  D(19,20,23,29)         -0.0005         estimate D2E/DX2                !
 ! D113  D(22,20,23,28)         -0.005          estimate D2E/DX2                !
 ! D114  D(22,20,23,29)        179.9915         estimate D2E/DX2                !
 ! D115  D(19,21,24,29)          0.0018         estimate D2E/DX2                !
 ! D116  D(19,21,24,30)       -179.9896         estimate D2E/DX2                !
 ! D117  D(25,21,24,29)        179.9837         estimate D2E/DX2                !
 ! D118  D(25,21,24,30)         -0.0078         estimate D2E/DX2                !
 ! D119  D(20,22,26,31)          0.0041         estimate D2E/DX2                !
 ! D120  D(20,22,26,32)       -179.9827         estimate D2E/DX2                !
 ! D121  D(27,22,26,31)        179.9916         estimate D2E/DX2                !
 ! D122  D(27,22,26,32)          0.0048         estimate D2E/DX2                !
 ! D123  D(20,23,28,31)          0.0057         estimate D2E/DX2                !
 ! D124  D(20,23,28,33)        179.9965         estimate D2E/DX2                !
 ! D125  D(29,23,28,31)       -179.9907         estimate D2E/DX2                !
 ! D126  D(29,23,28,33)          0.0001         estimate D2E/DX2                !
 ! D127  D(20,23,29,24)         -0.0026         estimate D2E/DX2                !
 ! D128  D(20,23,29,34)        179.9963         estimate D2E/DX2                !
 ! D129  D(28,23,29,24)        179.9938         estimate D2E/DX2                !
 ! D130  D(28,23,29,34)         -0.0073         estimate D2E/DX2                !
 ! D131  D(21,24,29,23)          0.002          estimate D2E/DX2                !
 ! D132  D(21,24,29,34)       -179.9969         estimate D2E/DX2                !
 ! D133  D(30,24,29,23)        179.9934         estimate D2E/DX2                !
 ! D134  D(30,24,29,34)         -0.0055         estimate D2E/DX2                !
 ! D135  D(22,26,31,28)         -0.0035         estimate D2E/DX2                !
 ! D136  D(22,26,31,35)       -179.9923         estimate D2E/DX2                !
 ! D137  D(32,26,31,28)        179.9834         estimate D2E/DX2                !
 ! D138  D(32,26,31,35)         -0.0054         estimate D2E/DX2                !
 ! D139  D(23,28,31,26)         -0.0015         estimate D2E/DX2                !
 ! D140  D(23,28,31,35)        179.9872         estimate D2E/DX2                !
 ! D141  D(33,28,31,26)       -179.9922         estimate D2E/DX2                !
 ! D142  D(33,28,31,35)         -0.0035         estimate D2E/DX2                !
 ! D143  D(6,46,47,49)         179.8852         estimate D2E/DX2                !
 ! D144  D(6,46,47,50)          -1.7818         estimate D2E/DX2                !
 ! D145  D(48,46,47,49)         -0.1582         estimate D2E/DX2                !
 ! D146  D(48,46,47,50)        178.1748         estimate D2E/DX2                !
 ! D147  D(6,46,48,51)         179.9484         estimate D2E/DX2                !
 ! D148  D(6,46,48,52)          -1.6416         estimate D2E/DX2                !
 ! D149  D(47,46,48,51)         -0.0083         estimate D2E/DX2                !
 ! D150  D(47,46,48,52)        178.4018         estimate D2E/DX2                !
 ! D151  D(46,47,49,53)          0.187          estimate D2E/DX2                !
 ! D152  D(46,47,49,54)        179.4989         estimate D2E/DX2                !
 ! D153  D(50,47,49,53)       -178.1536         estimate D2E/DX2                !
 ! D154  D(50,47,49,54)          1.1583         estimate D2E/DX2                !
 ! D155  D(46,48,51,53)          0.1446         estimate D2E/DX2                !
 ! D156  D(46,48,51,55)        179.4924         estimate D2E/DX2                !
 ! D157  D(52,48,51,53)       -178.2718         estimate D2E/DX2                !
 ! D158  D(52,48,51,55)          1.076          estimate D2E/DX2                !
 ! D159  D(47,49,53,51)         -0.0471         estimate D2E/DX2                !
 ! D160  D(47,49,53,67)        179.9282         estimate D2E/DX2                !
 ! D161  D(54,49,53,51)       -179.3646         estimate D2E/DX2                !
 ! D162  D(54,49,53,67)          0.6107         estimate D2E/DX2                !
 ! D163  D(48,51,53,49)         -0.1163         estimate D2E/DX2                !
 ! D164  D(48,51,53,67)        179.9084         estimate D2E/DX2                !
 ! D165  D(55,51,53,49)       -179.4693         estimate D2E/DX2                !
 ! D166  D(55,51,53,67)          0.5554         estimate D2E/DX2                !
 ! D167  D(13,56,57,59)        179.8667         estimate D2E/DX2                !
 ! D168  D(13,56,57,60)         -1.7894         estimate D2E/DX2                !
 ! D169  D(58,56,57,59)         -0.1517         estimate D2E/DX2                !
 ! D170  D(58,56,57,60)        178.1922         estimate D2E/DX2                !
 ! D171  D(13,56,58,61)        179.9782         estimate D2E/DX2                !
 ! D172  D(13,56,58,62)         -1.6186         estimate D2E/DX2                !
 ! D173  D(57,56,58,61)         -0.0034         estimate D2E/DX2                !
 ! D174  D(57,56,58,62)        178.3998         estimate D2E/DX2                !
 ! D175  D(56,57,59,63)          0.1762         estimate D2E/DX2                !
 ! D176  D(56,57,59,64)        179.4948         estimate D2E/DX2                !
 ! D177  D(60,57,59,63)       -178.1755         estimate D2E/DX2                !
 ! D178  D(60,57,59,64)          1.143          estimate D2E/DX2                !
 ! D179  D(56,58,61,63)          0.1327         estimate D2E/DX2                !
 ! D180  D(56,58,61,65)        179.4846         estimate D2E/DX2                !
 ! D181  D(62,58,61,63)       -178.277          estimate D2E/DX2                !
 ! D182  D(62,58,61,65)          1.0749         estimate D2E/DX2                !
 ! D183  D(57,59,63,61)         -0.0434         estimate D2E/DX2                !
 ! D184  D(57,59,63,66)        179.9373         estimate D2E/DX2                !
 ! D185  D(64,59,63,61)       -179.3674         estimate D2E/DX2                !
 ! D186  D(64,59,63,66)          0.6133         estimate D2E/DX2                !
 ! D187  D(58,61,63,59)         -0.1089         estimate D2E/DX2                !
 ! D188  D(58,61,63,66)        179.9104         estimate D2E/DX2                !
 ! D189  D(65,61,63,59)       -179.4659         estimate D2E/DX2                !
 ! D190  D(65,61,63,66)          0.5534         estimate D2E/DX2                !
 --------------------------------------------------------------------------------
 Trust Radius=3.00D-01 FncErr=1.00D-07 GrdErr=1.00D-06
 Number of steps in this run=    402 maximum allowed number of steps=    414.
 GradGradGradGradGradGradGradGradGradGradGradGradGradGradGradGradGradGrad

 Leave Link  103 at Wed Feb 24 20:27:01 2021, MaxMem=  5242880000 cpu:         2.0
 (Enter /opt/nce/packages/global/g09/l202.exe)
 Symmetry turned off by external request.
 Stoichiometry    C39H27N3
 Framework group  C1[X(C39H27N3)]
 Deg. of freedom   201
 Full point group                 C1      NOp   1
                          Input orientation:                          
 ---------------------------------------------------------------------
 Center     Atomic      Atomic             Coordinates (Angstroms)
 Number     Number       Type             X           Y           Z
 ---------------------------------------------------------------------
      1          6           0        3.655688    0.761369   -0.403318
      2          6           0        2.431360    1.397545   -0.543103
      3          6           0        1.222255    0.675122   -0.467164
      4          6           0        1.264744   -0.716643   -0.236159
      5          6           0        2.515776   -1.324140   -0.098681
      6          6           0        3.729002   -0.623482   -0.176165
      7          6           0        0.000687   -1.578702   -0.166834
      8          6           0       -1.263899   -0.718838   -0.252928
      9          6           0       -1.220416    0.674895   -0.471414
     10          6           0       -2.429045    1.398539   -0.542641
     11          1           0       -2.401456    2.472717   -0.716202
     12          6           0       -3.653750    0.762364   -0.406195
     13          6           0       -3.728285   -0.625663   -0.200052
     14          6           0       -2.515618   -1.328168   -0.130752
     15          1           0        2.403789    2.473719   -0.703874
     16          1           0        2.552001   -2.404264    0.046496
     17          1           0       -4.567165    1.353841   -0.491183
     18          7           0        0.001151    1.341720   -0.613153
     19          6           0        0.001362    2.758345   -0.823789
     20          6           0       -0.000051    3.630455    0.306583
     21          6           0        0.002682    3.262123   -2.107392
     22          6           0       -0.001169    3.145814    1.642337
     23          6           0       -0.000162    5.046165    0.076202
     24          6           0        0.002553    4.660240   -2.329176
     25          1           0        0.003528    2.566002   -2.948090
     26          6           0       -0.002350    4.023802    2.705059
     27          1           0       -0.000873    2.068735    1.813510
     28          6           0       -0.001501    5.921856    1.197020
     29          6           0        0.001141    5.530962   -1.260783
     30          1           0        0.003438    5.042430   -3.352148
     31          6           0       -0.002555    5.423689    2.481951
     32          1           0       -0.002917    3.640350    3.727896
     33          1           0       -0.001526    7.000283    1.019938
     34          1           0        0.000985    6.610996   -1.427228
     35          1           0       -0.003368    6.106781    3.334397
     36          1           0       -2.551262   -2.402492    0.052294
     37          1           0        4.567914    1.359503   -0.442262
     38          6           0        0.007954   -2.571970   -1.354903
     39          1           0        0.012000   -2.029339   -2.311785
     40          1           0        0.897987   -3.218286   -1.324290
     41          1           0       -0.881746   -3.219263   -1.332129
     42          6           0       -0.005873   -2.362935    1.167182
     43          1           0        0.880677   -3.007580    1.253421
     44          1           0       -0.011756   -1.671412    2.022726
     45          1           0       -0.890579   -3.011044    1.244881
     46          6           0        5.026325   -1.315974   -0.023337
     47          6           0        5.159649   -2.436608    0.820559
     48          6           0        6.171142   -0.875738   -0.716893
     49          6           0        6.376726   -3.092781    0.965960
     50          1           0        4.298532   -2.783449    1.394225
     51          6           0        7.394704   -1.521109   -0.577461
     52          1           0        6.093549   -0.026700   -1.398023
     53          6           0        7.510934   -2.640578    0.266899
     54          1           0        6.462517   -3.954180    1.630543
     55          1           0        8.268598   -1.170572   -1.129243
     56          6           0       -5.026544   -1.319694   -0.062075
     57          6           0       -5.199638   -2.641070   -0.520002
     58          6           0       -6.132528   -0.680008    0.532151
     59          6           0       -6.417670   -3.298741   -0.389997
     60          1           0       -4.370664   -3.153098   -1.011479
     61          6           0       -7.356670   -1.325584    0.665167
     62          1           0       -6.022397    0.333928    0.920267
     63          6           0       -7.512789   -2.646138    0.205311
     64          1           0       -6.534962   -4.319388   -0.758182
     65          1           0       -8.199657   -0.816750    1.135798
     66          6           0       -8.771854   -3.318112    0.341205
     67          6           0        8.769237   -3.311723    0.413559
     68          7           0        9.788563   -3.855535    0.532317
     69          7           0       -9.791787   -3.862584    0.451429
 ---------------------------------------------------------------------
 Rotational constants (GHZ):      0.1019980      0.0410421      0.0312838
 Leave Link  202 at Wed Feb 24 20:27:05 2021, MaxMem=  5242880000 cpu:         7.0
 (Enter /opt/nce/packages/global/g09/l301.exe)
 Standard basis: def2TZVP (5D, 7F)
 Ernie: Thresh=  0.10000D-02 Tol=  0.10000D-05 Strict=F.
  1464 basis functions,  2358 primitive gaussians,  1674 cartesian basis functions
   141 alpha electrons      141 beta electrons
       nuclear repulsion energy      4204.9252395032 Hartrees.
 IExCor=20419 DFT=T Ex+Corr=CAM-B3LYP ExCW=0 ScaHFX=  1.000000
 ScaDFX=  1.000000  1.000000  1.000000  0.810000 ScalE2=  1.000000  1.000000
 IRadAn=      5 IRanWt=     -1 IRanGd=            0 ICorTp=0 IEmpDi=141
  HFx wShort=  0.000000 wLong=  0.330000 cFull=  0.190000 cShort=  0.000000 cLong=  0.460000
  DFx wShort=  0.000000 wLong=  0.330000 cFull=  0.190000 cShort=  0.000000 cLong=  0.460000
 NAtoms=   69 NActive=   69 NUniq=   69 SFac= 1.00D+00 NAtFMM=   60 NAOKFM=T Big=T
 Integral buffers will be    131072 words long.
 Raffenetti 2 integral format.
 Two-electron integral symmetry is turned off.
 R6Disp:  Grimme-D3(BJ) Dispersion energy=       -0.0931747401 Hartrees.
 Nuclear repulsion after empirical dispersion term =     4204.8320647632 Hartrees.
 ------------------------------------------------------------------------------
 Polarizable Continuum Model (PCM)
 =================================
 Model                : PCM (using non-symmetric T matrix).
 Atomic radii         : SMD-Coulomb.
 Polarization charges : Total charges.
 Charge compensation  : None.
 Solution method      : On-the-fly selection.
 Cavity type          : VdW (van der Waals Surface) (Alpha=1.000).
 Cavity algorithm     : GePol (No added spheres)
                        Default sphere list used, NSphG=   69.
                        Lebedev-Laikov grids with approx.  5.0 points / Ang**2.
                        Smoothing algorithm: York/Karplus (Gamma=1.0000).
                        Polarization charges: spherical gaussians, with
                                              point-specific exponents (IZeta= 3).
                        Self-potential: point-specific (ISelfS= 7).
                        Self-field    : sphere-specific E.n sum rule (ISelfD= 2).
 1st derivatives      : Analytical E(r).r(x)/FMM algorithm (CHGder, D1EAlg=3).
                        Cavity 1st derivative terms included.
 Solvent              : n,n-DiMethylFormamide, Eps=  37.219000 Eps(inf)=   2.046330
 ------------------------------------------------------------------------------
 GePol: Number of generator spheres                  =      69
 GePol: Total number of spheres                      =      69
 GePol: Number of exposed spheres                    =      69 (100.00%)
 GePol: Number of points                             =    5359
 GePol: Average weight of points                     =       0.11
 GePol: Minimum weight of points                     =   0.49D-11
 GePol: Maximum weight of points                     =    0.17992
 GePol: Number of points with low weight             =     307
 GePol: Fraction of low-weight points (<1% of avg)   =       5.73%
 GePol: Cavity surface area                          =    575.459 Ang**2
 GePol: Cavity volume                                =    565.600 Ang**3
 ------------------------------------------------------------------------------
 Atomic radii for non-electrostatic terms: SMD-CDS.
 ------------------------------------------------------------------------------
 PCM non-electrostatic energy =        -0.0036462890 Hartrees.
 Nuclear repulsion after PCM non-electrostatic terms =     4204.8284184741 Hartrees.
 Leave Link  301 at Wed Feb 24 20:27:10 2021, MaxMem=  5242880000 cpu:        36.4
 (Enter /opt/nce/packages/global/g09/l302.exe)
 NPDir=0 NMtPBC=     1 NCelOv=     1 NCel=       1 NClECP=     1 NCelD=      1
         NCelK=      1 NCelE2=     1 NClLst=     1 CellRange=     0.0.
 One-electron integrals computed using PRISM.
   1 Symmetry operations used in ECPInt.
 ECPInt:  NShTT=  162735 NPrTT=  503508 LenC2=  113989 LenP2D=  233081.
 LDataN:  DoStor=T MaxTD1= 6 Len=  172
 NBasis=  1464 RedAO= T EigKep=  3.48D-06  NBF=  1464
 NBsUse=  1464 1.00D-06 EigRej= -1.00D+00 NBFU=  1464
 Precomputing XC quadrature grid using
 IXCGrd= 4 IRadAn=           5 IRanWt=          -1 IRanGd=           0 AccXCQ= 0.00D+00.
 Generated NRdTot=       0 NPtTot=           0 NUsed=           0 NTot=          32
 NSgBfM=  1456  1456  1463  1473  1473 MxSgAt=    69 MxSgA2=    69.
 Leave Link  302 at Wed Feb 24 20:27:14 2021, MaxMem=  5242880000 cpu:        56.0
 (Enter /opt/nce/packages/global/g09/l303.exe)
 DipDrv:  MaxL=1.
 Leave Link  303 at Wed Feb 24 20:27:15 2021, MaxMem=  5242880000 cpu:         4.8
 (Enter /opt/nce/packages/global/g09/l401.exe)
 ExpMin= 9.52D-02 ExpMax= 1.97D+04 ExpMxC= 6.73D+02 IAcc=3 IRadAn=         5 AccDes= 0.00D+00
 Harris functional with IExCor=20419 and IRadAn=       5 diagonalized for initial guess.
 HarFok:  IExCor=20419 AccDes= 0.00D+00 IRadAn=         5 IDoV= 1 UseB2=F ITyADJ=14
 ICtDFT=  3500011 ScaDFX=  1.000000  1.000000  1.000000  1.000000
 FoFCou: FMM=F IPFlag=           0 FMFlag=      100000 FMFlg1=        2001
         NFxFlg=           0 DoJE=T BraDBF=F KetDBF=T FulRan=T
         wScrn=  0.000000 ICntrl=     500 IOpCl=  0 I1Cent=   200000004 NGrid=           0
         NMat0=    1 NMatS0=      1 NMatT0=    0 NMatD0=    1 NMtDS0=    0 NMtDT0=    0
 Symmetry not used in FoFCou.
 Harris En= -1599.73353856409    
 JPrj=0 DoOrth=F DoCkMO=F.
 Leave Link  401 at Wed Feb 24 20:27:37 2021, MaxMem=  5242880000 cpu:       229.7
 (Enter /opt/nce/packages/global/g09/l502.exe)
 Closed shell SCF:
 Using DIIS extrapolation, IDIIS=  1040.
 Two-electron integral symmetry not used.
 IVT=     8455648 IEndB=     8455648 NGot=  5242880000 MDV=  5237244943
 LenX=  5237244943 LenY=  5234440993
 Requested convergence on RMS density matrix=1.00D-08 within 128 cycles.
 Requested convergence on MAX density matrix=1.00D-06.
 Requested convergence on             energy=1.00D-06.
 No special actions if energy rises.
 Fock matrices will be formed incrementally for  20 cycles.

 Cycle   1  Pass 1  IDiag  1:
 FoFJK:  IHMeth= 1 ICntrl=       0 DoSepK=T KAlg= 0 I1Cent=   0 FoldK=F
 IRaf=         1 NMat=   1 IRICut=       1 DoRegI=T DoRafI=F ISym2E= 0.
 FoFCou: FMM=T IPFlag=           0 FMFlag=      100000 FMFlg1=        2001
         NFxFlg=           0 DoJE=T BraDBF=F KetDBF=F FulRan=T
         wScrn=  0.000000 ICntrl=     500 IOpCl=  0 I1Cent=           0 NGrid=           0
         NMat0=    1 NMatS0=      1 NMatT0=    0 NMatD0=    1 NMtDS0=    0 NMtDT0=    0
 Symmetry not used in FoFCou.
 FMM levels:  10  Number of levels for PrismC:   9
 Inv3:  Mode=1 IEnd=    86156643.
 Iteration    1 A*A^-1 deviation from unit magnitude is 1.09D-14 for   5340.
 Iteration    1 A*A^-1 deviation from orthogonality  is 8.22D-15 for   5353   4639.
 Iteration    1 A^-1*A deviation from unit magnitude is 1.04D-14 for   5340.
 Iteration    1 A^-1*A deviation from orthogonality  is 6.62D-11 for   4864   4855.
 E= -1666.04745129246    
 DIIS: error= 3.57D-02 at cycle   1 NSaved=   1.
 NSaved= 1 IEnMin= 1 EnMin= -1666.04745129246     IErMin= 1 ErrMin= 3.57D-02
 ErrMax= 3.57D-02  0.00D+00 EMaxC= 1.00D-01 BMatC= 2.87D+00 BMatP= 2.87D+00
 IDIUse=3 WtCom= 6.43D-01 WtEn= 3.57D-01
 Coeff-Com:  0.100D+01
 Coeff-En:   0.100D+01
 Coeff:      0.100D+01
 Gap=     0.265 Goal=   None    Shift=    0.000
 GapD=    0.265 DampG=1.000 DampE=0.500 DampFc=0.5000 IDamp=-1.
 Damping current iteration by 5.00D-01
 RMSDP=1.55D-03 MaxDP=2.91D-01              OVMax= 1.94D-01

 Cycle   2  Pass 1  IDiag  1:
 RMSU=  6.71D-04    CP:  9.20D-01
 E= -1666.24359355069     Delta-E=       -0.196142258231 Rises=F Damp=T
 DIIS: error= 1.81D-02 at cycle   2 NSaved=   2.
 NSaved= 2 IEnMin= 2 EnMin= -1666.24359355069     IErMin= 2 ErrMin= 1.81D-02
 ErrMax= 1.81D-02  0.00D+00 EMaxC= 1.00D-01 BMatC= 6.20D-01 BMatP= 2.87D+00
 IDIUse=3 WtCom= 8.19D-01 WtEn= 1.81D-01
 Coeff-Com: -0.673D+00 0.167D+01
 Coeff-En:   0.000D+00 0.100D+01
 Coeff:     -0.551D+00 0.155D+01
 Gap=     0.204 Goal=   None    Shift=    0.000
 RMSDP=8.04D-04 MaxDP=8.45D-02 DE=-1.96D-01 OVMax= 2.93D-01

 Cycle   3  Pass 1  IDiag  1:
 RMSU=  6.27D-04    CP:  8.53D-01  1.58D+00
 E= -1666.26393672138     Delta-E=       -0.020343170693 Rises=F Damp=F
 DIIS: error= 8.12D-03 at cycle   3 NSaved=   3.
 NSaved= 3 IEnMin= 3 EnMin= -1666.26393672138     IErMin= 3 ErrMin= 8.12D-03
 ErrMax= 8.12D-03  0.00D+00 EMaxC= 1.00D-01 BMatC= 2.16D-01 BMatP= 6.20D-01
 IDIUse=3 WtCom= 9.19D-01 WtEn= 8.12D-02
 Coeff-Com: -0.430D+00 0.927D+00 0.503D+00
 Coeff-En:   0.000D+00 0.439D+00 0.561D+00
 Coeff:     -0.395D+00 0.888D+00 0.507D+00
 Gap=     0.233 Goal=   None    Shift=    0.000
 RMSDP=4.12D-04 MaxDP=7.57D-02 DE=-2.03D-02 OVMax= 1.56D-01

 Cycle   4  Pass 1  IDiag  1:
 RMSU=  1.77D-04    CP:  8.37D-01  1.89D+00  5.25D-01
 E= -1666.46534694028     Delta-E=       -0.201410218899 Rises=F Damp=F
 DIIS: error= 1.41D-03 at cycle   4 NSaved=   4.
 NSaved= 4 IEnMin= 4 EnMin= -1666.46534694028     IErMin= 4 ErrMin= 1.41D-03
 ErrMax= 1.41D-03  0.00D+00 EMaxC= 1.00D-01 BMatC= 5.23D-03 BMatP= 2.16D-01
 IDIUse=3 WtCom= 9.86D-01 WtEn= 1.41D-02
 Coeff-Com: -0.175D+00 0.377D+00 0.260D+00 0.538D+00
 Coeff-En:   0.000D+00 0.000D+00 0.000D+00 0.100D+01
 Coeff:     -0.172D+00 0.372D+00 0.256D+00 0.545D+00
 Gap=     0.206 Goal=   None    Shift=    0.000
 RMSDP=5.31D-05 MaxDP=6.78D-03 DE=-2.01D-01 OVMax= 1.58D-02

 Cycle   5  Pass 1  IDiag  1:
 RMSU=  3.82D-05    CP:  8.36D-01  1.89D+00  5.74D-01  8.89D-01
 E= -1666.47005352607     Delta-E=       -0.004706585792 Rises=F Damp=F
 DIIS: error= 1.73D-04 at cycle   5 NSaved=   5.
 NSaved= 5 IEnMin= 5 EnMin= -1666.47005352607     IErMin= 5 ErrMin= 1.73D-04
 ErrMax= 1.73D-04  0.00D+00 EMaxC= 1.00D-01 BMatC= 9.80D-05 BMatP= 5.23D-03
 IDIUse=3 WtCom= 9.98D-01 WtEn= 1.73D-03
 Coeff-Com:  0.221D-01-0.475D-01-0.904D-02 0.798D-01 0.955D+00
 Coeff-En:   0.000D+00 0.000D+00 0.000D+00 0.000D+00 0.100D+01
 Coeff:      0.221D-01-0.475D-01-0.903D-02 0.797D-01 0.955D+00
 Gap=     0.208 Goal=   None    Shift=    0.000
 RMSDP=2.40D-05 MaxDP=2.65D-03 DE=-4.71D-03 OVMax= 5.54D-03

 Cycle   6  Pass 1  IDiag  1:
 RMSU=  1.47D-05    CP:  8.35D-01  1.90D+00  5.85D-01  9.42D-01  1.22D+00
 E= -1666.47018090174     Delta-E=       -0.000127375671 Rises=F Damp=F
 DIIS: error= 1.07D-04 at cycle   6 NSaved=   6.
 NSaved= 6 IEnMin= 6 EnMin= -1666.47018090174     IErMin= 6 ErrMin= 1.07D-04
 ErrMax= 1.07D-04  0.00D+00 EMaxC= 1.00D-01 BMatC= 2.47D-05 BMatP= 9.80D-05
 IDIUse=3 WtCom= 9.99D-01 WtEn= 1.07D-03
 Coeff-Com:  0.175D-01-0.378D-01-0.157D-01 0.343D-02 0.420D+00 0.612D+00
 Coeff-En:   0.000D+00 0.000D+00 0.000D+00 0.000D+00 0.000D+00 0.100D+01
 Coeff:      0.175D-01-0.377D-01-0.157D-01 0.343D-02 0.420D+00 0.613D+00
 Gap=     0.208 Goal=   None    Shift=    0.000
 RMSDP=5.81D-06 MaxDP=8.34D-04 DE=-1.27D-04 OVMax= 1.96D-03

 Cycle   7  Pass 1  IDiag  1:
 RMSU=  4.24D-06    CP:  8.35D-01  1.91D+00  5.86D-01  9.62D-01  1.26D+00
                    CP:  9.68D-01
 E= -1666.47020904372     Delta-E=       -0.000028141983 Rises=F Damp=F
 DIIS: error= 3.28D-05 at cycle   7 NSaved=   7.
 NSaved= 7 IEnMin= 7 EnMin= -1666.47020904372     IErMin= 7 ErrMin= 3.28D-05
 ErrMax= 3.28D-05  0.00D+00 EMaxC= 1.00D-01 BMatC= 1.76D-06 BMatP= 2.47D-05
 IDIUse=1 WtCom= 1.00D+00 WtEn= 0.00D+00
 Coeff-Com:  0.332D-02-0.717D-02-0.406D-02-0.922D-02 0.226D-01 0.186D+00
 Coeff-Com:  0.809D+00
 Coeff:      0.332D-02-0.717D-02-0.406D-02-0.922D-02 0.226D-01 0.186D+00
 Coeff:      0.809D+00
 Gap=     0.209 Goal=   None    Shift=    0.000
 RMSDP=2.66D-06 MaxDP=3.10D-04 DE=-2.81D-05 OVMax= 1.11D-03

 Cycle   8  Pass 1  IDiag  1:
 RMSU=  1.82D-06    CP:  8.34D-01  1.91D+00  5.86D-01  9.65D-01  1.29D+00
                    CP:  1.03D+00  1.03D+00
 E= -1666.47021178759     Delta-E=       -0.000002743869 Rises=F Damp=F
 DIIS: error= 2.47D-05 at cycle   8 NSaved=   8.
 NSaved= 8 IEnMin= 8 EnMin= -1666.47021178759     IErMin= 8 ErrMin= 2.47D-05
 ErrMax= 2.47D-05  0.00D+00 EMaxC= 1.00D-01 BMatC= 6.45D-07 BMatP= 1.76D-06
 IDIUse=1 WtCom= 1.00D+00 WtEn= 0.00D+00
 Coeff-Com: -0.109D-02 0.238D-02 0.575D-03-0.640D-02-0.590D-01 0.302D-03
 Coeff-Com:  0.430D+00 0.633D+00
 Coeff:     -0.109D-02 0.238D-02 0.575D-03-0.640D-02-0.590D-01 0.302D-03
 Coeff:      0.430D+00 0.633D+00
 Gap=     0.209 Goal=   None    Shift=    0.000
 RMSDP=9.98D-07 MaxDP=8.65D-05 DE=-2.74D-06 OVMax= 4.62D-04

 Cycle   9  Pass 1  IDiag  1:
 RMSU=  7.99D-07    CP:  8.34D-01  1.91D+00  5.86D-01  9.66D-01  1.29D+00
                    CP:  1.06D+00  1.13D+00  1.02D+00
 E= -1666.47021258917     Delta-E=       -0.000000801581 Rises=F Damp=F
 DIIS: error= 8.75D-06 at cycle   9 NSaved=   9.
 NSaved= 9 IEnMin= 9 EnMin= -1666.47021258917     IErMin= 9 ErrMin= 8.75D-06
 ErrMax= 8.75D-06  0.00D+00 EMaxC= 1.00D-01 BMatC= 9.20D-08 BMatP= 6.45D-07
 IDIUse=1 WtCom= 1.00D+00 WtEn= 0.00D+00
 Coeff-Com: -0.962D-03 0.208D-02 0.906D-03-0.242D-02-0.317D-01-0.231D-01
 Coeff-Com:  0.865D-01 0.303D+00 0.665D+00
 Coeff:     -0.962D-03 0.208D-02 0.906D-03-0.242D-02-0.317D-01-0.231D-01
 Coeff:      0.865D-01 0.303D+00 0.665D+00
 Gap=     0.209 Goal=   None    Shift=    0.000
 RMSDP=4.50D-07 MaxDP=5.07D-05 DE=-8.02D-07 OVMax= 1.87D-04

 Cycle  10  Pass 1  IDiag  1:
 RMSU=  2.83D-07    CP:  8.34D-01  1.91D+00  5.86D-01  9.66D-01  1.29D+00
                    CP:  1.06D+00  1.13D+00  1.17D+00  1.16D+00
 E= -1666.47021271048     Delta-E=       -0.000000121305 Rises=F Damp=F
 DIIS: error= 2.40D-06 at cycle  10 NSaved=  10.
 NSaved=10 IEnMin=10 EnMin= -1666.47021271048     IErMin=10 ErrMin= 2.40D-06
 ErrMax= 2.40D-06  0.00D+00 EMaxC= 1.00D-01 BMatC= 1.45D-08 BMatP= 9.20D-08
 IDIUse=1 WtCom= 1.00D+00 WtEn= 0.00D+00
 Coeff-Com: -0.230D-03 0.495D-03 0.342D-03-0.119D-03-0.342D-02-0.974D-02
 Coeff-Com: -0.488D-01 0.146D-01 0.312D+00 0.735D+00
 Coeff:     -0.230D-03 0.495D-03 0.342D-03-0.119D-03-0.342D-02-0.974D-02
 Coeff:     -0.488D-01 0.146D-01 0.312D+00 0.735D+00
 Gap=     0.209 Goal=   None    Shift=    0.000
 RMSDP=2.19D-07 MaxDP=3.45D-05 DE=-1.21D-07 OVMax= 9.80D-05

 Cycle  11  Pass 1  IDiag  1:
 RMSU=  1.19D-07    CP:  8.34D-01  1.91D+00  5.86D-01  9.65D-01  1.29D+00
                    CP:  1.07D+00  1.14D+00  1.22D+00  1.32D+00  1.14D+00
 E= -1666.47021273473     Delta-E=       -0.000000024250 Rises=F Damp=F
 DIIS: error= 6.80D-07 at cycle  11 NSaved=  11.
 NSaved=11 IEnMin=11 EnMin= -1666.47021273473     IErMin=11 ErrMin= 6.80D-07
 ErrMax= 6.80D-07  0.00D+00 EMaxC= 1.00D-01 BMatC= 8.45D-10 BMatP= 1.45D-08
 IDIUse=1 WtCom= 1.00D+00 WtEn= 0.00D+00
 Coeff-Com:  0.200D-04-0.450D-04 0.245D-04 0.229D-03 0.220D-02 0.252D-03
 Coeff-Com: -0.206D-01-0.259D-01 0.481D-02 0.179D+00 0.860D+00
 Coeff:      0.200D-04-0.450D-04 0.245D-04 0.229D-03 0.220D-02 0.252D-03
 Coeff:     -0.206D-01-0.259D-01 0.481D-02 0.179D+00 0.860D+00
 Gap=     0.209 Goal=   None    Shift=    0.000
 RMSDP=9.32D-08 MaxDP=1.45D-05 DE=-2.42D-08 OVMax= 3.38D-05

 Cycle  12  Pass 1  IDiag  1:
 RMSU=  4.35D-08    CP:  8.34D-01  1.91D+00  5.86D-01  9.65D-01  1.29D+00
                    CP:  1.06D+00  1.14D+00  1.24D+00  1.38D+00  1.28D+00
                    CP:  1.26D+00
 E= -1666.47021273742     Delta-E=       -0.000000002689 Rises=F Damp=F
 DIIS: error= 2.93D-07 at cycle  12 NSaved=  12.
 NSaved=12 IEnMin=12 EnMin= -1666.47021273742     IErMin=12 ErrMin= 2.93D-07
 ErrMax= 2.93D-07  0.00D+00 EMaxC= 1.00D-01 BMatC= 2.04D-10 BMatP= 8.45D-10
 IDIUse=1 WtCom= 1.00D+00 WtEn= 0.00D+00
 Coeff-Com:  0.532D-04-0.115D-03-0.591D-04 0.114D-03 0.144D-02 0.195D-02
 Coeff-Com:  0.117D-02-0.122D-01-0.539D-01-0.690D-01 0.314D+00 0.817D+00
 Coeff:      0.532D-04-0.115D-03-0.591D-04 0.114D-03 0.144D-02 0.195D-02
 Coeff:      0.117D-02-0.122D-01-0.539D-01-0.690D-01 0.314D+00 0.817D+00
 Gap=     0.209 Goal=   None    Shift=    0.000
 RMSDP=5.28D-08 MaxDP=5.96D-06 DE=-2.69D-09 OVMax= 1.68D-05

 Cycle  13  Pass 1  IDiag  1:
 RMSU=  3.50D-08    CP:  8.34D-01  1.91D+00  5.86D-01  9.65D-01  1.29D+00
                    CP:  1.06D+00  1.13D+00  1.25D+00  1.40D+00  1.34D+00
                    CP:  1.43D+00  1.44D+00
 E= -1666.47021273798     Delta-E=       -0.000000000568 Rises=F Damp=F
 DIIS: error= 1.29D-07 at cycle  13 NSaved=  13.
 NSaved=13 IEnMin=13 EnMin= -1666.47021273798     IErMin=13 ErrMin= 1.29D-07
 ErrMax= 1.29D-07  0.00D+00 EMaxC= 1.00D-01 BMatC= 1.88D-11 BMatP= 2.04D-10
 IDIUse=1 WtCom= 1.00D+00 WtEn= 0.00D+00
 Coeff-Com:  0.376D-05-0.774D-05-0.121D-04-0.998D-05-0.151D-03 0.238D-03
 Coeff-Com:  0.344D-02 0.265D-02-0.724D-02-0.382D-01-0.984D-01 0.112D+00
 Coeff-Com:  0.103D+01
 Coeff:      0.376D-05-0.774D-05-0.121D-04-0.998D-05-0.151D-03 0.238D-03
 Coeff:      0.344D-02 0.265D-02-0.724D-02-0.382D-01-0.984D-01 0.112D+00
 Coeff:      0.103D+01
 Gap=     0.209 Goal=   None    Shift=    0.000
 RMSDP=5.35D-08 MaxDP=2.29D-06 DE=-5.68D-10 OVMax= 6.70D-06

 Cycle  14  Pass 1  IDiag  1:
 RMSU=  3.76D-08    CP:  8.34D-01  1.91D+00  5.86D-01  9.65D-01  1.29D+00
                    CP:  1.06D+00  1.13D+00  1.25D+00  1.40D+00  1.36D+00
                    CP:  1.51D+00  1.93D+00  1.83D+00
 E= -1666.47021273804     Delta-E=       -0.000000000055 Rises=F Damp=F
 DIIS: error= 3.27D-08 at cycle  14 NSaved=  14.
 NSaved=14 IEnMin=14 EnMin= -1666.47021273804     IErMin=14 ErrMin= 3.27D-08
 ErrMax= 3.27D-08  0.00D+00 EMaxC= 1.00D-01 BMatC= 2.77D-12 BMatP= 1.88D-11
 IDIUse=1 WtCom= 1.00D+00 WtEn= 0.00D+00
 Coeff-Com: -0.245D-05 0.535D-05 0.152D-06-0.135D-04-0.161D-03-0.809D-04
 Coeff-Com:  0.906D-03 0.175D-02 0.233D-02-0.640D-02-0.579D-01-0.296D-01
 Coeff-Com:  0.338D+00 0.752D+00
 Coeff:     -0.245D-05 0.535D-05 0.152D-06-0.135D-04-0.161D-03-0.809D-04
 Coeff:      0.906D-03 0.175D-02 0.233D-02-0.640D-02-0.579D-01-0.296D-01
 Coeff:      0.338D+00 0.752D+00
 Gap=     0.209 Goal=   None    Shift=    0.000
 RMSDP=4.57D-08 MaxDP=1.77D-06 DE=-5.55D-11 OVMax= 1.68D-06

 Cycle  15  Pass 1  IDiag  1:
 RMSU=  2.36D-08    CP:  8.34D-01  1.91D+00  5.86D-01  9.65D-01  1.29D+00
                    CP:  1.06D+00  1.13D+00  1.25D+00  1.40D+00  1.35D+00
                    CP:  1.53D+00  2.19D+00  2.59D+00  1.70D+00
 E= -1666.47021273802     Delta-E=        0.000000000023 Rises=F Damp=F
 DIIS: error= 2.62D-08 at cycle  15 NSaved=  15.
 NSaved=15 IEnMin=14 EnMin= -1666.47021273804     IErMin=15 ErrMin= 2.62D-08
 ErrMax= 2.62D-08  0.00D+00 EMaxC= 1.00D-01 BMatC= 1.02D-12 BMatP= 2.77D-12
 IDIUse=1 WtCom= 1.00D+00 WtEn= 0.00D+00
 Coeff-Com: -0.136D-05 0.292D-05 0.137D-05-0.509D-05-0.507D-04-0.606D-04
 Coeff-Com: -0.375D-04 0.417D-03 0.186D-02 0.179D-02-0.135D-01-0.269D-01
 Coeff-Com:  0.888D-02 0.357D+00 0.671D+00
 Coeff:     -0.136D-05 0.292D-05 0.137D-05-0.509D-05-0.507D-04-0.606D-04
 Coeff:     -0.375D-04 0.417D-03 0.186D-02 0.179D-02-0.135D-01-0.269D-01
 Coeff:      0.888D-02 0.357D+00 0.671D+00
 Gap=     0.209 Goal=   None    Shift=    0.000
 RMSDP=5.42D-08 MaxDP=2.00D-06 DE= 2.27D-11 OVMax= 4.77D-07

 Cycle  16  Pass 1  IDiag  1:
 RMSU=  2.25D-08    CP:  8.34D-01  1.91D+00  5.86D-01  9.65D-01  1.29D+00
                    CP:  1.06D+00  1.13D+00  1.25D+00  1.40D+00  1.35D+00
                    CP:  1.54D+00  2.47D+00  3.00D+00  2.63D+00  2.04D+00
 E= -1666.47021273789     Delta-E=        0.000000000123 Rises=F Damp=F
 DIIS: error= 4.07D-08 at cycle  16 NSaved=  16.
 NSaved=16 IEnMin=14 EnMin= -1666.47021273804     IErMin=15 ErrMin= 2.62D-08
 ErrMax= 4.07D-08  0.00D+00 EMaxC= 1.00D-01 BMatC= 9.04D-13 BMatP= 1.02D-12
 IDIUse=1 WtCom= 1.00D+00 WtEn= 0.00D+00
 Coeff-Com: -0.144D-05 0.308D-05 0.146D-05-0.535D-05-0.531D-04-0.643D-04
 Coeff-Com: -0.451D-04 0.434D-03 0.197D-02 0.194D-02-0.141D-01-0.286D-01
 Coeff-Com:  0.814D-02 0.375D+00 0.714D+00-0.588D-01
 Coeff:     -0.144D-05 0.308D-05 0.146D-05-0.535D-05-0.531D-04-0.643D-04
 Coeff:     -0.451D-04 0.434D-03 0.197D-02 0.194D-02-0.141D-01-0.286D-01
 Coeff:      0.814D-02 0.375D+00 0.714D+00-0.588D-01
 Gap=     0.209 Goal=   None    Shift=    0.000
 RMSDP=5.90D-09 MaxDP=2.56D-07 DE= 1.23D-10 OVMax= 8.94D-09

 Error on total polarization charges =  0.08379
 SCF Done:  E(RCAM-B3LYP) =  -1666.47021274     A.U. after   16 cycles
            NFock= 16  Conv=0.59D-08     -V/T= 2.0054
 KE= 1.657554444564D+03 PE=-1.227438214615D+04 EE= 4.745529070374D+03
 SMD-CDS (non-electrostatic) energy       (kcal/mol) =      -2.29
 (included in total energy above)
 Leave Link  502 at Wed Feb 24 21:24:46 2021, MaxMem=  5242880000 cpu:     40401.0
 (Enter /opt/nce/packages/global/g09/l601.exe)
 Copying SCF densities to generalized density rwf, IOpCl= 0 IROHF=0.

 **********************************************************************

            Population analysis using the SCF density.

 **********************************************************************

 Alpha  occ. eigenvalues --  -14.42929 -14.39890 -14.39886 -10.30265 -10.30262
 Alpha  occ. eigenvalues --  -10.30006 -10.30004 -10.29276 -10.29271 -10.29269
 Alpha  occ. eigenvalues --  -10.27743 -10.27734 -10.27145 -10.27048 -10.27043
 Alpha  occ. eigenvalues --  -10.27041 -10.27039 -10.26617 -10.26568 -10.25887
 Alpha  occ. eigenvalues --  -10.25881 -10.25881 -10.25876 -10.25773 -10.25768
 Alpha  occ. eigenvalues --  -10.25714 -10.25707 -10.25625 -10.25568 -10.25444
 Alpha  occ. eigenvalues --  -10.25341 -10.25323 -10.25258 -10.25194 -10.25143
 Alpha  occ. eigenvalues --  -10.25139 -10.25036 -10.25035 -10.24695 -10.24693
 Alpha  occ. eigenvalues --  -10.22912 -10.22863  -1.06682  -1.00145  -1.00141
 Alpha  occ. eigenvalues --   -0.96706  -0.96412  -0.96084  -0.94325  -0.94156
 Alpha  occ. eigenvalues --   -0.90870  -0.90311  -0.88162  -0.86717  -0.85632
 Alpha  occ. eigenvalues --   -0.84278  -0.84169  -0.83319  -0.82681  -0.82444
 Alpha  occ. eigenvalues --   -0.81323  -0.80812  -0.78544  -0.76019  -0.74224
 Alpha  occ. eigenvalues --   -0.73561  -0.71257  -0.70495  -0.70442  -0.69550
 Alpha  occ. eigenvalues --   -0.69115  -0.68358  -0.68254  -0.66643  -0.64610
 Alpha  occ. eigenvalues --   -0.63082  -0.63002  -0.62007  -0.61795  -0.60530
 Alpha  occ. eigenvalues --   -0.58919  -0.57221  -0.57163  -0.56404  -0.55959
 Alpha  occ. eigenvalues --   -0.55081  -0.53918  -0.52767  -0.52512  -0.52360
 Alpha  occ. eigenvalues --   -0.51864  -0.51542  -0.50938  -0.50357  -0.50195
 Alpha  occ. eigenvalues --   -0.49790  -0.49768  -0.49513  -0.49231  -0.48964
 Alpha  occ. eigenvalues --   -0.48593  -0.47900  -0.47763  -0.47725  -0.47212
 Alpha  occ. eigenvalues --   -0.46940  -0.46688  -0.46209  -0.45563  -0.45511
 Alpha  occ. eigenvalues --   -0.45161  -0.44861  -0.44133  -0.43901  -0.43617
 Alpha  occ. eigenvalues --   -0.43043  -0.42933  -0.42783  -0.42486  -0.41930
 Alpha  occ. eigenvalues --   -0.41461  -0.41033  -0.40412  -0.40359  -0.40250
 Alpha  occ. eigenvalues --   -0.40112  -0.40082  -0.39042  -0.38482  -0.37556
 Alpha  occ. eigenvalues --   -0.35252  -0.34542  -0.32574  -0.32568  -0.32143
 Alpha  occ. eigenvalues --   -0.31229  -0.30447  -0.30443  -0.28837  -0.27542
 Alpha  occ. eigenvalues --   -0.23713
 Alpha virt. eigenvalues --   -0.02856  -0.01897  -0.01420   0.01240   0.01672
 Alpha virt. eigenvalues --    0.01982   0.02587   0.03627   0.04123   0.05967
 Alpha virt. eigenvalues --    0.06737   0.07361   0.07393   0.07628   0.08642
 Alpha virt. eigenvalues --    0.08792   0.09831   0.09930   0.10471   0.10923
 Alpha virt. eigenvalues --    0.11042   0.11180   0.11902   0.12199   0.12488
 Alpha virt. eigenvalues --    0.12573   0.12926   0.13246   0.13419   0.13617
 Alpha virt. eigenvalues --    0.13921   0.14629   0.14759   0.14846   0.15564
 Alpha virt. eigenvalues --    0.15673   0.16236   0.16277   0.16668   0.16948
 Alpha virt. eigenvalues --    0.17400   0.17475   0.17816   0.18294   0.18563
 Alpha virt. eigenvalues --    0.18955   0.19129   0.19555   0.19966   0.20300
 Alpha virt. eigenvalues --    0.20546   0.20850   0.21376   0.21494   0.22285
 Alpha virt. eigenvalues --    0.22382   0.22524   0.22720   0.22893   0.23083
 Alpha virt. eigenvalues --    0.23225   0.23502   0.23848   0.23915   0.24163
 Alpha virt. eigenvalues --    0.24650   0.24668   0.25253   0.25305   0.25416
 Alpha virt. eigenvalues --    0.25580   0.26108   0.26377   0.26583   0.26745
 Alpha virt. eigenvalues --    0.26867   0.27217   0.27549   0.27944   0.28078
 Alpha virt. eigenvalues --    0.28163   0.28400   0.28578   0.28775   0.29098
 Alpha virt. eigenvalues --    0.29264   0.29326   0.29738   0.29754   0.30093
 Alpha virt. eigenvalues --    0.30266   0.30589   0.30868   0.31187   0.31479
 Alpha virt. eigenvalues --    0.31570   0.31945   0.32107   0.32293   0.32658
 Alpha virt. eigenvalues --    0.32785   0.33123   0.33360   0.33505   0.33650
 Alpha virt. eigenvalues --    0.34129   0.34353   0.34458   0.34821   0.35234
 Alpha virt. eigenvalues --    0.35484   0.35644   0.36067   0.36312   0.36493
 Alpha virt. eigenvalues --    0.36910   0.37206   0.37475   0.37649   0.37833
 Alpha virt. eigenvalues --    0.38158   0.38202   0.38330   0.38570   0.38763
 Alpha virt. eigenvalues --    0.39051   0.39367   0.39591   0.39843   0.40147
[...]
 Alpha virt. eigenvalues --    1.99161   1.99961   2.00214   2.00849   2.00971
 Alpha virt. eigenvalues --    2.02029   2.02394   2.02839   2.03291   2.04578
 Alpha virt. eigenvalues --    2.04718   2.04910   2.05215   2.05626   2.05903
 Alpha virt. eigenvalues --    2.06853   2.07408   2.07920   2.08595   2.09181
 Alpha virt. eigenvalues --    2.09473   2.09691   2.11143   2.11628   2.12072
 Alpha virt. eigenvalues --    2.12237   2.13700   2.13837   2.14255   2.15145
 Alpha virt. eigenvalues --    2.16305   2.17009   2.17490   2.17789   2.17888
 Alpha virt. eigenvalues --    2.19349   2.19806   2.20422   2.21038   2.21076
 Alpha virt. eigenvalues --    2.21771   2.21845   2.22097   2.22441   2.22699
 Alpha virt. eigenvalues --    2.22894   2.23769   2.24285   2.25164   2.25451
 Alpha virt. eigenvalues --    2.26359   2.26775   2.26920   2.27119   2.27393
 Alpha virt. eigenvalues --    2.27863   2.28101   2.28749   2.28850   2.29814
 Alpha virt. eigenvalues --    2.30270   2.30902   2.31134   2.31395   2.31475
 Alpha virt. eigenvalues --    2.32068   2.32227   2.32879   2.34002   2.34057
 Alpha virt. eigenvalues --    2.34292   2.34856   2.35969   2.36022   2.36224
 Alpha virt. eigenvalues --    2.37335   2.38102   2.38678   2.38854   2.39369
 Alpha virt. eigenvalues --    2.39686   2.40170   2.40320   2.41329   2.41699
 Alpha virt. eigenvalues --    2.41992   2.42856   2.43215   2.44369   2.44725
 Alpha virt. eigenvalues --    2.44859   2.46175   2.46725   2.47163   2.48172
 Alpha virt. eigenvalues --    2.48765   2.49289   2.49678   2.51057   2.51406
 Alpha virt. eigenvalues --    2.51496   2.51740   2.52199   2.53155   2.53744
 Alpha virt. eigenvalues --    2.54301   2.55213   2.55788   2.56096   2.56218
 Alpha virt. eigenvalues --    2.56387   2.56475   2.56805   2.57335   2.57781
 Alpha virt. eigenvalues --    2.58382   2.58593   2.59327   2.60611   2.60788
 Alpha virt. eigenvalues --    2.61346   2.62232   2.62790   2.62957   2.63206
 Alpha virt. eigenvalues --    2.63584   2.64009   2.64373   2.65277   2.66180
 Alpha virt. eigenvalues --    2.66857   2.67083   2.67299   2.67791   2.67884
 Alpha virt. eigenvalues --    2.68304   2.69069   2.69162   2.69442   2.69664
 Alpha virt. eigenvalues --    2.70153   2.70456   2.70633   2.70832   2.71051
 Alpha virt. eigenvalues --    2.71540   2.72420   2.72541   2.72684   2.73317
 Alpha virt. eigenvalues --    2.73612   2.73840   2.73959   2.74409   2.74638
 Alpha virt. eigenvalues --    2.74828   2.75534   2.75915   2.76233   2.76857
 Alpha virt. eigenvalues --    2.77048   2.77493   2.77726   2.77970   2.78465
 Alpha virt. eigenvalues --    2.78693   2.79013   2.79120   2.79483   2.79885
 Alpha virt. eigenvalues --    2.80185   2.80455   2.80891   2.81064   2.81401
 Alpha virt. eigenvalues --    2.81562   2.81866   2.82183   2.82305   2.83417
 Alpha virt. eigenvalues --    2.83637   2.83887   2.84539   2.84854   2.85245
 Alpha virt. eigenvalues --    2.85389   2.85825   2.86073   2.86554   2.86617
 Alpha virt. eigenvalues --    2.86704   2.87143   2.87382   2.87841   2.88032
 Alpha virt. eigenvalues --    2.88300   2.88532   2.88884   2.89192   2.89332
 Alpha virt. eigenvalues --    2.89561   2.89867   2.89960   2.90626   2.90860
 Alpha virt. eigenvalues --    2.90960   2.91114   2.91826   2.91874   2.92104
 Alpha virt. eigenvalues --    2.92715   2.92819   2.93218   2.93459   2.94161
 Alpha virt. eigenvalues --    2.94334   2.94785   2.95263   2.95705   2.96395
 Alpha virt. eigenvalues --    2.96526   2.96901   2.97931   2.98337   2.98521
 Alpha virt. eigenvalues --    2.98787   2.99157   2.99514   2.99928   3.00110
 Alpha virt. eigenvalues --    3.00902   3.00994   3.01462   3.01688   3.02199
 Alpha virt. eigenvalues --    3.02376   3.02614   3.02954   3.03503   3.03872
 Alpha virt. eigenvalues --    3.04298   3.05144   3.05379   3.05452   3.05991
 Alpha virt. eigenvalues --    3.06223   3.07560   3.07780   3.07943   3.08351
 Alpha virt. eigenvalues --    3.08640   3.08761   3.09030   3.09176   3.09934
 Alpha virt. eigenvalues --    3.10319   3.10597   3.10763   3.11070   3.11726
 Alpha virt. eigenvalues --    3.11849   3.12094   3.12748   3.12903   3.13117
 Alpha virt. eigenvalues --    3.13494   3.13656   3.14034   3.14149   3.14457
 Alpha virt. eigenvalues --    3.14753   3.15119   3.15720   3.16113   3.16807
 Alpha virt. eigenvalues --    3.17077   3.17251   3.17512   3.17706   3.18046
 Alpha virt. eigenvalues --    3.18442   3.19263   3.20243   3.20668   3.20869
 Alpha virt. eigenvalues --    3.20993   3.21311   3.21665   3.21755   3.21968
 Alpha virt. eigenvalues --    3.22230   3.22506   3.22590   3.23267   3.23580
 Alpha virt. eigenvalues --    3.23840   3.24085   3.24537   3.24903   3.25289
 Alpha virt. eigenvalues --    3.25364   3.25592   3.26273   3.26702   3.27345
 Alpha virt. eigenvalues --    3.28150   3.28373   3.28659   3.29030   3.29653
 Alpha virt. eigenvalues --    3.29771   3.30147   3.30503   3.31014   3.31197
 Alpha virt. eigenvalues --    3.31495   3.31710   3.31909   3.32367   3.32674
 Alpha virt. eigenvalues --    3.32865   3.33083   3.33245   3.33967   3.34654
 Alpha virt. eigenvalues --    3.34701   3.35185   3.35257   3.35696   3.35846
 Alpha virt. eigenvalues --    3.36214   3.36423   3.36999   3.37060   3.38168
 Alpha virt. eigenvalues --    3.38594   3.38686   3.39106   3.39506   3.39896
 Alpha virt. eigenvalues --    3.40107   3.40303   3.41010   3.41239   3.41613
 Alpha virt. eigenvalues --    3.41864   3.42334   3.42577   3.43090   3.43203
 Alpha virt. eigenvalues --    3.43633   3.43728   3.44160   3.44407   3.44625
 Alpha virt. eigenvalues --    3.44863   3.45032   3.45319   3.45643   3.45779
 Alpha virt. eigenvalues --    3.46010   3.46385   3.46789   3.46963   3.47141
 Alpha virt. eigenvalues --    3.47592   3.47856   3.47927   3.48039   3.48410
 Alpha virt. eigenvalues --    3.48459   3.49131   3.49473   3.49574   3.50178
 Alpha virt. eigenvalues --    3.50336   3.50696   3.51098   3.51344   3.51582
 Alpha virt. eigenvalues --    3.51863   3.52070   3.52431   3.52855   3.53142
 Alpha virt. eigenvalues --    3.53387   3.53494   3.54614   3.54881   3.54912
 Alpha virt. eigenvalues --    3.55713   3.55975   3.56337   3.56967   3.57214
 Alpha virt. eigenvalues --    3.57806   3.57942   3.58372   3.58741   3.59286
 Alpha virt. eigenvalues --    3.59457   3.59668   3.59747   3.60549   3.61185
 Alpha virt. eigenvalues --    3.61531   3.61800   3.61959   3.62216   3.63094
 Alpha virt. eigenvalues --    3.63734   3.63835   3.64659   3.64919   3.65501
 Alpha virt. eigenvalues --    3.65723   3.65940   3.66275   3.66510   3.66970
 Alpha virt. eigenvalues --    3.67168   3.67672   3.68010   3.68293   3.68834
 Alpha virt. eigenvalues --    3.68922   3.69465   3.69881   3.70674   3.71206
 Alpha virt. eigenvalues --    3.71555   3.72255   3.72500   3.73304   3.74548
 Alpha virt. eigenvalues --    3.75464   3.76045   3.77295   3.77808   3.77993
 Alpha virt. eigenvalues --    3.78246   3.78662   3.80115   3.80237   3.80253
 Alpha virt. eigenvalues --    3.81168   3.81738   3.81770   3.82669   3.82887
 Alpha virt. eigenvalues --    3.83825   3.84133   3.84433   3.84874   3.85404
 Alpha virt. eigenvalues --    3.85559   3.85885   3.86552   3.86586   3.88526
 Alpha virt. eigenvalues --    3.91379   3.91821   3.92898   3.93339   3.93677
 Alpha virt. eigenvalues --    3.94721   3.94834   3.95444   3.97304   3.97719
 Alpha virt. eigenvalues --    3.98324   3.98714   3.99136   3.99721   4.00157
 Alpha virt. eigenvalues --    4.01146   4.01489   4.01864   4.02536   4.03371
 Alpha virt. eigenvalues --    4.03719   4.03755   4.03799   4.03927   4.04126
 Alpha virt. eigenvalues --    4.04757   4.05643   4.05844   4.06551   4.07257
 Alpha virt. eigenvalues --    4.08145   4.09480   4.09737   4.10545   4.11759
 Alpha virt. eigenvalues --    4.12089   4.12176   4.12657   4.13030   4.13541
 Alpha virt. eigenvalues --    4.14209   4.15165   4.16030   4.17361   4.17580
 Alpha virt. eigenvalues --    4.18963   4.19264   4.20258   4.20724   4.21465
 Alpha virt. eigenvalues --    4.22311   4.22771   4.22834   4.23390   4.23796
 Alpha virt. eigenvalues --    4.24370   4.24688   4.25078   4.25323   4.25895
 Alpha virt. eigenvalues --    4.26143   4.26635   4.26709   4.27067   4.27705
 Alpha virt. eigenvalues --    4.27835   4.28094   4.28333   4.28597   4.29591
 Alpha virt. eigenvalues --    4.29683   4.30073   4.30386   4.30869   4.31037
 Alpha virt. eigenvalues --    4.31673   4.32241   4.32465   4.32684   4.33077
 Alpha virt. eigenvalues --    4.33360   4.34082   4.34452   4.35137   4.35897
 Alpha virt. eigenvalues --    4.36083   4.36466   4.37585   4.37763   4.38047
 Alpha virt. eigenvalues --    4.38202   4.38852   4.38928   4.39619   4.39746
 Alpha virt. eigenvalues --    4.41106   4.42150   4.42754   4.43207   4.43980
 Alpha virt. eigenvalues --    4.46055   4.46434   4.47066   4.48651   4.48842
 Alpha virt. eigenvalues --    4.49951   4.50834   4.51470   4.51675   4.52325
 Alpha virt. eigenvalues --    4.52496   4.52668   4.53078   4.54426   4.55318
 Alpha virt. eigenvalues --    4.55962   4.56726   4.57882   4.58917   4.60095
 Alpha virt. eigenvalues --    4.60359   4.61557   4.61878   4.62029   4.62163
 Alpha virt. eigenvalues --    4.63627   4.63753   4.64891   4.65031   4.66101
 Alpha virt. eigenvalues --    4.67075   4.67612   4.68421   4.68483   4.68973
 Alpha virt. eigenvalues --    4.69195   4.69401   4.71009   4.72768   4.74251
 Alpha virt. eigenvalues --    4.74654   4.75478   4.76173   4.76377   4.77413
 Alpha virt. eigenvalues --    4.77892   4.78200   4.78638   4.78891   4.79326
 Alpha virt. eigenvalues --    4.79918   4.80137   4.80285   4.81590   4.82874
 Alpha virt. eigenvalues --    4.84093   4.84372   4.87203   4.87536   4.89007
 Alpha virt. eigenvalues --    4.89261   4.90156   4.90659   4.90852   4.91845
 Alpha virt. eigenvalues --    4.94856   4.95861   4.96111   4.97731   4.98961
 Alpha virt. eigenvalues --    5.00700   5.02269   5.02405   5.02728   5.04213
 Alpha virt. eigenvalues --    5.04625   5.05378   5.05834   5.06614   5.09607
 Alpha virt. eigenvalues --    5.09667   5.10360   5.10623   5.10938   5.12233
 Alpha virt. eigenvalues --    5.13143   5.13913   5.15383   5.17051   5.18007
 Alpha virt. eigenvalues --    5.20991   5.21822   5.21850   5.23244   5.24490
 Alpha virt. eigenvalues --    5.25270   5.25311   5.26442   5.28040   5.28380
 Alpha virt. eigenvalues --    5.29512   5.30098   5.33319   5.34271   5.36570
 Alpha virt. eigenvalues --    5.39437   5.40228   5.41786   5.43597   5.44674
 Alpha virt. eigenvalues --    5.45794   5.48304   5.49167   5.50232   5.50989
 Alpha virt. eigenvalues --    5.51976   5.53919   5.54302   5.54766   5.57069
 Alpha virt. eigenvalues --    5.59332   5.59898   5.63457   5.64543   5.67964
 Alpha virt. eigenvalues --    5.70126   5.70492   5.71510   5.73192   5.73658
 Alpha virt. eigenvalues --    5.76437   5.77099   5.78433   5.78569   5.78857
 Alpha virt. eigenvalues --    5.79019   5.82805   5.84112   5.85129   5.88899
 Alpha virt. eigenvalues --    5.90361   6.00874   6.05543   6.11338   6.14436
 Alpha virt. eigenvalues --    6.17111   6.26964   6.26978   6.35058   6.39285
 Alpha virt. eigenvalues --    6.49067  22.25707  22.31637  22.36216  22.52787
 Alpha virt. eigenvalues --   22.54047  22.57134  22.58226  22.66737  22.73325
 Alpha virt. eigenvalues --   22.76599  22.76722  22.77846  22.78296  22.79059
 Alpha virt. eigenvalues --   22.83195  22.84968  22.85244  22.86128  22.90974
 Alpha virt. eigenvalues --   22.93014  22.95528  22.98627  22.99654  23.01736
 Alpha virt. eigenvalues --   23.03446  23.06815  23.11920  23.13599  23.16925
 Alpha virt. eigenvalues --   23.20094  23.23700  23.34947  23.43033  23.45050
 Alpha virt. eigenvalues --   23.61469  23.63695  23.71143  23.71215  23.75700
 Alpha virt. eigenvalues --   32.14167  32.14184  33.49040
          Condensed to atoms (all electrons):
 Mulliken charges:
               1
     1  C   -0.231518
     2  C   -0.240952
     3  C    0.145398
     4  C   -0.106079
     5  C   -0.257748
     6  C    0.104075
     7  C    0.158790
     8  C   -0.111488
     9  C    0.148846
    10  C   -0.242130
    11  H    0.181091
    12  C   -0.230286
    13  C    0.103273
    14  C   -0.254830
    15  H    0.181535
    16  H    0.185041
    17  H    0.165878
    18  N    0.064445
    19  C    0.035018
    20  C    0.011173
    21  C   -0.154838
    22  C   -0.264007
    23  C    0.085057
    24  C   -0.137597
    25  H    0.161986
    26  C   -0.139250
    27  H    0.184608
    28  C   -0.179911
    29  C   -0.202786
    30  H    0.164855
    31  C   -0.169683
    32  H    0.166113
    33  H    0.162299
    34  H    0.162094
    35  H    0.166100
    36  H    0.184559
    37  H    0.166450
    38  C   -0.423346
    39  H    0.141698
    40  H    0.142026
    41  H    0.143023
    42  C   -0.426109
    43  H    0.143487
    44  H    0.141757
    45  H    0.142389
    46  C    0.105606
    47  C   -0.210920
    48  C   -0.204299
    49  C   -0.217666
    50  H    0.185672
    51  C   -0.215792
    52  H    0.177298
    53  C    0.208494
    54  H    0.180167
    55  H    0.180257
    56  C    0.106233
    57  C   -0.211530
    58  C   -0.203590
    59  C   -0.217141
    60  H    0.185642
    61  C   -0.216515
    62  H    0.177393
    63  C    0.209013
    64  H    0.180084
    65  H    0.180402
    66  C   -0.227816
    67  C   -0.227475
    68  N   -0.047021
    69  N   -0.047004
 Sum of Mulliken charges =  -0.00000
 Mulliken charges with hydrogens summed into heavy atoms:
               1
     1  C   -0.065068
     2  C   -0.059418
     3  C    0.145398
     4  C   -0.106079
     5  C   -0.072707
     6  C    0.104075
     7  C    0.158790
     8  C   -0.111488
     9  C    0.148846
    10  C   -0.061038
    12  C   -0.064408
    13  C    0.103273
    14  C   -0.070271
    18  N    0.064445
    19  C    0.035018
    20  C    0.011173
    21  C    0.007148
    22  C   -0.079399
    23  C    0.085057
    24  C    0.027258
    26  C    0.026863
    28  C   -0.017612
    29  C   -0.040692
    31  C   -0.003583
    38  C    0.003401
    42  C    0.001524
    46  C    0.105606
    47  C   -0.025248
    48  C   -0.027002
    49  C   -0.037499
    51  C   -0.035535
    53  C    0.208494
    56  C    0.106233
    57  C   -0.025887
    58  C   -0.026197
    59  C   -0.037058
    61  C   -0.036113
    63  C    0.209013
    66  C   -0.227816
    67  C   -0.227475
    68  N   -0.047021
    69  N   -0.047004
 Electronic spatial extent (au):  <R**2>=          31441.9921
 Charge=              0.0000 electrons
 Dipole moment (field-independent basis, Debye):
    X=              0.0033    Y=              8.2000    Z=             -1.3822  Tot=              8.3156
 Quadrupole moment (field-independent basis, Debye-Ang):
   XX=           -428.2171   YY=           -240.3802   ZZ=           -234.5580
   XY=             -0.8455   XZ=             -5.5161   YZ=              0.0688
 Traceless Quadrupole moment (field-independent basis, Debye-Ang):
   XX=           -127.1653   YY=             60.6715   ZZ=             66.4938
   XY=             -0.8455   XZ=             -5.5161   YZ=              0.0688
 Octapole moment (field-independent basis, Debye-Ang**2):
  XXX=              1.6700  YYY=            279.7302  ZZZ=              6.7959  XYY=            -13.6535
  XXY=            982.6030  XXZ=           -138.2658  XZZ=             15.5548  YZZ=             48.9399
  YYZ=            -21.8718  XYZ=            -38.3226
 Hexadecapole moment (field-independent basis, Debye-Ang**3):
 XXXX=         -55464.9080 YYYY=         -11373.6609 ZZZZ=          -1659.8451 XXXY=           -112.1031
 XXXZ=           -706.1962 YYYX=             92.3989 YYYZ=             70.1478 ZZZX=             -5.8163
 ZZZY=             19.5411 XXYY=         -11489.5713 XXZZ=          -5572.5295 YYZZ=          -2100.2283
 XXYZ=            487.6889 YYXZ=            170.9542 ZZXY=            -38.7428
 N-N= 4.236323684971D+03 E-N=-1.233891730933D+04  KE= 1.659349356857D+03
 Leave Link  601 at Sat Feb 27 20:59:44 2021, MaxMem=  5242880000 cpu:        11.3
 (Enter /opt/nce/packages/global/g09/l9999.exe)
 1\1\GINC-CN018\SP\RCAM-B3LYP TD-FC\Gen\C39H27N3\PNG4RJV\27-Feb-2021\0\
 \#p cam-b3lyp chkbasis geom=allcheck Guess=Read int=ultrafine scrf=(SM
 D,solvent=n,n-DiMethylFormamide) td=(NStates=30) EmpiricalDispersion=G
 D3BJ\\Title\\0,1\C,0,3.6300365243,0.7460798473,-0.4290482211\C,0,2.415
 6496127,1.3820092445,-0.5467985166\C,0,1.2148975357,0.6721863372,-0.44
 65620478\C,0,1.2559246501,-0.7053619614,-0.2148128324\C,0,2.4952556985
 ,-1.3152673006,-0.097824703\C,0,3.6962378445,-0.624844689,-0.199761416
 8\C,0,-0.0003686941,-1.5557582313,-0.0915830093\C,0,-1.2560108655,-0.7
 065526851,-0.2293478061\C,0,-1.2136391105,0.67262593,-0.4509116767\C,0
 ,-2.4137631408,1.3839825792,-0.5478852937\H,0,-2.3942497414,2.44810653
 75,-0.7258123744\C,0,-3.6286766977,0.7489472097,-0.4305990906\C,0,-3.6
 963503266,-0.6253485668,-0.2225296411\C,0,-2.4959464968,-1.3181043422,
 -0.1285090699\H,0,2.3969758404,2.4477693439,-0.7146728328\H,0,2.527629
 9746,-2.3837868936,0.0612788347\H,0,-4.5342579954,1.3331269406,-0.5253
 959363\N,0,0.0009414668,1.3416192362,-0.5714994142\C,0,0.0016965175,2.
 7540908799,-0.7846799758\C,0,0.0004391753,3.6254311326,0.3348186478\C,
 0,0.0040012556,3.2468054019,-2.0546127464\C,0,-0.0017130699,3.15225546
 71,1.6664838791\C,0,0.001622374,5.0224773757,0.1003605114\C,0,0.005089
 819,4.63588032,-2.2817259749\H,0,0.0049635851,2.558251472,-2.889552319
 3\C,0,-0.0026069447,4.0277964365,2.7122499581\H,0,-0.0025853602,2.0864
 948273,1.8483380739\C,0,0.0006172336,5.9020258503,1.2074939389\C,0,0.0
 039370504,5.5020666766,-1.2295007935\H,0,0.0068977094,5.0077585906,-3.
 2976546282\C,0,-0.0014239386,5.4181745534,2.4819900823\H,0,-0.00418202
 06,3.6554664331,3.7284408643\H,0,0.001586475,6.9688532923,1.0211496794
 \H,0,0.0048210174,6.5721748056,-1.395501552\H,0,-0.0020919689,6.099212
 6889,3.3230894818\H,0,-2.5278884265,-2.3829705519,0.0533857977\H,0,4.5
 35616408,1.3340574218,-0.4950395012\C,0,0.0054158817,-2.6270192918,-1.
 1937893276\H,0,0.0108490486,-2.1645047223,-2.1816755278\H,0,0.88511671
 2,-3.2646796187,-1.1098128375\H,0,-0.8758245694,-3.2637662045,-1.11915
 54113\C,0,-0.0066795484,-2.2432719457,1.2836013588\H,0,0.8738251282,-2
 .8733682347,1.4059059435\H,0,-0.0119285301,-1.5030875684,2.0848378139\
 H,0,-0.8859959877,-2.8765763284,1.3972059034\C,0,4.9891376404,-1.32184
 60428,-0.0657788549\C,0,5.1267311998,-2.4203674485,0.7845093185\C,0,6.
 1074710183,-0.8979544953,-0.7854451262\C,0,6.332600945,-3.0751294672,0
 .9138703137\H,0,4.2824998815,-2.7577988318,1.3696937227\C,0,7.32005455
 37,-1.5417778532,-0.6637111265\H,0,6.0235453455,-0.062024191,-1.466049
 3606\C,0,7.4371460875,-2.6364089762,0.1885962667\H,0,6.4266047566,-3.9
 205375653,1.5815072345\H,0,8.176529945,-1.2062669077,-1.2322366753\C,0
 ,-4.9902459766,-1.3235417985,-0.1042508077\C,0,-5.1454674276,-2.630697
 347,-0.5688329348\C,0,-6.0918803253,-0.6923555148,0.4756045405\C,0,-6.
 3516710702,-3.2882052231,-0.4578209977\H,0,-4.3155609616,-3.1361760153
 ,-1.0427471691\C,0,-7.3046932406,-1.336949489,0.5906128471\H,0,-5.9938
 486542,0.3132462306,0.8601898932\C,0,-7.4388768932,-2.641770083,0.1239
 088619\H,0,-6.4593862584,-4.2986890442,-0.8274752831\H,0,-8.1477414985
 ,-0.8382368592,1.0486365279\C,0,-8.6905852629,-3.3168727924,0.24112782
 38\C,0,8.6892846511,-3.3083357308,0.3192038106\N,0,9.6957043752,-3.848
 7278276,0.4240432857\N,0,-9.6965459354,-3.8600794219,0.3352655984\\Ver
 sion=ES64L-G09RevE.01\State=1-A\HF=-1666.4789798\RMSD=1.884e-09\PG=C01
  [X(C39H27N3)]\\@


 "PERFECTION IS NOT AN ACCIDENT"
         --  EAGLE ELECTRIC MANUFACTURING CO.,INC. NY
 Job cpu time:       4 days 13 hours  9 minutes  5.2 seconds.
 File lengths (MBytes):  RWF=  10574 Int=      0 D2E=      0 Chk=   1895 Scr=      1
 Normal termination of Gaussian 09 at Sat Feb 27 20:59:46 2021.
