
                                 *****************
                                 * O   R   C   A *
                                 *****************

                                            #,                                       
                                            ###                                      
                                            ####                                     
                                            #####                                    
                                            ######                                   
                                           ########,                                 
                                     ,,################,,,,,                         
                               ,,#################################,,                 
                          ,,##########################################,,             
                       ,#########################################, ''#####,          
                    ,#############################################,,   '####,        
                  ,##################################################,,,,####,       
                ,###########''''           ''''###############################       
              ,#####''   ,,,,##########,,,,          '''####'''          '####       
            ,##' ,,,,###########################,,,                        '##       
           ' ,,###''''                  '''############,,,                           
         ,,##''                                '''############,,,,        ,,,,,,###''
      ,#''                                            '''#######################'''  
     '                                                          ''''####''''         
             ,#######,   #######,   ,#######,      ##                                
            ,#'     '#,  ##    ##  ,#'     '#,    #''#        ######   ,####,        
            ##       ##  ##   ,#'  ##            #'  '#       #        #'  '#        
            ##       ##  #######   ##           ,######,      #####,   #    #        
            '#,     ,#'  ##    ##  '#,     ,#' ,#      #,         ##   #,  ,#        
             '#######'   ##     ##  '#######'  #'      '#     #####' # '####'        



                  #######################################################
                  #                        -***-                        #
                  #          Department of theory and spectroscopy      #
                  #    Directorship and core code : Frank Neese         #
                  #        Max Planck Institute fuer Kohlenforschung    #
                  #                Kaiser Wilhelm Platz 1               #
                  #                 D-45470 Muelheim/Ruhr               #
                  #                      Germany                        #
                  #                                                     #
                  #                  All rights reserved                #
                  #                        -***-                        #
                  #######################################################


                         Program Version 5.0.2 -  RELEASE  -


 With contributions from (in alphabetic order):
   Daniel Aravena         : Magnetic Suceptibility
   Michael Atanasov       : Ab Initio Ligand Field Theory (pilot matlab implementation)
   Alexander A. Auer      : GIAO ZORA, VPT2 properties, NMR spectrum
   Ute Becker             : Parallelization
   Giovanni Bistoni       : ED, misc. LED, open-shell LED, HFLD
   Martin Brehm           : Molecular dynamics
   Dmytro Bykov           : SCF Hessian
   Vijay G. Chilkuri      : MRCI spin determinant printing, contributions to CSF-ICE
   Dipayan Datta          : RHF DLPNO-CCSD density
   Achintya Kumar Dutta   : EOM-CC, STEOM-CC
   Dmitry Ganyushin       : Spin-Orbit,Spin-Spin,Magnetic field MRCI
   Miquel Garcia          : C-PCM and meta-GGA Hessian, CC/C-PCM, Gaussian charge scheme
   Yang Guo               : DLPNO-NEVPT2, F12-NEVPT2, CIM, IAO-localization
   Andreas Hansen         : Spin unrestricted coupled pair/coupled cluster methods
   Benjamin Helmich-Paris : MC-RPA, TRAH-SCF, COSX integrals
   Lee Huntington         : MR-EOM, pCC
   Robert Izsak           : Overlap fitted RIJCOSX, COSX-SCS-MP3, EOM
   Marcus Kettner         : VPT2
   Christian Kollmar      : KDIIS, OOCD, Brueckner-CCSD(T), CCSD density, CASPT2, CASPT2-K
   Simone Kossmann        : Meta GGA functionals, TD-DFT gradient, OOMP2, MP2 Hessian
   Martin Krupicka        : Initial AUTO-CI
   Lucas Lang             : DCDCAS
   Marvin Lechner         : AUTO-CI (C++ implementation), FIC-MRCC
   Dagmar Lenk            : GEPOL surface, SMD
   Dimitrios Liakos       : Extrapolation schemes; Compound Job, initial MDCI parallelization
   Dimitrios Manganas     : Further ROCIS development; embedding schemes
   Dimitrios Pantazis     : SARC Basis sets
   Anastasios Papadopoulos: AUTO-CI, single reference methods and gradients
   Taras Petrenko         : DFT Hessian,TD-DFT gradient, ASA, ECA, R-Raman, ABS, FL, XAS/XES, NRVS
   Peter Pinski           : DLPNO-MP2, DLPNO-MP2 Gradient
   Christoph Reimann      : Effective Core Potentials
   Marius Retegan         : Local ZFS, SOC
   Christoph Riplinger    : Optimizer, TS searches, QM/MM, DLPNO-CCSD(T), (RO)-DLPNO pert. Triples
   Tobias Risthaus        : Range-separated hybrids, TD-DFT gradient, RPA, STAB
   Michael Roemelt        : Original ROCIS implementation
   Masaaki Saitow         : Open-shell DLPNO-CCSD energy and density
   Barbara Sandhoefer     : DKH picture change effects
   Avijit Sen             : IP-ROCIS
   Kantharuban Sivalingam : CASSCF convergence, NEVPT2, FIC-MRCI
   Bernardo de Souza      : ESD, SOC TD-DFT
   Georgi Stoychev        : AutoAux, RI-MP2 NMR, DLPNO-MP2 response
   Willem Van den Heuvel  : Paramagnetic NMR
   Boris Wezisla          : Elementary symmetry handling
   Frank Wennmohs         : Technical directorship


 We gratefully acknowledge several colleagues who have allowed us to
 interface, adapt or use parts of their codes:
   Stefan Grimme, W. Hujo, H. Kruse, P. Pracht,  : VdW corrections, initial TS optimization,
                  C. Bannwarth, S. Ehlert          DFT functionals, gCP, sTDA/sTD-DF
   Ed Valeev, F. Pavosevic, A. Kumar             : LibInt (2-el integral package), F12 methods
   Garnet Chan, S. Sharma, J. Yang, R. Olivares  : DMRG
   Ulf Ekstrom                                   : XCFun DFT Library
   Mihaly Kallay                                 : mrcc  (arbitrary order and MRCC methods)
   Jiri Pittner, Ondrej Demel                    : Mk-CCSD
   Frank Weinhold                                : gennbo (NPA and NBO analysis)
   Christopher J. Cramer and Donald G. Truhlar   : smd solvation model
   Lars Goerigk                                  : TD-DFT with DH, B97 family of functionals
   V. Asgeirsson, H. Jonsson                     : NEB implementation
   FAccTs GmbH                                   : IRC, NEB, NEB-TS, DLPNO-Multilevel, CI-OPT
                                                   MM, QMMM, 2- and 3-layer-ONIOM, Crystal-QMMM,
                                                   LR-CPCM, SF, NACMEs, symmetry and pop. for TD-DFT,
                                                   nearIR, NL-DFT gradient (VV10), updates on ESD,
                                                   ML-optimized integration grids
   S Lehtola, MJT Oliveira, MAL Marques          : LibXC Library
   Liviu Ungur et al                             : ANISO software


 Your calculation uses the libint2 library for the computation of 2-el integrals
 For citations please refer to: http://libint.valeyev.net

 Your ORCA version has been built with support for libXC version: 5.1.0
 For citations please refer to: https://tddft.org/programs/libxc/

 This ORCA versions uses:
   CBLAS   interface :  Fast vector & matrix operations
   LAPACKE interface :  Fast linear algebra routines
   SCALAPACK package :  Parallel linear algebra routines
   Shared memory     :  Shared parallel matrices
   BLAS/LAPACK       :  OpenBLAS 0.3.15  USE64BITINT DYNAMIC_ARCH NO_AFFINITY Zen SINGLE_THREADED
        Core in use  :  Zen
   Copyright (c) 2011-2014, The OpenBLAS Project


Your calculation utilizes the SMD solvation module
Please cite in your paper:
A.V. Marenich, C.J. Cramer, D.G. Truhlar J. Phys. Chem. B, 113, (2009), 6378 

================================================================================

----- Orbital basis set information -----
Your calculation utilizes the basis: def2-TZVP
   F. Weigend and R. Ahlrichs, Phys. Chem. Chem. Phys. 7, 3297 (2005).

----- AuxJ basis set information -----
Your calculation utilizes the auxiliary basis: def2/J
   F. Weigend, Phys. Chem. Chem. Phys. 8, 1057 (2006).

----- AuxC basis set information -----
Your calculation utilizes the auxiliary basis: def2-TZVP/C
  H-La, Hf-Rn : A. Hellweg, C. Hattig, S. Hofener and W. Klopper, Theor. Chem. Acc. 117, 587 (2007).
        Ce-Lu : J. Chmela and M. E. Harding, Mol. Phys. (2018).

================================================================================
                                        WARNINGS
                       Please study these warnings very carefully!
================================================================================

INFO   : Checking CIS options ...
  ===> : (D) CORRECTION FOUND - SETTING MODE=3
  ===> : JK MODE FOUND - ACTIVATING RI-MP2 CODE
  ===> : MP2 AND CIS FOUND - CHECKING
WARNING: CIS(D) and MP2 runs must have the same orbital window
  ===> : adjusting orbital windows

WARNING: No MP2 level density has been requested!
         To caclulate MP2 level properties use
         %mp2 Density relaxed end
         or
         %mp2 Density unrelaxed end
         Otherwise for double-hybrid DFT only the energy is correct!

WARNING: The frozen-core approximation is turned on by default for 
         the MP2 part of double-hybrid DFT.

WARNING:  You are using a Range-Separated Double Hybrid functional with Doubles Correction 
          Changing Mode to RPA_AOINTS 


WARNING: CIS/ROCIS methods need fully converged wavefunctions
  ===> : Setting SCFConvForced true
         You can overwrite this default with %scf ConvForced false 


INFO   : the flag for use of the SHARK integral package has been found!

================================================================================
                                       INPUT FILE
================================================================================
NAME = BOH-Acr_p_M06L_def2TZVP_coords.inp
|  1> %maxcore 3200
|  2> %pal
|  3>  nprocs= 8
|  4> end
|  5> ! RI-wB2PLYP def2-TZVP def2/J def2-TZVP/C RIJCOSX CPCM TightSCF
|  6> %TDDFT DCORR 1
|  7>    NROOTS   30
|  8> 
|  9>    TDA      FALSE
| 10> END
| 11> 
| 12> %CPCM
| 13>    SMD          TRUE
| 14>    SMDsolvent   "ACETONITRILE"
| 15> END
| 16>    
| 17> 
| 18> * xyz 1 1
| 19> C                  -0.99815600   -3.59492200    0.24638100
| 20> C                  -1.67788100   -2.40979500    0.17633400
| 21> C                  -0.96971200   -1.19623700    0.12146300
| 22> C                   0.45725200   -1.20773700    0.11133000
| 23> C                   1.11251800   -2.46141800    0.21572500
| 24> C                   0.40645600   -3.62559900    0.27957300
| 25> C                   1.16289900    0.00657700    0.02600200
| 26> C                   0.44603300    1.21608400   -0.02810600
| 27> C                  -0.97992300    1.19540200    0.02317300
| 28> C                  -1.69757800    2.40447500    0.00145200
| 29> H                  -2.77527400    2.38913800    0.05955700
| 30> C                  -1.02900200    3.59407800   -0.09559500
| 31> C                   0.37259700    3.63375600   -0.19007200
| 32> C                   1.08807000    2.47405500   -0.15897900
| 33> H                  -1.55633400   -4.52108300    0.28830500
| 34> H                  -2.75720700   -2.40121200    0.16548000
| 35> H                   2.19194000   -2.47972300    0.25387900
| 36> H                   0.92335900   -4.57190200    0.36113100
| 37> H                  -1.59429400    4.51673400   -0.11106000
| 38> H                   0.87938100    4.58347900   -0.29275400
| 39> H                   2.16461600    2.49898500   -0.24432400
| 40> N                  -1.63780300   -0.00275000    0.08515800
| 41> C                   2.63708300    0.01059200   -0.00613700
| 42> C                   3.32575700   -0.60525700   -1.05285100
| 43> C                   3.36658900    0.62850000    1.01037300
| 44> C                   4.70822600   -0.59090000   -1.08002000
| 45> C                   4.74961300    0.61413500    0.98144300
| 46> C                   5.45609800    0.01064800   -0.06250800
| 47> H                   5.22392100   -1.06167700   -1.90834200
| 48> H                   5.27930300    1.09415300    1.79808800
| 49> H                   2.76772500   -1.08182200   -1.84966000
| 50> H                   2.84234400    1.10538600    1.82941400
| 51> C                  -3.08481100   -0.00716300    0.11213200
| 52> C                  -3.78865400    0.00084400   -1.07706800
| 53> C                  -3.74597100   -0.01701900    1.33251500
| 54> C                  -5.17489700   -0.00000500   -1.05937300
| 55> H                  -3.25448900    0.00878600   -2.01882500
| 56> C                  -5.12446300   -0.01807800    1.35656000
| 57> H                  -3.17810500   -0.02360900    2.25417100
| 58> C                  -5.84899100   -0.00891000    0.16146500
| 59> H                  -5.71859800    0.00631500   -1.99286200
| 60> H                  -5.66148600   -0.02492100    2.29574700
| 61> O                  -7.19054800   -0.00914000    0.28675300
| 62> C                  -7.96491700    0.00239400   -0.90361400
| 63> H                  -9.00420200    0.00215400   -0.58782900
| 64> H                  -7.76999600    0.89748800   -1.49802800
| 65> H                  -7.77408300   -0.88356300   -1.51286000
| 66> B                   7.01824700   -0.00761200   -0.11345300
| 67> O                   7.82596900    0.50635800    0.86212300
| 68> H                   7.34866700    0.88524900    1.60754600
| 69> O                   7.61392700   -0.57547400   -1.20247400
| 70> H                   8.57600500   -0.54598500   -1.14644000
| 71> *
| 72> 
| 73> 
| 74>                          ****END OF INPUT****
================================================================================

                       ****************************
                       * Single Point Calculation *
                       ****************************

---------------------------------
CARTESIAN COORDINATES (ANGSTROEM)
---------------------------------
  C     -0.998156   -3.594922    0.246381
  C     -1.677881   -2.409795    0.176334
  C     -0.969712   -1.196237    0.121463
  C      0.457252   -1.207737    0.111330
  C      1.112518   -2.461418    0.215725
  C      0.406456   -3.625599    0.279573
  C      1.162899    0.006577    0.026002
  C      0.446033    1.216084   -0.028106
  C     -0.979923    1.195402    0.023173
  C     -1.697578    2.404475    0.001452
  H     -2.775274    2.389138    0.059557
  C     -1.029002    3.594078   -0.095595
  C      0.372597    3.633756   -0.190072
  C      1.088070    2.474055   -0.158979
  H     -1.556334   -4.521083    0.288305
  H     -2.757207   -2.401212    0.165480
  H      2.191940   -2.479723    0.253879
  H      0.923359   -4.571902    0.361131
  H     -1.594294    4.516734   -0.111060
  H      0.879381    4.583479   -0.292754
  H      2.164616    2.498985   -0.244324
  N     -1.637803   -0.002750    0.085158
  C      2.637083    0.010592   -0.006137
  C      3.325757   -0.605257   -1.052851
  C      3.366589    0.628500    1.010373
  C      4.708226   -0.590900   -1.080020
  C      4.749613    0.614135    0.981443
  C      5.456098    0.010648   -0.062508
  H      5.223921   -1.061677   -1.908342
  H      5.279303    1.094153    1.798088
  H      2.767725   -1.081822   -1.849660
  H      2.842344    1.105386    1.829414
  C     -3.084811   -0.007163    0.112132
  C     -3.788654    0.000844   -1.077068
  C     -3.745971   -0.017019    1.332515
  C     -5.174897   -0.000005   -1.059373
  H     -3.254489    0.008786   -2.018825
  C     -5.124463   -0.018078    1.356560
  H     -3.178105   -0.023609    2.254171
  C     -5.848991   -0.008910    0.161465
  H     -5.718598    0.006315   -1.992862
  H     -5.661486   -0.024921    2.295747
  O     -7.190548   -0.009140    0.286753
  C     -7.964917    0.002394   -0.903614
  H     -9.004202    0.002154   -0.587829
  H     -7.769996    0.897488   -1.498028
  H     -7.774083   -0.883563   -1.512860
  B      7.018247   -0.007612   -0.113453
  O      7.825969    0.506358    0.862123
  H      7.348667    0.885249    1.607546
  O      7.613927   -0.575474   -1.202474
  H      8.576005   -0.545985   -1.146440

----------------------------
CARTESIAN COORDINATES (A.U.)
----------------------------
  NO LB      ZA    FRAG     MASS         X           Y           Z
   0 C     6.0000    0    12.011   -1.886241   -6.793418    0.465593
   1 C     6.0000    0    12.011   -3.170736   -4.553853    0.333223
   2 C     6.0000    0    12.011   -1.832490   -2.260560    0.229532
   3 C     6.0000    0    12.011    0.864081   -2.282292    0.210383
   4 C     6.0000    0    12.011    2.102354   -4.651406    0.407661
   5 C     6.0000    0    12.011    0.768091   -6.851389    0.528316
   6 C     6.0000    0    12.011    2.197561    0.012429    0.049137
   7 C     6.0000    0    12.011    0.842880    2.298066   -0.053113
   8 C     6.0000    0    12.011   -1.851786    2.258982    0.043791
   9 C     6.0000    0    12.011   -3.207958    4.543799    0.002744
  10 H     1.0000    0     1.008   -5.244508    4.514817    0.112546
  11 C     6.0000    0    12.011   -1.944532    6.791823   -0.180648
  12 C     6.0000    0    12.011    0.704106    6.866804   -0.359184
  13 C     6.0000    0    12.011    2.056154    4.675286   -0.300427
  14 H     1.0000    0     1.008   -2.941045   -8.543609    0.544817
  15 H     1.0000    0     1.008   -5.210366   -4.537633    0.312712
  16 H     1.0000    0     1.008    4.142166   -4.685997    0.479762
  17 H     1.0000    0     1.008    1.744896   -8.639643    0.682439
  18 H     1.0000    0     1.008   -3.012779    8.535390   -0.209873
  19 H     1.0000    0     1.008    1.661789    8.661520   -0.553225
  20 H     1.0000    0     1.008    4.090531    4.722397   -0.461705
  21 N     7.0000    0    14.007   -3.094999   -0.005197    0.160925
  22 C     6.0000    0    12.011    4.983365    0.020016   -0.011597
  23 C     6.0000    0    12.011    6.284770   -1.143770   -1.989600
  24 C     6.0000    0    12.011    6.361931    1.187693    1.909328
  25 C     6.0000    0    12.011    8.897258   -1.116639   -2.040942
  26 C     6.0000    0    12.011    8.975468    1.160547    1.854658
  27 C     6.0000    0    12.011   10.310531    0.020122   -0.118123
  28 H     1.0000    0     1.008    9.871780   -2.006279   -3.606244
  29 H     1.0000    0     1.008    9.976437    2.067650    3.397894
  30 H     1.0000    0     1.008    5.230242   -2.044347   -3.495351
  31 H     1.0000    0     1.008    5.371252    2.088877    3.457091
  32 C     6.0000    0    12.011   -5.829448   -0.013536    0.211899
  33 C     6.0000    0    12.011   -7.159518    0.001595   -2.035364
  34 C     6.0000    0    12.011   -7.078859   -0.032161    2.518088
  35 C     6.0000    0    12.011   -9.779138   -0.000009   -2.001925
  36 H     1.0000    0     1.008   -6.150093    0.016603   -3.815026
  37 C     6.0000    0    12.011   -9.683832   -0.034162    2.563527
  38 H     1.0000    0     1.008   -6.005748   -0.044615    4.259766
  39 C     6.0000    0    12.011  -11.052991   -0.016837    0.305125
  40 H     1.0000    0     1.008  -10.806584    0.011934   -3.765963
  41 H     1.0000    0     1.008  -10.698658   -0.047094    4.338333
  42 O     8.0000    0    15.999  -13.588166   -0.017272    0.541885
  43 C     6.0000    0    12.011  -15.051512    0.004524   -1.707583
  44 H     1.0000    0     1.008  -17.015476    0.004070   -1.110836
  45 H     1.0000    0     1.008  -14.683165    1.696007   -2.830863
  46 H     1.0000    0     1.008  -14.690888   -1.669692   -2.858891
  47 B     5.0000    0    10.810   13.262565   -0.014385   -0.214395
  48 O     8.0000    0    15.999   14.788938    0.956878    1.629176
  49 H     1.0000    0     1.008   13.886968    1.672878    3.037822
  50 O     8.0000    0    15.999   14.388237   -1.087488   -2.272347
  51 H     1.0000    0     1.008   16.206301   -1.031762   -2.166458

--------------------------------
INTERNAL COORDINATES (ANGSTROEM)
--------------------------------
 C      0   0   0     0.000000000000     0.00000000     0.00000000
 C      1   0   0     1.368012669518     0.00000000     0.00000000
 C      2   1   0     1.406142659393   119.96194231     0.00000000
 C      3   2   1     1.427046314940   119.79633296     1.28739369
 C      4   3   2     1.418445591675   117.93917083   357.34875448
 C      5   4   3     1.363054480096   121.26777424     2.12441186
 C      4   3   2     1.407045502743   119.66689092   178.57432752
 C      7   4   3     1.407029395808   119.25443905     0.93368601
 C      8   7   4     1.427027608318   119.68729565     0.87968740
 C      9   8   7     1.406185627929   119.79881436   178.48592485
 H     10   9   8     1.079370225182   119.76971555   181.18244853
 C     10   9   8     1.368052369463   119.95702472     1.30434079
 C     12  10   9     1.405339817985   121.11285658     0.72703965
 C     13  12  10     1.363002126843   119.86585238   358.69869991
 H      1   2   3     1.082171196891   119.15161434   179.98423898
 H      2   1   3     1.079414698566   120.28044758   180.15656024
 H      5   4   3     1.080251199872   118.63200916   182.70870483
 H      6   5   4     1.081355531998   120.22182658   180.13436591
 H     12  10   9     1.082168335253   119.15108148   180.00842262
 H     13  12  10     1.081363672642   119.90646247   178.35532973
 H     14  13  12     1.080211351561   120.11282612   179.19709491
 N      3   2   1     1.368237865459   120.52641999   181.65261572
 C      7   4   3     1.474539759180   120.33536317   180.92652671
 C     23   7   4     1.396120362602   120.55052204    62.38178911
 C     23   7   4     1.395450422122   120.52917059   242.47302157
 C     24  23   7     1.382810476519   120.21894774   179.63745628
 C     25  23   7     1.383401128632   120.18546364   179.22398539
 C     27  25  23     1.397551896995   121.70078782     1.14402581
 H     26  24  23     1.083369582570   119.10444622   180.89295226
 H     27  25  23     1.085310016746   117.87816269   180.83087462
 H     24  23   7     1.083244429817   119.43513814     0.48579958
 H     25  23   7     1.083088748304   119.52386488     0.18240498
 C     22   3   2     1.447266120418   119.01537686     0.36560105
 C     33  22   3     1.381902934615   119.54990308   267.18422182
 C     33  22   3     1.388007331762   119.51565234    87.29627660
 C     34  33  22     1.386356191199   119.88758463   180.15776942
 H     34  33  22     1.082728760881   119.81974223     0.09490686
 C     35  33  22     1.378702098921   119.44609686   179.85042535
 H     35  33  22     1.082573325180   119.91541696   359.86126578
 C     36  34  33     1.394606554590   119.63649468     0.00000000
 H     36  34  33     1.080302010052   119.48609674   179.99816422
 H     38  35  33     1.081902375516   120.75967103   180.04682873
 O     40  36  34     1.347394641556   124.24024005   179.93059289
 C     43  40  36     1.420124633969   117.70873486   359.90513212
 H     44  43  40     1.086201424714   106.14322435   180.10757915
 H     44  43  40     1.092023565896   111.44364178   298.91760221
 H     44  43  40     1.092024775324   111.45464119    61.29103473
 B     28  27  25     1.563086152081   122.31703958   179.67920022
 O     48  28  27     1.366868143590   124.25795511     2.66227539
 H     49  48  28     0.962824510497   114.05436913     0.46050536
 O     48  28  27     1.365015989608   117.83917367   182.57255823
 H     51  48  28     0.964159472474   112.10829731   180.28987537

---------------------------
INTERNAL COORDINATES (A.U.)
---------------------------
 C      0   0   0     0.000000000000     0.00000000     0.00000000
 C      1   0   0     2.585169293124     0.00000000     0.00000000
 C      2   1   0     2.657224531477   119.96194231     0.00000000
 C      3   2   1     2.696726715659   119.79633296     1.28739369
 C      4   3   2     2.680473704133   117.93917083   357.34875448
 C      5   4   3     2.575799672995   121.26777424     2.12441186
 C      4   3   2     2.658930658150   119.66689092   178.57432752
 C      7   4   3     2.658900220455   119.25443905     0.93368601
 C      8   7   4     2.696691365265   119.68729565     0.87968740
 C      9   8   7     2.657305730243   119.79881436   178.48592485
 H     10   9   8     2.039714122703   119.76971555   181.18244853
 C     10   9   8     2.585244315148   119.95702472     1.30434079
 C     12  10   9     2.655707381086   121.11285658     0.72703965
 C     13  12  10     2.575700739686   119.86585238   358.69869991
 H      1   2   3     2.045007192142   119.15161434   179.98423898
 H      2   1   3     2.039798165219   120.28044758   180.15656024
 H      5   4   3     2.041378923598   118.63200916   182.70870483
 H      6   5   4     2.043465808876   120.22182658   180.13436591
 H     12  10   9     2.045001784430   119.15108148   180.00842262
 H     13  12  10     2.043481192464   119.90646247   178.35532973
 H     14  13  12     2.041303621203   120.11282612   179.19709491
 N      3   2   1     2.585594851778   120.52641999   181.65261572
 C      7   4   3     2.786476318428   120.33536317   180.92652671
 C     23   7   4     2.638285135309   120.55052204    62.38178911
 C     23   7   4     2.637019131275   120.52917059   242.47302157
 C     24  23   7     2.613133095738   120.21894774   179.63745628
 C     25  23   7     2.614249266473   120.18546364   179.22398539
 C     27  25  23     2.640990343263   121.70078782     1.14402581
 H     26  24  23     2.047271812878   119.10444622   180.89295226
 H     27  25  23     2.050938702051   117.87816269   180.83087462
 H     24  23   7     2.047035308450   119.43513814     0.48579958
 H     25  23   7     2.046741113025   119.52386488     0.18240498
 C     22   3   2     2.734936610492   119.01537686     0.36560105
 C     33  22   3     2.611418090085   119.54990308   267.18422182
 C     33  22   3     2.622953728905   119.51565234    87.29627660
 C     34  33  22     2.619833525432   119.88758463   180.15776942
 H     34  33  22     2.046060835384   119.81974223     0.09490686
 C     35  33  22     2.605369387224   119.44609686   179.85042535
 H     35  33  22     2.045767104479   119.91541696   359.86126578
 C     36  34  33     2.635424452746   119.63649468     0.00000000
 H     36  34  33     2.041474940923   119.48609674   179.99816422
 H     38  35  33     2.044499193364   120.75967103   180.04682873
 O     40  36  34     2.546206866853   124.24024005   179.93059289
 C     43  40  36     2.683646634237   117.70873486   359.90513212
 H     44  43  40     2.052623218984   106.14322435   180.10757915
 H     44  43  40     2.063625471332   111.44364178   298.91760221
 H     44  43  40     2.063627756819   111.45464119    61.29103473
 B     28  27  25     2.953804751157   122.31703958   179.67920022
 O     48  28  27     2.583006452566   124.25795511     2.66227539
 H     49  48  28     1.819474639866   114.05436913     0.46050536
 O     48  28  27     2.579506388782   117.83917367   182.57255823
 H     51  48  28     1.821997352402   112.10829731   180.28987537

---------------------
BASIS SET INFORMATION
---------------------
There are 5 groups of distinct atoms

 Group   1 Type C   : 11s6p2d1f contracted to 5s3p2d1f pattern {62111/411/11/1}
 Group   2 Type H   : 5s1p contracted to 3s1p pattern {311/1}
 Group   3 Type N   : 11s6p2d1f contracted to 5s3p2d1f pattern {62111/411/11/1}
 Group   4 Type O   : 11s6p2d1f contracted to 5s3p2d1f pattern {62111/411/11/1}
 Group   5 Type B   : 11s6p2d1f contracted to 5s3p2d1f pattern {62111/411/11/1}

Atom   0C    basis set group =>   1
Atom   1C    basis set group =>   1
Atom   2C    basis set group =>   1
Atom   3C    basis set group =>   1
Atom   4C    basis set group =>   1
Atom   5C    basis set group =>   1
Atom   6C    basis set group =>   1
Atom   7C    basis set group =>   1
Atom   8C    basis set group =>   1
Atom   9C    basis set group =>   1
Atom  10H    basis set group =>   2
Atom  11C    basis set group =>   1
Atom  12C    basis set group =>   1
Atom  13C    basis set group =>   1
Atom  14H    basis set group =>   2
Atom  15H    basis set group =>   2
Atom  16H    basis set group =>   2
Atom  17H    basis set group =>   2
Atom  18H    basis set group =>   2
Atom  19H    basis set group =>   2
Atom  20H    basis set group =>   2
Atom  21N    basis set group =>   3
Atom  22C    basis set group =>   1
Atom  23C    basis set group =>   1
Atom  24C    basis set group =>   1
Atom  25C    basis set group =>   1
Atom  26C    basis set group =>   1
Atom  27C    basis set group =>   1
Atom  28H    basis set group =>   2
Atom  29H    basis set group =>   2
Atom  30H    basis set group =>   2
Atom  31H    basis set group =>   2
Atom  32C    basis set group =>   1
Atom  33C    basis set group =>   1
Atom  34C    basis set group =>   1
Atom  35C    basis set group =>   1
Atom  36H    basis set group =>   2
Atom  37C    basis set group =>   1
Atom  38H    basis set group =>   2
Atom  39C    basis set group =>   1
Atom  40H    basis set group =>   2
Atom  41H    basis set group =>   2
Atom  42O    basis set group =>   4
Atom  43C    basis set group =>   1
Atom  44H    basis set group =>   2
Atom  45H    basis set group =>   2
Atom  46H    basis set group =>   2
Atom  47B    basis set group =>   5
Atom  48O    basis set group =>   4
Atom  49H    basis set group =>   2
Atom  50O    basis set group =>   4
Atom  51H    basis set group =>   2
---------------------------------
AUXILIARY/J BASIS SET INFORMATION
---------------------------------
There are 5 groups of distinct atoms

 Group   1 Type C   : 12s5p4d2f1g contracted to 6s4p3d1f1g pattern {711111/2111/211/2/1}
 Group   2 Type H   : 5s2p1d contracted to 3s1p1d pattern {311/2/1}
 Group   3 Type N   : 12s5p4d2f1g contracted to 6s4p3d1f1g pattern {711111/2111/211/2/1}
 Group   4 Type O   : 12s5p4d2f1g contracted to 6s4p3d1f1g pattern {711111/2111/211/2/1}
 Group   5 Type B   : 12s5p4d2f1g contracted to 6s4p3d1f1g pattern {711111/2111/211/2/1}

Atom   0C    basis set group =>   1
Atom   1C    basis set group =>   1
Atom   2C    basis set group =>   1
Atom   3C    basis set group =>   1
Atom   4C    basis set group =>   1
Atom   5C    basis set group =>   1
Atom   6C    basis set group =>   1
Atom   7C    basis set group =>   1
Atom   8C    basis set group =>   1
Atom   9C    basis set group =>   1
Atom  10H    basis set group =>   2
Atom  11C    basis set group =>   1
Atom  12C    basis set group =>   1
Atom  13C    basis set group =>   1
Atom  14H    basis set group =>   2
Atom  15H    basis set group =>   2
Atom  16H    basis set group =>   2
Atom  17H    basis set group =>   2
Atom  18H    basis set group =>   2
Atom  19H    basis set group =>   2
Atom  20H    basis set group =>   2
Atom  21N    basis set group =>   3
Atom  22C    basis set group =>   1
Atom  23C    basis set group =>   1
Atom  24C    basis set group =>   1
Atom  25C    basis set group =>   1
Atom  26C    basis set group =>   1
Atom  27C    basis set group =>   1
Atom  28H    basis set group =>   2
Atom  29H    basis set group =>   2
Atom  30H    basis set group =>   2
Atom  31H    basis set group =>   2
Atom  32C    basis set group =>   1
Atom  33C    basis set group =>   1
Atom  34C    basis set group =>   1
Atom  35C    basis set group =>   1
Atom  36H    basis set group =>   2
Atom  37C    basis set group =>   1
Atom  38H    basis set group =>   2
Atom  39C    basis set group =>   1
Atom  40H    basis set group =>   2
Atom  41H    basis set group =>   2
Atom  42O    basis set group =>   4
Atom  43C    basis set group =>   1
Atom  44H    basis set group =>   2
Atom  45H    basis set group =>   2
Atom  46H    basis set group =>   2
Atom  47B    basis set group =>   5
Atom  48O    basis set group =>   4
Atom  49H    basis set group =>   2
Atom  50O    basis set group =>   4
Atom  51H    basis set group =>   2
---------------------------------
AUXILIARY/C BASIS SET INFORMATION
---------------------------------
There are 5 groups of distinct atoms

 Group   1 Type C   : 8s6p5d3f1g contracted to 8s6p4d3f1g pattern {11111111/111111/2111/111/1}
 Group   2 Type H   : 4s3p2d contracted to 4s2p1d pattern {1111/21/2}
 Group   3 Type N   : 8s6p5d3f1g contracted to 8s6p4d3f1g pattern {11111111/111111/2111/111/1}
 Group   4 Type O   : 8s6p5d3f1g contracted to 8s6p4d3f1g pattern {11111111/111111/2111/111/1}
 Group   5 Type B   : 8s6p5d3f1g contracted to 8s6p4d3f1g pattern {11111111/111111/2111/111/1}

Atom   0C    basis set group =>   1
Atom   1C    basis set group =>   1
Atom   2C    basis set group =>   1
Atom   3C    basis set group =>   1
Atom   4C    basis set group =>   1
Atom   5C    basis set group =>   1
Atom   6C    basis set group =>   1
Atom   7C    basis set group =>   1
Atom   8C    basis set group =>   1
Atom   9C    basis set group =>   1
Atom  10H    basis set group =>   2
Atom  11C    basis set group =>   1
Atom  12C    basis set group =>   1
Atom  13C    basis set group =>   1
Atom  14H    basis set group =>   2
Atom  15H    basis set group =>   2
Atom  16H    basis set group =>   2
Atom  17H    basis set group =>   2
Atom  18H    basis set group =>   2
Atom  19H    basis set group =>   2
Atom  20H    basis set group =>   2
Atom  21N    basis set group =>   3
Atom  22C    basis set group =>   1
Atom  23C    basis set group =>   1
Atom  24C    basis set group =>   1
Atom  25C    basis set group =>   1
Atom  26C    basis set group =>   1
Atom  27C    basis set group =>   1
Atom  28H    basis set group =>   2
Atom  29H    basis set group =>   2
Atom  30H    basis set group =>   2
Atom  31H    basis set group =>   2
Atom  32C    basis set group =>   1
Atom  33C    basis set group =>   1
Atom  34C    basis set group =>   1
Atom  35C    basis set group =>   1
Atom  36H    basis set group =>   2
Atom  37C    basis set group =>   1
Atom  38H    basis set group =>   2
Atom  39C    basis set group =>   1
Atom  40H    basis set group =>   2
Atom  41H    basis set group =>   2
Atom  42O    basis set group =>   4
Atom  43C    basis set group =>   1
Atom  44H    basis set group =>   2
Atom  45H    basis set group =>   2
Atom  46H    basis set group =>   2
Atom  47B    basis set group =>   5
Atom  48O    basis set group =>   4
Atom  49H    basis set group =>   2
Atom  50O    basis set group =>   4
Atom  51H    basis set group =>   2


           ************************************************************
           *        Program running with 8 parallel MPI-processes     *
           *              working on a common directory               *
           ************************************************************
------------------------------------------------------------------------------
                           ORCA GTO INTEGRAL CALCULATION
                           -- RI-GTO INTEGRALS CHOSEN --
------------------------------------------------------------------------------
------------------------------------------------------------------------------
                   ___                                                        
                  /   \      - P O W E R E D   B Y -                         
                 /     \                                                     
                 |  |  |   _    _      __       _____    __    __             
                 |  |  |  | |  | |    /  \     |  _  \  |  |  /  |          
                  \  \/   | |  | |   /    \    | | | |  |  | /  /          
                 / \  \   | |__| |  /  /\  \   | |_| |  |  |/  /          
                |  |  |   |  __  | /  /__\  \  |    /   |      \           
                |  |  |   | |  | | |   __   |  |    \   |  |\   \          
                \     /   | |  | | |  |  |  |  | |\  \  |  | \   \       
                 \___/    |_|  |_| |__|  |__|  |_| \__\ |__|  \__/        
                                                                              
                      - O R C A' S   B I G   F R I E N D -                    
                                      &                                       
                       - I N T E G R A L  F E E D E R -                       
                                                                              
 v1 FN, 2020, v2 2021                                                         
------------------------------------------------------------------------------


Reading SHARK input file BOH-Acr_p_M06L_def2TZVP_coords.SHARKINP.tmp ... ok
----------------------
SHARK INTEGRAL PACKAGE
----------------------

Number of atoms                             ...     52
Number of basis functions                   ...   1087
Number of shells                            ...    425
Maximum angular momentum                    ...      3
Integral batch strategy                     ... SHARK/LIBINT Hybrid
RI-J (if used) integral strategy            ... SPLIT-RIJ (Revised 2003 algorithm where possible)
Printlevel                                  ...      1
Contraction scheme used                     ... SEGMENTED contraction
Coulomb Range Separation                    ... NOT USED
Exchange Range Separation                   ... Long Range
   Mu parameter                             ...  0.300000
   Scaling (regular/separated)              ...  0.530000  0.470000
Finite Nucleus Model                        ... NOT USED
Auxiliary Coulomb fitting basis             ... AVAILABLE
   # of basis functions in Aux-J            ...   1750
   # of shells in Aux-J                     ...    570
   Maximum angular momentum in Aux-J        ...      4
Auxiliary J/K fitting basis                 ... NOT available
Auxiliary Correlation fitting basis         ... AVAILABLE
   # of basis functions in Aux-C            ...   2671
   # of shells in Aux-C                     ...    829
   Maximum angular momentum in Aux-C        ...      4
Auxiliary 'external' fitting basis          ... NOT available
Integral threshold                          ...     2.500000e-11
Primitive cut-off                           ...     2.500000e-12
Primitive pair pre-selection threshold      ...     2.500000e-12

Calculating pre-screening integrals         ... done (  0.1 sec) Dimension = 425
Organizing shell pair data                  ... done (  0.7 sec)
Shell pair information
Total number of shell pairs                 ...     90525
Shell pairs after pre-screening             ...     54364
Total number of primitive shell pairs       ...    279376
Primitive shell pairs kept                  ...    108846
          la=0 lb=0:  13631 shell pairs
          la=1 lb=0:  15734 shell pairs
          la=1 lb=1:   4532 shell pairs
          la=2 lb=0:   7743 shell pairs
          la=2 lb=1:   4527 shell pairs
          la=2 lb=2:   1147 shell pairs
          la=3 lb=0:   3609 shell pairs
          la=3 lb=1:   2146 shell pairs
          la=3 lb=2:   1037 shell pairs
          la=3 lb=3:    258 shell pairs

Calculating one electron integrals          ... done (  0.1 sec)
Calculating RI/J V-Matrix + Cholesky decomp.... done (  0.1 sec)
Calculating RI/C V-Matrix + Cholesky decomp.... done (  0.3 sec)
Calculating Nuclear repulsion               ... done (  0.0 sec) ENN=   2763.417078813940 Eh

SHARK setup successfully completed in   1.7 seconds

Maximum memory used throughout the entire GTOINT-calculation: 91.5 MB


           ************************************************************
           *        Program running with 8 parallel MPI-processes     *
           *              working on a common directory               *
           ************************************************************
-------------------------------------------------------------------------------
                                 ORCA SCF
-------------------------------------------------------------------------------

------------
SCF SETTINGS
------------
Hamiltonian:
 Density Functional     Method          .... DFT(GTOs)
 Exchange Functional    Exchange        .... WB88
 Correlation Functional Correlation     .... LYP
 LDA part of GGA corr.  LDAOpt          .... VWN-3
 Gradients option       PostSCFGGA      .... off
 Hybrid DFT is turned on
   Fraction HF Exchange ScalHFX         ....  0.530000
   Scaling of DF-GGA-X  ScalDFX         ....  0.000000
   Scaling of DF-GGA-C  ScalDFC         ....  0.730000
   Scaling of DF-LDA-C  ScalLDAC        ....  0.730000
   Perturbative correction              ....  0.270000
   Density functional embedding theory  .... OFF
 Long-range corrected/Screened/Range-Separated Hybrid DFT is turned on
   Amount of maximum screened exact exchange              ....  0.470000
   Range separation parameter mu (erf(mu*r12)/r12)        ....  0.300000
 RI-approximation to the Coulomb term is turned on
   Number of AuxJ basis functions       .... 1750
   RIJ-COSX (HFX calculated with COS-X)).... on


General Settings:
 Integral files         IntName         .... BOH-Acr_p_M06L_def2TZVP_coords
 Hartree-Fock type      HFTyp           .... RHF
 Total Charge           Charge          ....    1
 Multiplicity           Mult            ....    1
 Number of Electrons    NEL             ....  212
 Basis Dimension        Dim             .... 1087
 Nuclear Repulsion      ENuc            ....   2763.4170788139 Eh

Convergence Acceleration:
 DIIS                   CNVDIIS         .... on
   Start iteration      DIISMaxIt       ....    12
   Startup error        DIISStart       ....  0.200000
   # of expansion vecs  DIISMaxEq       ....     5
   Bias factor          DIISBfac        ....   1.050
   Max. coefficient     DIISMaxC        ....  10.000
 Trust-Rad. Augm. Hess. CNVTRAH         .... auto
   Auto Start mean grad. ratio tolernc. ....  1.125000
   Auto Start start iteration           ....    20
   Auto Start num. interpolation iter.  ....    10
   Max. Number of Micro iterations      ....    16
   Max. Number of Macro iterations      .... Maxiter - #DIIS iter
   Number of Davidson start vectors     ....     2
   Converg. threshold I  (grad. norm)   ....   1.000e-05
   Converg. threshold II (energy diff.) ....   1.000e-08
   Grad. Scal. Fac. for Micro threshold ....   0.100
   Minimum threshold for Micro iter.    ....   0.010
   NR start threshold (gradient norm)   ....   0.001
   Initial trust radius                 ....   0.400
   Minimum AH scaling param. (alpha)    ....   1.000
   Maximum AH scaling param. (alpha)    .... 1000.000
   Orbital update algorithm             .... Taylor
   White noise on init. David. guess    .... on
   Maximum white noise                  ....   0.010
   Quad. conv. algorithm                .... NR
 SOSCF                  CNVSOSCF        .... on
   Start iteration      SOSCFMaxIt      ....   150
   Startup grad/error   SOSCFStart      ....  0.003300
 Level Shifting         CNVShift        .... on
   Level shift para.    LevelShift      ....    0.2500
   Turn off err/grad.   ShiftErr        ....    0.0010
 Zerner damping         CNVZerner       .... off
 Static damping         CNVDamp         .... on
   Fraction old density DampFac         ....    0.7000
   Max. Damping (<1)    DampMax         ....    0.9800
   Min. Damping (>=0)   DampMin         ....    0.0000
   Turn off err/grad.   DampErr         ....    0.1000
 Fernandez-Rico         CNVRico         .... off

SCF Procedure:
 Maximum # iterations   MaxIter         ....   125
 SCF integral mode      SCFMode         .... Direct
   Integral package                     .... SHARK and LIBINT hybrid scheme
 Reset frequency        DirectResetFreq ....    20
 Integral Threshold     Thresh          ....  2.500e-11 Eh
 Primitive CutOff       TCut            ....  2.500e-12 Eh

Convergence Tolerance:
 Convergence Check Mode ConvCheckMode   .... Total+1el-Energy
 Convergence forced     ConvForced      .... 1
 Energy Change          TolE            ....  1.000e-08 Eh
 1-El. energy change                    ....  1.000e-05 Eh
 Orbital Gradient       TolG            ....  1.000e-05
 Orbital Rotation angle TolX            ....  1.000e-05
 DIIS Error             TolErr          ....  5.000e-07


Diagonalization of the overlap matrix:
Smallest eigenvalue                        ... 4.755e-06
Time for diagonalization                   ...    0.171 sec
Threshold for overlap eigenvalues          ... 1.000e-08
Number of eigenvalues below threshold      ... 0
Time for construction of square roots      ...    0.109 sec
Total time needed                          ...    0.284 sec

Time for model grid setup =    0.348 sec

------------------------------
INITIAL GUESS: MODEL POTENTIAL
------------------------------
Loading Hartree-Fock densities                     ... done
Calculating cut-offs                               ... done
Initializing the effective Hamiltonian             ... done
Setting up the integral package (SHARK)            ... done
Starting the Coulomb interaction                   ... done (   0.8 sec)
Reading the grid                                   ... done
Mapping shells                                     ... done
Starting the XC term evaluation                    ... done (   0.3 sec)
  promolecular density results
     # of electrons  =    212.985567155
     EX              =   -174.184701238
     EC              =     -2.438144661
     EX+EC           =   -176.622845899
Transforming the Hamiltonian                       ... done (   0.1 sec)
Diagonalizing the Hamiltonian                      ... done (   0.1 sec)
Back transforming the eigenvectors                 ... done (   0.0 sec)
Now organizing SCF variables                       ... done
                      ------------------
                      INITIAL GUESS DONE (   1.7 sec)
                      ------------------
-------------------
DFT GRID GENERATION
-------------------

General Integration Accuracy     IntAcc      ... 4.388
Radial Grid Type                 RadialGrid  ... OptM3 with GC (2021)
Angular Grid (max. ang.)         AngularGrid ... 4 (Lebedev-302)
Angular grid pruning method      GridPruning ... 4 (adaptive)
Weight generation scheme         WeightScheme... Becke
Basis function cutoff            BFCut       ... 1.0000e-11
Integration weight cutoff        WCut        ... 1.0000e-14
Angular grids for H and He will be reduced by one unit
Partially contracted basis set               ... off
Rotationally invariant grid construction     ... off

Total number of grid points                  ...   250989
Total number of batches                      ...     3947
Average number of points per batch           ...       63
Average number of grid points per atom       ...     4827
Time for grid setup =    1.503 sec

--------------------
COSX GRID GENERATION
--------------------

GRIDX 1
-------
General Integration Accuracy     IntAcc      ... 3.816
Radial Grid Type                 RadialGrid  ... OptM3 with GC (2021)
Angular Grid (max. ang.)         AngularGrid ... 1 (Lebedev-50)
Angular grid pruning method      GridPruning ... 4 (adaptive)
Weight generation scheme         WeightScheme... Becke
Basis function cutoff            BFCut       ... 1.0000e-11
Integration weight cutoff        WCut        ... 1.0000e-14
Angular grids for H and He will be reduced by one unit
Partially contracted basis set               ... on
Rotationally invariant grid construction     ... off

Total number of grid points                  ...    31903
Total number of batches                      ...      523
Average number of points per batch           ...       61
Average number of grid points per atom       ...      614
UseSFitting                                  ... on

GRIDX 2
-------
General Integration Accuracy     IntAcc      ... 4.020
Radial Grid Type                 RadialGrid  ... OptM3 with GC (2021)
Angular Grid (max. ang.)         AngularGrid ... 2 (Lebedev-110)
Angular grid pruning method      GridPruning ... 4 (adaptive)
Weight generation scheme         WeightScheme... Becke
Basis function cutoff            BFCut       ... 1.0000e-11
Integration weight cutoff        WCut        ... 1.0000e-14
Angular grids for H and He will be reduced by one unit
Partially contracted basis set               ... on
Rotationally invariant grid construction     ... off

Total number of grid points                  ...    69220
Total number of batches                      ...     1105
Average number of points per batch           ...       62
Average number of grid points per atom       ...     1331
UseSFitting                                  ... on

GRIDX 3
-------
General Integration Accuracy     IntAcc      ... 4.338
Radial Grid Type                 RadialGrid  ... OptM3 with GC (2021)
Angular Grid (max. ang.)         AngularGrid ... 3 (Lebedev-194)
Angular grid pruning method      GridPruning ... 4 (adaptive)
Weight generation scheme         WeightScheme... Becke
Basis function cutoff            BFCut       ... 1.0000e-11
Integration weight cutoff        WCut        ... 1.0000e-14
Angular grids for H and He will be reduced by one unit
Partially contracted basis set               ... on
Rotationally invariant grid construction     ... off

Total number of grid points                  ...   151454
Total number of batches                      ...     2393
Average number of points per batch           ...       63
Average number of grid points per atom       ...     2913
UseSFitting                                  ... on

Time for X-Grid setup             =    2.024 sec


--------------------
CPCM SOLVATION MODEL
--------------------
CPCM parameters:
  Epsilon                                         ...      35.6880
  Refrac                                          ...       1.3442
  Rsolv                                           ...       1.3000
  Surface type                                    ... GAUSSIAN VDW
  Epsilon function type                           ...         CPCM
Solvent:                                     ... ACETONITRILE
SMD-CDS solvent descriptors:
  Soln                                       ...    1.3442
  Soln25                                     ...    1.3416
  Sola                                       ...    0.0700
  Solb                                       ...    0.3200
  Solg                                       ...   41.2500
  Solc                                       ...    0.0000
  Solh                                       ...    0.0000
Radii:
 Radius for C  used is    3.4960 Bohr (=   1.8500 Ang.)
 Radius for H  used is    2.2677 Bohr (=   1.2000 Ang.)
 Radius for N  used is    3.5716 Bohr (=   1.8900 Ang.)
 Radius for O  used is    4.0969 Bohr (=   2.1680 Ang.)
 Radius for B  used is    3.6283 Bohr (=   1.9200 Ang.)
Calculating surface                               ...        done! (  0.0s)
GEPOL surface points                              ...         2758
GEPOL Volume                                      ...    2959.6642
GEPOL Surface-area                                ...    1554.4650
Calculating surface distance matrix               ...        done! (  0.0s)
Performing Cholesky decomposition & store         ...        done! (  0.2s)
Overall time for CPCM initialization              ...                 0.3s
--------------
SCF ITERATIONS
--------------
ITER       Energy         Delta-E        Max-DP      RMS-DP      [F,P]     Damp
               ***  Starting incremental Fock matrix formation  ***
  0  -1304.3454276343   0.000000000000 0.06360933  0.00062864  0.2940877 0.7000
  1  -1304.6381616350  -0.292734000705 0.05856518  0.00053627  0.1591886 0.7000
                               ***Turning on DIIS***
  2  -1304.8049910282  -0.166829393189 0.12381928  0.00123884  0.0737679 0.0000
  3  -1305.1119401150  -0.306949086852 0.04060748  0.00029439  0.0682587 0.0000
  4  -1305.1374260106  -0.025485895555 0.00824003  0.00009716  0.0096071 0.0000
  5  -1305.1385046112  -0.001078600628 0.00359130  0.00004605  0.0049907 0.0000
                      *** Initiating the SOSCF procedure ***
                           *** Shutting down DIIS ***
                      *** Re-Reading the Fockian *** 
                      *** Removing any level shift *** 
ITER      Energy       Delta-E        Grad      Rot      Max-DP    RMS-DP
  6  -1305.13877484  -0.0002702263  0.001922  0.001922  0.001918  0.000024
               *** Restarting incremental Fock matrix formation ***
  7  -1305.13855161   0.0002232316  0.001273  0.004448  0.027005  0.000296
  8  -1305.13860322  -0.0000516156  0.000711  0.006500  0.013116  0.000145
  9  -1305.13862766  -0.0000244359  0.000243  0.000455  0.011527  0.000125
 10  -1305.13863094  -0.0000032836  0.000094  0.000197  0.001020  0.000013
 11  -1305.13863156  -0.0000006207  0.000042  0.000261  0.000418  0.000005
 12  -1305.13863169  -0.0000001310  0.000018  0.000159  0.000254  0.000003
 13  -1305.13863172  -0.0000000239  0.000009  0.000035  0.000101  0.000001
 14  -1305.13863176  -0.0000000459  0.000003  0.000007  0.000208  0.000002
                  ***Gradient check signals convergence***
              ***Rediagonalizing the Fockian in SOSCF/NRSCF***

               *****************************************************
               *                     SUCCESS                       *
               *           SCF CONVERGED AFTER  15 CYCLES          *
               *****************************************************

Old exchange energy                            =   -109.752491029 Eh
New exchange energy                            =   -109.752391148 Eh
Exchange energy change after final integration =      0.000099881 Eh
Total energy after final integration           =  -1305.138531869 Eh
Final COS-X integration done in                =    71.921 sec

SMD CDS free energy correction energy :                -5.66055     Kcal/mol
Total Energy after SMD CDS correction =             -1305.147552523 Eh

----------------
TOTAL SCF ENERGY
----------------

Total Energy       :        -1305.14755252 Eh          -35514.87045 eV

Components:
Nuclear Repulsion  :         2763.41707881 Eh           75196.40163 eV
Electronic Energy  :        -4068.56463134 Eh         -110711.27207 eV
One Electron Energy:        -7243.14555345 Eh         -197096.01068 eV
Two Electron Energy:         3174.58092211 Eh           86384.73861 eV
Max COSX asymmetry :            0.00000504 Eh               0.00014 eV
CPCM Dielectric    :           -0.08533052 Eh              -2.32196 eV
SMD CDS (Gcds)     :           -0.00902065 Eh              -0.24546 eV

Virial components:
Potential Energy   :        -2605.93699719 Eh          -70911.15075 eV
Kinetic Energy     :         1300.78944467 Eh           35396.28030 eV
Virial Ratio       :            2.00335036


DFT components:
N(Alpha)           :      106.000235454942 electrons
N(Beta)            :      106.000235454942 electrons
N(Total)           :      212.000470909884 electrons
E(X)               :      -66.773883981454 Eh       
E(C)               :       -5.305040494196 Eh       
E(XC)              :      -72.078924475650 Eh       
DFET-embed. en.    :        0.000000000000 Eh       
CPCM Solvation Model Properties:
Surface-charge          :           -1.05315028
Charge-correction       :            0.00516434 Eh               0.14053 eV
Free-energy (cav+disp)  :           -0.00902065 Eh              -0.24546 eV

---------------
SCF CONVERGENCE
---------------

  Last Energy change         ...    1.1979e-08  Tolerance :   1.0000e-08
  Last MAX-Density change    ...    1.6653e-15  Tolerance :   1.0000e-07
  Last RMS-Density change    ...    1.2195e-17  Tolerance :   5.0000e-09
  Last Orbital Gradient      ...    9.1017e-07  Tolerance :   1.0000e-05
  Last Orbital Rotation      ...    3.8766e-06  Tolerance :   1.0000e-05

             **** THE GBW FILE WAS UPDATED (BOH-Acr_p_M06L_def2TZVP_coords.gbw) ****
             **** DENSITY BOH-Acr_p_M06L_def2TZVP_coords.scfp WAS UPDATED ****
             **** ENERGY FILE WAS UPDATED (BOH-Acr_p_M06L_def2TZVP_coords.en.tmp) ****
             **** THE GBW FILE WAS UPDATED (BOH-Acr_p_M06L_def2TZVP_coords.gbw) ****
             **** DENSITY BOH-Acr_p_M06L_def2TZVP_coords.scfp WAS UPDATED ****
----------------
ORBITAL ENERGIES
----------------

  NO   OCC          E(Eh)            E(eV) 
   0   2.0000     -19.832663      -539.6742 
   1   2.0000     -19.810465      -539.0702 
   2   2.0000     -19.805425      -538.9330 
   3   2.0000     -15.013418      -408.5359 
   4   2.0000     -10.783646      -293.4379 
   5   2.0000     -10.783606      -293.4368 
   6   2.0000     -10.771392      -293.1045 
   7   2.0000     -10.765496      -292.9440 
   8   2.0000     -10.738207      -292.2015 
   9   2.0000     -10.734175      -292.0917 
  10   2.0000     -10.734157      -292.0913 
  11   2.0000     -10.726923      -291.8944 
  12   2.0000     -10.721202      -291.7387 
  13   2.0000     -10.718148      -291.6556 
  14   2.0000     -10.718128      -291.6551 
  15   2.0000     -10.714071      -291.5447 
  16   2.0000     -10.714056      -291.5443 
  17   2.0000     -10.707415      -291.3636 
  18   2.0000     -10.706481      -291.3381 
  19   2.0000     -10.705987      -291.3247 
  20   2.0000     -10.705970      -291.3242 
  21   2.0000     -10.702161      -291.2206 
  22   2.0000     -10.701707      -291.2082 
  23   2.0000     -10.701693      -291.2079 
  24   2.0000     -10.701333      -291.1981 
  25   2.0000     -10.700709      -291.1811 
  26   2.0000     -10.697633      -291.0974 
  27   2.0000     -10.695441      -291.0378 
  28   2.0000     -10.694125      -291.0019 
  29   2.0000     -10.683969      -290.7256 
  30   2.0000      -7.212560      -196.2637 
  31   2.0000      -1.302382       -35.4396 
  32   2.0000      -1.266064       -34.4514 
  33   2.0000      -1.252240       -34.0752 
  34   2.0000      -1.227936       -33.4138 
  35   2.0000      -1.116709       -30.3872 
  36   2.0000      -1.099348       -29.9148 
  37   2.0000      -1.083321       -29.4787 
  38   2.0000      -1.069871       -29.1127 
  39   2.0000      -1.038301       -28.2536 
  40   2.0000      -0.988645       -26.9024 
  41   2.0000      -0.974873       -26.5276 
  42   2.0000      -0.970899       -26.4195 
  43   2.0000      -0.962379       -26.1877 
  44   2.0000      -0.954625       -25.9767 
  45   2.0000      -0.952618       -25.9221 
  46   2.0000      -0.936849       -25.4930 
  47   2.0000      -0.887912       -24.1613 
  48   2.0000      -0.868113       -23.6225 
  49   2.0000      -0.842271       -22.9194 
  50   2.0000      -0.830173       -22.5902 
  51   2.0000      -0.802341       -21.8328 
  52   2.0000      -0.792183       -21.5564 
  53   2.0000      -0.786039       -21.3892 
  54   2.0000      -0.782676       -21.2977 
  55   2.0000      -0.753823       -20.5126 
  56   2.0000      -0.736171       -20.0322 
  57   2.0000      -0.733211       -19.9517 
  58   2.0000      -0.724060       -19.7027 
  59   2.0000      -0.710994       -19.3471 
  60   2.0000      -0.704109       -19.1598 
  61   2.0000      -0.686260       -18.6741 
  62   2.0000      -0.672208       -18.2917 
  63   2.0000      -0.662956       -18.0399 
  64   2.0000      -0.651600       -17.7309 
  65   2.0000      -0.636649       -17.3241 
  66   2.0000      -0.633295       -17.2328 
  67   2.0000      -0.629708       -17.1352 
  68   2.0000      -0.622803       -16.9473 
  69   2.0000      -0.613812       -16.7027 
  70   2.0000      -0.602287       -16.3891 
  71   2.0000      -0.600784       -16.3482 
  72   2.0000      -0.597197       -16.2506 
  73   2.0000      -0.596230       -16.2242 
  74   2.0000      -0.590988       -16.0816 
  75   2.0000      -0.586844       -15.9688 
  76   2.0000      -0.577424       -15.7125 
  77   2.0000      -0.574589       -15.6354 
  78   2.0000      -0.567744       -15.4491 
  79   2.0000      -0.553558       -15.0631 
  80   2.0000      -0.549400       -14.9499 
  81   2.0000      -0.543109       -14.7787 
  82   2.0000      -0.535121       -14.5614 
  83   2.0000      -0.531262       -14.4564 
  84   2.0000      -0.525239       -14.2925 
  85   2.0000      -0.524547       -14.2736 
  86   2.0000      -0.524213       -14.2646 
  87   2.0000      -0.512317       -13.9409 
  88   2.0000      -0.506718       -13.7885 
  89   2.0000      -0.499736       -13.5985 
  90   2.0000      -0.494721       -13.4620 
  91   2.0000      -0.485392       -13.2082 
  92   2.0000      -0.482347       -13.1253 
  93   2.0000      -0.475668       -12.9436 
  94   2.0000      -0.471032       -12.8174 
  95   2.0000      -0.464087       -12.6285 
  96   2.0000      -0.460776       -12.5383 
  97   2.0000      -0.457878       -12.4595 
  98   2.0000      -0.436843       -11.8871 
  99   2.0000      -0.387284       -10.5385 
 100   2.0000      -0.366534        -9.9739 
 101   2.0000      -0.362588        -9.8665 
 102   2.0000      -0.361786        -9.8447 
 103   2.0000      -0.356385        -9.6977 
 104   2.0000      -0.334895        -9.1130 
 105   2.0000      -0.325088        -8.8461 
 106   0.0000      -0.038052        -1.0354 
 107   0.0000       0.040639         1.1058 
 108   0.0000       0.046299         1.2598 
 109   0.0000       0.060788         1.6541 
 110   0.0000       0.078039         2.1236 
 111   0.0000       0.082449         2.2435 
 112   0.0000       0.092182         2.5084 
 113   0.0000       0.096919         2.6373 
 114   0.0000       0.099540         2.7086 
 115   0.0000       0.120076         3.2674 
 116   0.0000       0.127687         3.4745 
 117   0.0000       0.131592         3.5808 
 118   0.0000       0.138525         3.7694 
 119   0.0000       0.142430         3.8757 
 120   0.0000       0.143471         3.9041 
 121   0.0000       0.145430         3.9574 
 122   0.0000       0.151480         4.1220 
 123   0.0000       0.153118         4.1666 
 124   0.0000       0.158546         4.3143 
 125   0.0000       0.162224         4.4143 
 126   0.0000       0.164768         4.4836 
 127   0.0000       0.170748         4.6463 
 128   0.0000       0.175229         4.7682 
 129   0.0000       0.179151         4.8750 
 130   0.0000       0.185753         5.0546 
 131   0.0000       0.188298         5.1239 
 132   0.0000       0.195954         5.3322 
 133   0.0000       0.199207         5.4207 
 134   0.0000       0.199569         5.4305 
 135   0.0000       0.206468         5.6183 
 136   0.0000       0.209629         5.7043 
 137   0.0000       0.211349         5.7511 
 138   0.0000       0.211965         5.7679 
 139   0.0000       0.218922         5.9572 
 140   0.0000       0.225442         6.1346 
 141   0.0000       0.231194         6.2911 
 142   0.0000       0.240488         6.5440 
 143   0.0000       0.245357         6.6765 
 144   0.0000       0.249764         6.7964 
 145   0.0000       0.251631         6.8472 
 146   0.0000       0.253643         6.9020 
 147   0.0000       0.260820         7.0973 
 148   0.0000       0.266396         7.2490 
 149   0.0000       0.271113         7.3774 
 150   0.0000       0.278038         7.5658 
 151   0.0000       0.283000         7.7008 
 152   0.0000       0.287679         7.8282 
 153   0.0000       0.290532         7.9058 
 154   0.0000       0.292860         7.9691 
 155   0.0000       0.296155         8.0588 
 156   0.0000       0.301540         8.2053 
 157   0.0000       0.303513         8.2590 
 158   0.0000       0.305144         8.3034 
 159   0.0000       0.308160         8.3855 
 160   0.0000       0.312616         8.5067 
 161   0.0000       0.315569         8.5871 
 162   0.0000       0.319877         8.7043 
 163   0.0000       0.324166         8.8210 
 164   0.0000       0.328246         8.9320 
 165   0.0000       0.329075         8.9546 
 166   0.0000       0.333183         9.0664 
 167   0.0000       0.336404         9.1540 
 168   0.0000       0.338542         9.2122 
 169   0.0000       0.339562         9.2399 
 170   0.0000       0.343383         9.3439 
 171   0.0000       0.344681         9.3792 
 172   0.0000       0.354928         9.6581 
 173   0.0000       0.361002         9.8234 
 174   0.0000       0.361510         9.8372 
 175   0.0000       0.363766         9.8986 
 176   0.0000       0.367200         9.9920 
 177   0.0000       0.369838        10.0638 
 178   0.0000       0.375442        10.2163 
 179   0.0000       0.380606        10.3568 
 180   0.0000       0.382857        10.4181 
 181   0.0000       0.386607        10.5201 
 182   0.0000       0.392778        10.6880 
 183   0.0000       0.395295        10.7565 
 184   0.0000       0.398891        10.8544 
 185   0.0000       0.399360        10.8671 
 186   0.0000       0.401918        10.9367 
 187   0.0000       0.403380        10.9765 
 188   0.0000       0.407629        11.0921 
 189   0.0000       0.418761        11.3951 
 190   0.0000       0.420534        11.4433 
 191   0.0000       0.426256        11.5990 
 192   0.0000       0.427585        11.6352 
 193   0.0000       0.431752        11.7486 
 194   0.0000       0.432861        11.7787 
 195   0.0000       0.439673        11.9641 
 196   0.0000       0.444297        12.0899 
 197   0.0000       0.446397        12.1471 
 198   0.0000       0.449061        12.2196 
 199   0.0000       0.452505        12.3133 
 200   0.0000       0.457016        12.4360 
 201   0.0000       0.466278        12.6881 
 202   0.0000       0.467637        12.7251 
 203   0.0000       0.470049        12.7907 
 204   0.0000       0.470752        12.8098 
 205   0.0000       0.475424        12.9369 
 206   0.0000       0.478724        13.0267 
 207   0.0000       0.480412        13.0727 
 208   0.0000       0.483703        13.1622 
 209   0.0000       0.489650        13.3241 
 210   0.0000       0.491910        13.3855 
 211   0.0000       0.498498        13.5648 
 212   0.0000       0.500697        13.6246 
 213   0.0000       0.502530        13.6745 
 214   0.0000       0.506116        13.7721 
 215   0.0000       0.508141        13.8272 
 216   0.0000       0.513401        13.9703 
 217   0.0000       0.515420        14.0253 
 218   0.0000       0.517909        14.0930 
 219   0.0000       0.518543        14.1103 
 220   0.0000       0.522256        14.2113 
 221   0.0000       0.525095        14.2886 
 222   0.0000       0.528770        14.3886 
 223   0.0000       0.530954        14.4480 
 224   0.0000       0.533148        14.5077 
 225   0.0000       0.535450        14.5703 
 226   0.0000       0.539210        14.6727 
 227   0.0000       0.544801        14.8248 
 228   0.0000       0.546557        14.8726 
 229   0.0000       0.551351        15.0030 
 230   0.0000       0.553736        15.0679 
 231   0.0000       0.554358        15.0848 
 232   0.0000       0.556600        15.1459 
 233   0.0000       0.564956        15.3732 
 234   0.0000       0.567570        15.4444 
 235   0.0000       0.570675        15.5289 
 236   0.0000       0.573657        15.6100 
 237   0.0000       0.579692        15.7742 
 238   0.0000       0.584395        15.9022 
 239   0.0000       0.584463        15.9040 
 240   0.0000       0.587287        15.9809 
 241   0.0000       0.589378        16.0378 
 242   0.0000       0.593214        16.1422 
 243   0.0000       0.594799        16.1853 
 244   0.0000       0.596375        16.2282 
 245   0.0000       0.601724        16.3737 
 246   0.0000       0.607326        16.5262 
 247   0.0000       0.609709        16.5910 
 248   0.0000       0.613126        16.6840 
 249   0.0000       0.615912        16.7598 
 250   0.0000       0.617143        16.7933 
 251   0.0000       0.620543        16.8858 
 252   0.0000       0.621078        16.9004 
 253   0.0000       0.624627        16.9970 
 254   0.0000       0.627993        17.0886 
 255   0.0000       0.637946        17.3594 
 256   0.0000       0.646074        17.5806 
 257   0.0000       0.649068        17.6620 
 258   0.0000       0.656666        17.8688 
 259   0.0000       0.663563        18.0565 
 260   0.0000       0.667943        18.1756 
 261   0.0000       0.668535        18.1918 
 262   0.0000       0.673311        18.3217 
 263   0.0000       0.677248        18.4288 
 264   0.0000       0.682139        18.5619 
 265   0.0000       0.694127        18.8882 
 266   0.0000       0.698685        19.0122 
 267   0.0000       0.703260        19.1367 
 268   0.0000       0.705637        19.2014 
 269   0.0000       0.709308        19.3012 
 270   0.0000       0.715269        19.4635 
 271   0.0000       0.721626        19.6364 
 272   0.0000       0.723339        19.6830 
 273   0.0000       0.730952        19.8902 
 274   0.0000       0.733022        19.9466 
 275   0.0000       0.734840        19.9960 
 276   0.0000       0.743361        20.2279 
 277   0.0000       0.745451        20.2848 
 278   0.0000       0.748459        20.3666 
 279   0.0000       0.750296        20.4166 
 280   0.0000       0.754933        20.5428 
 281   0.0000       0.765238        20.8232 
 282   0.0000       0.766940        20.8695 
 283   0.0000       0.768952        20.9242 
 284   0.0000       0.773832        21.0570 
 285   0.0000       0.776609        21.1326 
 286   0.0000       0.780863        21.2484 
 287   0.0000       0.784801        21.3555 
 288   0.0000       0.787097        21.4180 
 289   0.0000       0.793146        21.5826 
 290   0.0000       0.797171        21.6921 
 291   0.0000       0.797651        21.7052 
 292   0.0000       0.804374        21.8881 
 293   0.0000       0.807871        21.9833 
 294   0.0000       0.811600        22.0847 
 295   0.0000       0.819259        22.2932 
 296   0.0000       0.824693        22.4410 
 297   0.0000       0.827403        22.5148 
 298   0.0000       0.832933        22.6653 
 299   0.0000       0.835954        22.7475 
 300   0.0000       0.837616        22.7927 
 301   0.0000       0.841859        22.9081 
 302   0.0000       0.846772        23.0418 
 303   0.0000       0.851276        23.1644 
 304   0.0000       0.855140        23.2695 
 305   0.0000       0.856731        23.3128 
 306   0.0000       0.864887        23.5348 
 307   0.0000       0.868735        23.6395 
 308   0.0000       0.869856        23.6700 
 309   0.0000       0.873150        23.7596 
 310   0.0000       0.877245        23.8711 
 311   0.0000       0.878522        23.9058 
 312   0.0000       0.880917        23.9710 
 313   0.0000       0.886395        24.1200 
 314   0.0000       0.887867        24.1601 
 315   0.0000       0.893316        24.3084 
 316   0.0000       0.894798        24.3487 
 317   0.0000       0.899826        24.4855 
 318   0.0000       0.912370        24.8269 
 319   0.0000       0.914755        24.8917 
 320   0.0000       0.921664        25.0797 
 321   0.0000       0.925872        25.1943 
 322   0.0000       0.931980        25.3605 
 323   0.0000       0.936167        25.4744 
 324   0.0000       0.937600        25.5134 
 325   0.0000       0.942349        25.6426 
 326   0.0000       0.950925        25.8760 
 327   0.0000       0.955495        26.0003 
 328   0.0000       0.955832        26.0095 
 329   0.0000       0.965295        26.2670 
 330   0.0000       0.974597        26.5201 
 331   0.0000       0.979908        26.6646 
 332   0.0000       0.982488        26.7349 
 333   0.0000       0.987792        26.8792 
 334   0.0000       0.988611        26.9015 
 335   0.0000       0.992328        27.0026 
 336   0.0000       1.001062        27.2403 
 337   0.0000       1.002292        27.2738 
 338   0.0000       1.008108        27.4320 
 339   0.0000       1.012043        27.5391 
 340   0.0000       1.015382        27.6299 
 341   0.0000       1.021415        27.7941 
 342   0.0000       1.025096        27.8943 
 343   0.0000       1.026251        27.9257 
 344   0.0000       1.030428        28.0394 
 345   0.0000       1.032314        28.0907 
 346   0.0000       1.035023        28.1644 
 347   0.0000       1.043806        28.4034 
 348   0.0000       1.055083        28.7103 
 349   0.0000       1.060658        28.8620 
 350   0.0000       1.068077        29.0639 
 351   0.0000       1.072768        29.1915 
 352   0.0000       1.075049        29.2536 
 353   0.0000       1.086358        29.5613 
 354   0.0000       1.088473        29.6189 
 355   0.0000       1.092677        29.7333 
 356   0.0000       1.097306        29.8592 
 357   0.0000       1.106682        30.1143 
 358   0.0000       1.112645        30.2766 
 359   0.0000       1.120142        30.4806 
 360   0.0000       1.123560        30.5736 
 361   0.0000       1.130703        30.7680 
 362   0.0000       1.135439        30.8969 
 363   0.0000       1.138676        30.9850 
 364   0.0000       1.158749        31.5312 
 365   0.0000       1.167662        31.7737 
 366   0.0000       1.174899        31.9706 
 367   0.0000       1.178843        32.0779 
 368   0.0000       1.180523        32.1237 
 369   0.0000       1.187643        32.3174 
 370   0.0000       1.194551        32.5054 
 371   0.0000       1.196745        32.5651 
 372   0.0000       1.197555        32.5871 
 373   0.0000       1.211412        32.9642 
 374   0.0000       1.213576        33.0231 
 375   0.0000       1.216568        33.1045 
 376   0.0000       1.227710        33.4077 
 377   0.0000       1.229850        33.4659 
 378   0.0000       1.234859        33.6022 
 379   0.0000       1.244083        33.8532 
 380   0.0000       1.250210        34.0199 
 381   0.0000       1.254459        34.1356 
 382   0.0000       1.256088        34.1799 
 383   0.0000       1.270435        34.5703 
 384   0.0000       1.273586        34.6560 
 385   0.0000       1.274477        34.6803 
 386   0.0000       1.288291        35.0562 
 387   0.0000       1.298214        35.3262 
 388   0.0000       1.299699        35.3666 
 389   0.0000       1.316753        35.8307 
 390   0.0000       1.320562        35.9343 
 391   0.0000       1.323448        36.0129 
 392   0.0000       1.337264        36.3888 
 393   0.0000       1.340232        36.4696 
 394   0.0000       1.348876        36.7048 
 395   0.0000       1.353828        36.8395 
 396   0.0000       1.357309        36.9343 
 397   0.0000       1.364789        37.1378 
 398   0.0000       1.371113        37.3099 
 399   0.0000       1.380541        37.5664 
 400   0.0000       1.381862        37.6024 
 401   0.0000       1.391777        37.8722 
 402   0.0000       1.393739        37.9256 
 403   0.0000       1.398935        38.0669 
 404   0.0000       1.401497        38.1367 
 405   0.0000       1.404713        38.2242 
 406   0.0000       1.415771        38.5251 
 407   0.0000       1.420185        38.6452 
 408   0.0000       1.425065        38.7780 
 409   0.0000       1.430511        38.9262 
 410   0.0000       1.436427        39.0872 
 411   0.0000       1.440229        39.1906 
 412   0.0000       1.441857        39.2349 
 413   0.0000       1.448736        39.4221 
 414   0.0000       1.451774        39.5048 
 415   0.0000       1.454631        39.5825 
 416   0.0000       1.463043        39.8114 
 417   0.0000       1.464378        39.8478 
 418   0.0000       1.468426        39.9579 
 419   0.0000       1.471506        40.0417 
 420   0.0000       1.480459        40.2853 
 421   0.0000       1.490094        40.5475 
 422   0.0000       1.500140        40.8209 
 423   0.0000       1.500975        40.8436 
 424   0.0000       1.510294        41.0972 
 425   0.0000       1.518538        41.3215 
 426   0.0000       1.522174        41.4205 
 427   0.0000       1.535719        41.7890 
 428   0.0000       1.545425        42.0532 
 429   0.0000       1.559330        42.4315 
 430   0.0000       1.561051        42.4784 
 431   0.0000       1.561494        42.4904 
 432   0.0000       1.570566        42.7373 
 433   0.0000       1.576036        42.8861 
 434   0.0000       1.587846        43.2075 
 435   0.0000       1.597747        43.4769 
 436   0.0000       1.600515        43.5522 
 437   0.0000       1.608033        43.7568 
 438   0.0000       1.608797        43.7776 
 439   0.0000       1.618601        44.0444 
 440   0.0000       1.624419        44.2027 
 441   0.0000       1.634152        44.4675 
 442   0.0000       1.641590        44.6699 
 443   0.0000       1.646761        44.8106 
 444   0.0000       1.647121        44.8204 
 445   0.0000       1.657604        45.1057 
 446   0.0000       1.664932        45.3051 
 447   0.0000       1.668282        45.3963 
 448   0.0000       1.674345        45.5612 
 449   0.0000       1.677261        45.6406 
 450   0.0000       1.680997        45.7423 
 451   0.0000       1.683896        45.8211 
 452   0.0000       1.690346        45.9966 
 453   0.0000       1.696231        46.1568 
 454   0.0000       1.700360        46.2692 
 455   0.0000       1.706948        46.4484 
 456   0.0000       1.713891        46.6374 
 457   0.0000       1.716241        46.7013 
 458   0.0000       1.718253        46.7561 
 459   0.0000       1.722454        46.8703 
 460   0.0000       1.727045        46.9953 
 461   0.0000       1.730476        47.0886 
 462   0.0000       1.735576        47.2274 
 463   0.0000       1.743081        47.4316 
 464   0.0000       1.744636        47.4740 
 465   0.0000       1.746920        47.5361 
 466   0.0000       1.750710        47.6392 
 467   0.0000       1.753847        47.7246 
 468   0.0000       1.755525        47.7703 
 469   0.0000       1.761178        47.9241 
 470   0.0000       1.765030        48.0289 
 471   0.0000       1.770718        48.1837 
 472   0.0000       1.782311        48.4991 
 473   0.0000       1.784877        48.5690 
 474   0.0000       1.790564        48.7237 
 475   0.0000       1.791992        48.7626 
 476   0.0000       1.795820        48.8668 
 477   0.0000       1.802029        49.0357 
 478   0.0000       1.811137        49.2836 
 479   0.0000       1.816267        49.4231 
 480   0.0000       1.822253        49.5860 
 481   0.0000       1.828724        49.7621 
 482   0.0000       1.831908        49.8487 
 483   0.0000       1.832780        49.8725 
 484   0.0000       1.840065        50.0707 
 485   0.0000       1.846855        50.2555 
 486   0.0000       1.853120        50.4260 
 487   0.0000       1.859263        50.5931 
 488   0.0000       1.865367        50.7592 
 489   0.0000       1.870937        50.9108 
 490   0.0000       1.878324        51.1118 
 491   0.0000       1.880259        51.1645 
 492   0.0000       1.883314        51.2476 
 493   0.0000       1.890995        51.4566 
 494   0.0000       1.893678        51.5296 
 495   0.0000       1.897864        51.6435 
 496   0.0000       1.904730        51.8303 
 497   0.0000       1.913128        52.0589 
 498   0.0000       1.914251        52.0894 
 499   0.0000       1.918657        52.2093 
 500   0.0000       1.922503        52.3140 
 501   0.0000       1.923994        52.3545 
 502   0.0000       1.934611        52.6434 
 503   0.0000       1.938325        52.7445 
 504   0.0000       1.943474        52.8846 
 505   0.0000       1.945669        52.9443 
 506   0.0000       1.951178        53.0942 
 507   0.0000       1.959783        53.3284 
 508   0.0000       1.961852        53.3847 
 509   0.0000       1.975196        53.7478 
 510   0.0000       1.976874        53.7935 
 511   0.0000       1.984149        53.9914 
[...]
   105a -> 108a  :     0.048448 
   105a -> 113a  :     0.010825 
   105a -> 119a  :     0.015324 
   105a -> 120a  :     0.011095 
   105a -> 121a  :     0.017721 

STATE 15:  E=   0.220620 au      6.003 eV    48420.5 cm**-1 <S**2> =   0.000000
    99a -> 106a  :     0.109978 
    99a -> 108a  :     0.015986 
    99a -> 113a  :     0.073092 
   101a -> 108a  :     0.018650 
   101a -> 113a  :     0.013004 
   105a -> 107a  :     0.031149 
   105a -> 109a  :     0.492478 
   105a -> 112a  :     0.115578 

STATE 16:  E=   0.228721 au      6.224 eV    50198.6 cm**-1 <S**2> =   0.000000
    92a -> 106a  :     0.044152 
    93a -> 106a  :     0.015082 
    95a -> 106a  :     0.013365 
    98a -> 106a  :     0.290387 
    99a -> 107a  :     0.075116 
    99a -> 110a  :     0.010531 
   101a -> 107a  :     0.123037 
   102a -> 107a  :     0.080479 
   103a -> 107a  :     0.119466 
   103a -> 110a  :     0.029964 
   105a -> 108a  :     0.030969 

STATE 17:  E=   0.224525 au      6.110 eV    49277.6 cm**-1 <S**2> =   0.000000
    77a -> 106a  :     0.012298 
    91a -> 106a  :     0.404296 
    92a -> 106a  :     0.029552 
    97a -> 106a  :     0.335922 
    97a -> 108a  :     0.013181 
   103a -> 108a  :     0.013569 

STATE 18:  E=   0.235840 au      6.418 eV    51760.8 cm**-1 <S**2> =   0.000000
    98a -> 106a  :     0.061819 
    99a -> 109a  :     0.028488 
    99a -> 112a  :     0.023335 
   100a -> 110a  :     0.014676 
   101a -> 108a  :     0.049077 
   101a -> 109a  :     0.032338 
   101a -> 110a  :     0.031622 
   102a -> 108a  :     0.083440 
   102a -> 109a  :     0.015080 
   102a -> 110a  :     0.017197 
   103a -> 107a  :     0.147829 
   103a -> 109a  :     0.034834 
   103a -> 110a  :     0.011727 
   105a -> 108a  :     0.100435 
   105a -> 113a  :     0.244225 

STATE 19:  E=   0.243255 au      6.619 eV    53388.2 cm**-1 <S**2> =   0.000000
    92a -> 106a  :     0.011402 
    99a -> 109a  :     0.021981 
    99a -> 110a  :     0.013089 
    99a -> 112a  :     0.010881 
   100a -> 107a  :     0.141943 
   100a -> 109a  :     0.147241 
   100a -> 110a  :     0.144599 
   100a -> 112a  :     0.032475 
   101a -> 109a  :     0.042755 
   101a -> 112a  :     0.025491 
   102a -> 109a  :     0.018247 
   102a -> 112a  :     0.013336 
   103a -> 107a  :     0.023359 
   103a -> 109a  :     0.022840 
   103a -> 110a  :     0.014018 
   104a -> 110a  :     0.011937 
   104a -> 111a  :     0.175280 

STATE 20:  E=   0.242669 au      6.603 eV    53259.6 cm**-1 <S**2> =   0.000000
    91a -> 106a  :     0.048662 
    97a -> 106a  :     0.015413 
   100a -> 108a  :     0.040413 
   101a -> 107a  :     0.011178 
   101a -> 108a  :     0.069770 
   101a -> 109a  :     0.061940 
   101a -> 110a  :     0.070744 
   101a -> 111a  :     0.017163 
   101a -> 112a  :     0.014941 
   102a -> 107a  :     0.020051 
   102a -> 108a  :     0.030772 
   102a -> 109a  :     0.111440 
   102a -> 110a  :     0.148206 
   102a -> 111a  :     0.012809 
   102a -> 112a  :     0.028996 
   103a -> 108a  :     0.099880 
   105a -> 107a  :     0.010605 
   105a -> 110a  :     0.061618 
   105a -> 111a  :     0.010448 
   105a -> 112a  :     0.032008 

STATE 21:  E=   0.243553 au      6.627 eV    53453.7 cm**-1 <S**2> =   0.000000
    92a -> 106a  :     0.024697 
    98a -> 106a  :     0.091195 
    99a -> 107a  :     0.043571 
   100a -> 109a  :     0.080333 
   100a -> 111a  :     0.033429 
   100a -> 112a  :     0.011756 
   101a -> 107a  :     0.011885 
   101a -> 108a  :     0.016129 
   101a -> 109a  :     0.043114 
   101a -> 110a  :     0.097682 
   102a -> 108a  :     0.033961 
   102a -> 109a  :     0.021372 
   102a -> 110a  :     0.032830 
   103a -> 110a  :     0.075849 
   103a -> 111a  :     0.012219 
   103a -> 112a  :     0.041886 
   104a -> 107a  :     0.010552 
   104a -> 111a  :     0.018162 
   105a -> 108a  :     0.166282 

STATE 22:  E=   0.244465 au      6.652 eV    53654.0 cm**-1 <S**2> =   0.000000
    99a -> 111a  :     0.052274 
   100a -> 109a  :     0.012631 
   100a -> 110a  :     0.025945 
   100a -> 111a  :     0.426491 
   100a -> 112a  :     0.027323 
   101a -> 111a  :     0.074710 
   102a -> 111a  :     0.034743 
   104a -> 107a  :     0.224664 
   104a -> 109a  :     0.022144 

STATE 23:  E=   0.247586 au      6.737 eV    54338.9 cm**-1 <S**2> =   0.000000
    86a -> 106a  :     0.012653 
    92a -> 107a  :     0.011257 
    98a -> 107a  :     0.031532 
    98a -> 109a  :     0.060716 
    98a -> 112a  :     0.027921 
   100a -> 108a  :     0.015873 
   100a -> 113a  :     0.020985 
   101a -> 107a  :     0.017183 
   101a -> 108a  :     0.043453 
   101a -> 113a  :     0.042323 
   102a -> 107a  :     0.031049 
   102a -> 108a  :     0.037591 
   102a -> 109a  :     0.010736 
   102a -> 113a  :     0.038975 
   103a -> 108a  :     0.165345 
   103a -> 113a  :     0.299936 
   105a -> 107a  :     0.026606 
   105a -> 109a  :     0.014630 

STATE 24:  E=   0.244081 au      6.642 eV    53569.6 cm**-1 <S**2> =   0.000000
    64a -> 106a  :     0.017934 
    75a -> 106a  :     0.017605 
    83a -> 109a  :     0.011405 
    83a -> 112a  :     0.016672 
    87a -> 106a  :     0.028867 
    88a -> 106a  :     0.011269 
    89a -> 106a  :     0.673365 
    90a -> 106a  :     0.012401 
    92a -> 106a  :     0.026792 
    93a -> 106a  :     0.029886 
    96a -> 106a  :     0.024641 

STATE 25:  E=   0.238158 au      6.481 eV    52269.6 cm**-1 <S**2> =   0.000000
    96a -> 107a  :     0.023626 
   100a -> 111a  :     0.072930 
   101a -> 111a  :     0.012199 
   104a -> 107a  :     0.525796 
   104a -> 109a  :     0.190194 
   104a -> 110a  :     0.086147 
   104a -> 111a  :     0.014352 

STATE 26:  E=   0.250939 au      6.828 eV    55074.8 cm**-1 <S**2> =   0.000000
    88a -> 106a  :     0.011357 
    90a -> 106a  :     0.062155 
    92a -> 106a  :     0.063764 
    93a -> 108a  :     0.047895 
    95a -> 106a  :     0.017622 
    98a -> 106a  :     0.020179 
    98a -> 108a  :     0.037460 
    99a -> 109a  :     0.020980 
    99a -> 112a  :     0.011172 
   100a -> 109a  :     0.017408 
   101a -> 108a  :     0.034895 
   102a -> 108a  :     0.055709 
   105a -> 108a  :     0.232560 
   105a -> 111a  :     0.016460 
   105a -> 113a  :     0.191864 

STATE 27:  E=   0.252434 au      6.869 eV    55403.0 cm**-1 <S**2> =   0.000000
    91a -> 106a  :     0.017313 
    92a -> 111a  :     0.013914 
    95a -> 111a  :     0.020720 
    97a -> 108a  :     0.065818 
   104a -> 111a  :     0.019960 
   105a -> 108a  :     0.010251 
   105a -> 109a  :     0.031315 
   105a -> 110a  :     0.189532 
   105a -> 111a  :     0.460663 
   105a -> 112a  :     0.010026 

STATE 28:  E=   0.251705 au      6.849 eV    55242.8 cm**-1 <S**2> =   0.000000
    85a -> 106a  :     0.048435 
    87a -> 106a  :     0.087282 
    88a -> 106a  :     0.013509 
    89a -> 106a  :     0.019100 
    90a -> 106a  :     0.398553 
    91a -> 107a  :     0.026529 
    91a -> 109a  :     0.015940 
    91a -> 112a  :     0.022698 
    92a -> 106a  :     0.013231 
    96a -> 106a  :     0.026470 
    97a -> 106a  :     0.010168 
    97a -> 108a  :     0.079601 
   105a -> 108a  :     0.018203 
   105a -> 111a  :     0.019200 

STATE 29:  E=   0.254214 au      6.918 eV    55793.5 cm**-1 <S**2> =   0.000000
    87a -> 106a  :     0.016588 
    90a -> 106a  :     0.069451 
    91a -> 106a  :     0.099521 
    91a -> 108a  :     0.018790 
    97a -> 106a  :     0.061257 
    97a -> 108a  :     0.458563 
    97a -> 113a  :     0.018251 
   105a -> 110a  :     0.018583 
   105a -> 111a  :     0.060249 

STATE 30:  E=   0.258639 au      7.038 eV    56764.7 cm**-1 <S**2> =   0.000000
    95a -> 109a  :     0.011907 
    98a -> 107a  :     0.027179 
    99a -> 108a  :     0.018565 
    99a -> 113a  :     0.011166 
   100a -> 108a  :     0.017495 
   101a -> 107a  :     0.046400 
   101a -> 108a  :     0.011422 
   102a -> 107a  :     0.096272 
   102a -> 110a  :     0.020730 
   103a -> 108a  :     0.057720 
   105a -> 107a  :     0.022248 
   105a -> 109a  :     0.103587 
   105a -> 110a  :     0.072458 
   105a -> 111a  :     0.127955 
   105a -> 112a  :     0.156114 


-------------------------
TD-DFT-EXCITATION SPECTRA
-------------------------

Center of mass = (  0.0850, -0.0018,  0.0100)
Calculating the Dipole integrals                  ... done
Transforming integrals                            ... done
Calculating the Linear Momentum integrals         ... done
Transforming integrals                            ... done
Calculating angular momentum integrals            ... done
Transforming integrals                            ... done

-----------------------------------------------------------------------------
         ABSORPTION SPECTRUM VIA TRANSITION ELECTRIC DIPOLE MOMENTS
-----------------------------------------------------------------------------
State   Energy    Wavelength  fosc         T2        TX        TY        TZ  
        (cm-1)      (nm)                 (au**2)    (au)      (au)      (au) 
-----------------------------------------------------------------------------
   1   26178.5    382.0   0.309285848   3.88948  -1.97199  -0.00625   0.02601
   2   31110.7    321.4   0.357708208   3.78525   0.00735  -1.94290   0.10172
   3   35439.6    282.2   0.105553349   0.98052  -0.04085  -0.98882   0.03302
   4   35594.0    280.9   0.181047562   1.67452  -1.29364   0.02943   0.01188
   5   34048.3    293.7   0.006583547   0.06366  -0.24143   0.07323  -0.00157
   6   37627.8    265.8   0.032086903   0.28073   0.00145   0.27722  -0.45153
   7   40848.4    244.8   0.034405820   0.27729  -0.06776   0.02107  -0.52178
   8   42571.6    234.9   1.285574393   9.94152  -0.01106   3.14858  -0.16689
   9   43047.7    232.3   0.028318538   0.21657   0.11145   0.44983   0.04239
  10   46891.0    213.3   0.154541458   1.08500  -1.03853   0.02965  -0.07473
  11   47541.9    210.3   0.043769030   0.30309   0.51998   0.00871   0.18064
  12   43333.3    230.8   0.060495078   0.45959   0.03860  -0.67280  -0.07377
  13   48601.3    205.8   0.076372952   0.51733  -0.71665  -0.01031   0.06027
  14   47534.4    210.4   0.063578007   0.44033   0.66226  -0.00047  -0.04164
  15   48420.5    206.5   0.027502146   0.18699   0.00108   0.31605   0.29512
  16   50198.6    199.2   0.010844322   0.07112  -0.26664  -0.00437   0.00206
  17   49277.6    202.9   0.021012364   0.14038   0.03023   0.15384   0.34029
  18   51760.8    193.2   1.452245499   9.23665  -3.03882   0.00009   0.04712
  19   53388.2    187.3   1.346891406   8.30544  -2.87712   0.00864   0.16600
  20   53259.6    187.8   0.322244734   1.99188   0.06195   0.78877   1.16871
  21   53453.7    187.1   0.037775904   0.23266   0.32244   0.00909   0.35861
  22   53654.0    186.4   0.391098308   2.39972   0.26951  -0.02714   1.52524
  23   54338.9    184.0   0.129854063   0.78672   0.00525   0.88695  -0.00427
  24   53569.6    186.7   0.001021626   0.00628  -0.06982  -0.00449   0.03719
  25   52269.6    191.3   0.092694168   0.58382   0.01345  -0.00190  -0.76396
  26   55074.8    181.6   0.000989105   0.00591  -0.06936  -0.01228  -0.03082
  27   55403.0    180.5   0.002437793   0.01449  -0.02200   0.06155   0.10106
  28   55242.8    181.0   0.001537414   0.00916   0.00503   0.04384  -0.08494
  29   55793.5    179.2   0.008267954   0.04879   0.02606  -0.10666   0.19165
  30   56764.7    176.2   0.039294879   0.22789  -0.01879   0.47342   0.05845

-----------------------------------------------------------------------------
         ABSORPTION SPECTRUM VIA TRANSITION VELOCITY DIPOLE MOMENTS
-----------------------------------------------------------------------------
State   Energy    Wavelength   fosc        P2         PX        PY        PZ  
        (cm-1)      (nm)                 (au**2)     (au)      (au)      (au) 
-----------------------------------------------------------------------------
   1   26178.5    382.0   0.370353553   0.06626   0.25739   0.00082  -0.00342
   2   31110.7    321.4   0.394457403   0.08387  -0.00109   0.28921  -0.01512
   3   35439.6    282.2   0.121806440   0.02950   0.00697   0.17153  -0.00577
   4   35594.0    280.9   0.207242631   0.05042   0.22447  -0.00510  -0.00197
   5   34048.3    293.7   0.008886044   0.00207   0.04347  -0.01334   0.00034
   6   37627.8    265.8   0.037778514   0.00972  -0.00022  -0.05100   0.08435
   7   40848.4    244.8   0.041144515   0.01149   0.01555  -0.00409   0.10596
   8   42571.6    234.9   1.449783946   0.42182   0.00228  -0.64856   0.03439
   9   43047.7    232.3   0.032374850   0.00952  -0.02383  -0.09423  -0.00887
  10   46891.0    213.3   0.158091058   0.05066   0.22439  -0.00621   0.01654
  11   47541.9    210.3   0.044496390   0.01446  -0.11350  -0.00180  -0.03964
  12   43333.3    230.8   0.075579187   0.02238  -0.00852   0.14845   0.01658
  13   48601.3    205.8   0.080655231   0.02679   0.16309   0.00230  -0.01372
  14   47534.4    210.4   0.075391149   0.02449  -0.15619   0.00014   0.00984
  15   48420.5    206.5   0.032298749   0.01069  -0.00020  -0.07668  -0.06934
  16   50198.6    199.2   0.012185943   0.00418   0.06465   0.00105  -0.00046
  17   49277.6    202.9   0.024504248   0.00825  -0.00738  -0.03766  -0.08234
  18   51760.8    193.2   1.573466842   0.55663   0.74599   0.00005  -0.01150
  19   53388.2    187.3   1.432905877   0.52284   0.72190  -0.00217  -0.04113
  20   53259.6    187.8   0.349115679   0.12708  -0.01543  -0.19908  -0.29531
  21   53453.7    187.1   0.041952267   0.01533  -0.08347  -0.00244  -0.09139
  22   53654.0    186.4   0.427893538   0.15691  -0.07031   0.00695  -0.38976
  23   54338.9    184.0   0.147045601   0.05461  -0.00145  -0.23368   0.00169
  24   53569.6    186.7   0.001192601   0.00044   0.01837   0.00121  -0.00989
  25   52269.6    191.3   0.115646227   0.04131  -0.00254   0.00099   0.20324
  26   55074.8    181.6   0.001063802   0.00040   0.01788   0.00324   0.00838
  27   55403.0    180.5   0.002836140   0.00107   0.00603  -0.01712  -0.02728
  28   55242.8    181.0   0.001866976   0.00070  -0.00136  -0.01260   0.02333
  29   55793.5    179.2   0.009788721   0.00373  -0.00713   0.03031  -0.05257
  30   56764.7    176.2   0.047430639   0.01840   0.00526  -0.13460  -0.01598

-------------------------------------------------------------------
                             CD SPECTRUM
-------------------------------------------------------------------
State  Energy     Wavelength     R         MX        MY        MZ   
       (cm-1)       (nm)     (1e40*cgs)   (au)      (au)      (au)  
-------------------------------------------------------------------
   1   26178.5    382.0    -34.68900   0.03738  -0.02122   0.00036
   2   31110.7    321.4      0.02364   0.00737  -0.01346  -0.25720
   3   35439.6    282.2    -27.61713   0.02576   0.08101   0.68379
   4   35594.0    280.9    -31.26825   0.05096  -0.00425  -0.02318
   5   34048.3    293.7     -5.57215   0.04231  -0.02271  -0.03756
   6   37627.8    265.8    110.65226  -0.01103   0.30061  -0.33527
   7   40848.4    244.8     -0.76698   0.00111  -0.30044  -0.00916
   8   42571.6    234.9      8.70630  -0.03020   0.00471  -0.01970
   9   43047.7    232.3      3.33376  -0.00654   0.01583   0.01598
  10   46891.0    213.3    -16.15070   0.03022  -0.10938  -0.00489
  11   47541.9    210.3      1.79297   0.00183   0.23085   0.00464
  12   43333.3    230.8     15.09554   0.00325  -0.03421  -0.12036
  13   48601.3    205.8     -7.47425   0.02136   0.04077  -0.00210
  14   47534.4    210.4    -12.31715  -0.04005  -0.01206  -0.00948
  15   48420.5    206.5    155.01318   0.02085  -0.19133   1.31896
  16   50198.6    199.2     -0.91352   0.00739  -0.01028  -0.00548
  17   49277.6    202.9     -2.28514   0.00317  -0.25122   0.09905
  18   51760.8    193.2     18.92352  -0.01310  -0.07345   0.00743
  19   53388.2    187.3    -29.10345   0.02211  -0.02310   0.01247
  20   53259.6    187.8    -184.42196   0.01415  -1.46295   0.65189
  21   53453.7    187.1     -3.06288  -0.06178   0.28309   0.03026
  22   53654.0    186.4     33.56845   0.01181   1.61794   0.07338
  23   54338.9    184.0      7.44521  -0.01890   0.01332  -0.95580
  24   53569.6    186.7     -4.95845   0.14791   0.03549  -0.00083
  25   52269.6    191.3      6.53797   0.00872  -0.81037  -0.01598
  26   55074.8    181.6     -2.49648   0.06600  -0.00272   0.02436
  27   55403.0    180.5     -8.54344  -0.24349  -0.15357  -0.13878
  28   55242.8    181.0      2.77380   0.12572   0.07712  -0.02202
  29   55793.5    179.2     15.20995   0.15843  -0.22611   0.02096
  30   56764.7    176.2    -29.11599   0.08206  -0.12704  -0.00127

Total run time:     5978.748 sec

           *** ORCA-CIS/TD-DFT FINISHED WITHOUT ERROR ***

Maximum memory used throughout the entire CIS-calculation: 3815.1 MB

-----------------------
CIS/TD-DFT TOTAL ENERGY
-----------------------

    E(SCF)  =  -1305.147552523 Eh
    DE(CIS) =      0.119277894 Eh (Root  1)
    ----------------------------- ---------
    E(tot)  =  -1305.028274630 Eh


-------------------------   --------------------
FINAL SINGLE POINT ENERGY     -1305.028274629754
-------------------------   --------------------


                            ***************************************
                            *     ORCA property calculations      *
                            ***************************************


  WARNING: The energy has been calculated at the MP2 level but the densities
           used in the property calculations are still SCF densities
           MP2 response densities have not been calculated 
           use %mp2 Density relaxed end
           or  %mp2 Density unrelaxed end

                                    ---------------------
                                    Active property flags
                                    ---------------------
   (+) Dipole Moment


------------------------------------------------------------------------------
                       ORCA ELECTRIC PROPERTIES CALCULATION
------------------------------------------------------------------------------

Dipole Moment Calculation                       ... on
Quadrupole Moment Calculation                   ... off
Polarizability Calculation                      ... off
GBWName                                         ... BOH-Acr_p_M06L_def2TZVP_coords.gbw
Electron density                                ... BOH-Acr_p_M06L_def2TZVP_coords.scfp
The origin for moment calculation is the CENTER OF MASS  = ( 0.084974, -0.001836  0.009978)

-------------
DIPOLE MOMENT
-------------
                                X             Y             Z
Electronic contribution:     16.29435      -0.04753       2.16224
Nuclear contribution   :    -18.09944       0.39115      -2.12544
                        -----------------------------------------
Total Dipole Moment    :     -1.80509       0.34362       0.03680
                        -----------------------------------------
Magnitude (a.u.)       :      1.83787
Magnitude (Debye)      :      4.67150



--------------------
Rotational spectrum 
--------------------
 
Rotational constants in cm-1:     0.012596     0.002183     0.001953 
Rotational constants in MHz :   377.610801    65.449689    58.549588 

 Dipole components along the rotational axes: 
x,y,z [a.u.] :    -1.805315    -0.342983     0.031289 
x,y,z [Debye]:    -4.588747    -0.871792     0.079531 

 

Timings for individual modules:

Sum of individual times         ...     6865.213 sec (= 114.420 min)
GTO integral calculation        ...        2.090 sec (=   0.035 min)   0.0 %
SCF iterations                  ...      510.425 sec (=   8.507 min)   7.4 %
MP2 module                      ...      373.370 sec (=   6.223 min)   5.4 %
CIS module                      ...     5979.328 sec (=  99.655 min)  87.1 %
                             ****ORCA TERMINATED NORMALLY****
TOTAL RUN TIME: 0 days 1 hours 54 minutes 32 seconds 369 msec
