
                                 *****************
                                 * O   R   C   A *
                                 *****************

                                            #,                                       
                                            ###                                      
                                            ####                                     
                                            #####                                    
                                            ######                                   
                                           ########,                                 
                                     ,,################,,,,,                         
                               ,,#################################,,                 
                          ,,##########################################,,             
                       ,#########################################, ''#####,          
                    ,#############################################,,   '####,        
                  ,##################################################,,,,####,       
                ,###########''''           ''''###############################       
              ,#####''   ,,,,##########,,,,          '''####'''          '####       
            ,##' ,,,,###########################,,,                        '##       
           ' ,,###''''                  '''############,,,                           
         ,,##''                                '''############,,,,        ,,,,,,###''
      ,#''                                            '''#######################'''  
     '                                                          ''''####''''         
             ,#######,   #######,   ,#######,      ##                                
            ,#'     '#,  ##    ##  ,#'     '#,    #''#        ######   ,####,        
            ##       ##  ##   ,#'  ##            #'  '#       #        #'  '#        
            ##       ##  #######   ##           ,######,      #####,   #    #        
            '#,     ,#'  ##    ##  '#,     ,#' ,#      #,         ##   #,  ,#        
             '#######'   ##     ##  '#######'  #'      '#     #####' # '####'        



                  #######################################################
                  #                        -***-                        #
                  #          Department of theory and spectroscopy      #
                  #    Directorship and core code : Frank Neese         #
                  #        Max Planck Institute fuer Kohlenforschung    #
                  #                Kaiser Wilhelm Platz 1               #
                  #                 D-45470 Muelheim/Ruhr               #
                  #                      Germany                        #
                  #                                                     #
                  #                  All rights reserved                #
                  #                        -***-                        #
                  #######################################################


                         Program Version 5.0.2 -  RELEASE  -


 With contributions from (in alphabetic order):
   Daniel Aravena         : Magnetic Suceptibility
   Michael Atanasov       : Ab Initio Ligand Field Theory (pilot matlab implementation)
   Alexander A. Auer      : GIAO ZORA, VPT2 properties, NMR spectrum
   Ute Becker             : Parallelization
   Giovanni Bistoni       : ED, misc. LED, open-shell LED, HFLD
   Martin Brehm           : Molecular dynamics
   Dmytro Bykov           : SCF Hessian
   Vijay G. Chilkuri      : MRCI spin determinant printing, contributions to CSF-ICE
   Dipayan Datta          : RHF DLPNO-CCSD density
   Achintya Kumar Dutta   : EOM-CC, STEOM-CC
   Dmitry Ganyushin       : Spin-Orbit,Spin-Spin,Magnetic field MRCI
   Miquel Garcia          : C-PCM and meta-GGA Hessian, CC/C-PCM, Gaussian charge scheme
   Yang Guo               : DLPNO-NEVPT2, F12-NEVPT2, CIM, IAO-localization
   Andreas Hansen         : Spin unrestricted coupled pair/coupled cluster methods
   Benjamin Helmich-Paris : MC-RPA, TRAH-SCF, COSX integrals
   Lee Huntington         : MR-EOM, pCC
   Robert Izsak           : Overlap fitted RIJCOSX, COSX-SCS-MP3, EOM
   Marcus Kettner         : VPT2
   Christian Kollmar      : KDIIS, OOCD, Brueckner-CCSD(T), CCSD density, CASPT2, CASPT2-K
   Simone Kossmann        : Meta GGA functionals, TD-DFT gradient, OOMP2, MP2 Hessian
   Martin Krupicka        : Initial AUTO-CI
   Lucas Lang             : DCDCAS
   Marvin Lechner         : AUTO-CI (C++ implementation), FIC-MRCC
   Dagmar Lenk            : GEPOL surface, SMD
   Dimitrios Liakos       : Extrapolation schemes; Compound Job, initial MDCI parallelization
   Dimitrios Manganas     : Further ROCIS development; embedding schemes
   Dimitrios Pantazis     : SARC Basis sets
   Anastasios Papadopoulos: AUTO-CI, single reference methods and gradients
   Taras Petrenko         : DFT Hessian,TD-DFT gradient, ASA, ECA, R-Raman, ABS, FL, XAS/XES, NRVS
   Peter Pinski           : DLPNO-MP2, DLPNO-MP2 Gradient
   Christoph Reimann      : Effective Core Potentials
   Marius Retegan         : Local ZFS, SOC
   Christoph Riplinger    : Optimizer, TS searches, QM/MM, DLPNO-CCSD(T), (RO)-DLPNO pert. Triples
   Tobias Risthaus        : Range-separated hybrids, TD-DFT gradient, RPA, STAB
   Michael Roemelt        : Original ROCIS implementation
   Masaaki Saitow         : Open-shell DLPNO-CCSD energy and density
   Barbara Sandhoefer     : DKH picture change effects
   Avijit Sen             : IP-ROCIS
   Kantharuban Sivalingam : CASSCF convergence, NEVPT2, FIC-MRCI
   Bernardo de Souza      : ESD, SOC TD-DFT
   Georgi Stoychev        : AutoAux, RI-MP2 NMR, DLPNO-MP2 response
   Willem Van den Heuvel  : Paramagnetic NMR
   Boris Wezisla          : Elementary symmetry handling
   Frank Wennmohs         : Technical directorship


 We gratefully acknowledge several colleagues who have allowed us to
 interface, adapt or use parts of their codes:
   Stefan Grimme, W. Hujo, H. Kruse, P. Pracht,  : VdW corrections, initial TS optimization,
                  C. Bannwarth, S. Ehlert          DFT functionals, gCP, sTDA/sTD-DF
   Ed Valeev, F. Pavosevic, A. Kumar             : LibInt (2-el integral package), F12 methods
   Garnet Chan, S. Sharma, J. Yang, R. Olivares  : DMRG
   Ulf Ekstrom                                   : XCFun DFT Library
   Mihaly Kallay                                 : mrcc  (arbitrary order and MRCC methods)
   Jiri Pittner, Ondrej Demel                    : Mk-CCSD
   Frank Weinhold                                : gennbo (NPA and NBO analysis)
   Christopher J. Cramer and Donald G. Truhlar   : smd solvation model
   Lars Goerigk                                  : TD-DFT with DH, B97 family of functionals
   V. Asgeirsson, H. Jonsson                     : NEB implementation
   FAccTs GmbH                                   : IRC, NEB, NEB-TS, DLPNO-Multilevel, CI-OPT
                                                   MM, QMMM, 2- and 3-layer-ONIOM, Crystal-QMMM,
                                                   LR-CPCM, SF, NACMEs, symmetry and pop. for TD-DFT,
                                                   nearIR, NL-DFT gradient (VV10), updates on ESD,
                                                   ML-optimized integration grids
   S Lehtola, MJT Oliveira, MAL Marques          : LibXC Library
   Liviu Ungur et al                             : ANISO software


 Your calculation uses the libint2 library for the computation of 2-el integrals
 For citations please refer to: http://libint.valeyev.net

 Your ORCA version has been built with support for libXC version: 5.1.0
 For citations please refer to: https://tddft.org/programs/libxc/

 This ORCA versions uses:
   CBLAS   interface :  Fast vector & matrix operations
   LAPACKE interface :  Fast linear algebra routines
   SCALAPACK package :  Parallel linear algebra routines
   Shared memory     :  Shared parallel matrices
   BLAS/LAPACK       :  OpenBLAS 0.3.15  USE64BITINT DYNAMIC_ARCH NO_AFFINITY Prescott SINGLE_THREADED
        Core in use  :  Prescott
   Copyright (c) 2011-2014, The OpenBLAS Project


Your calculation utilizes the SMD solvation module
Please cite in your paper:
A.V. Marenich, C.J. Cramer, D.G. Truhlar J. Phys. Chem. B, 113, (2009), 6378 

================================================================================

----- Orbital basis set information -----
Your calculation utilizes the basis: def2-TZVP
   F. Weigend and R. Ahlrichs, Phys. Chem. Chem. Phys. 7, 3297 (2005).

----- AuxJ basis set information -----
Your calculation utilizes the auxiliary basis: def2/J
   F. Weigend, Phys. Chem. Chem. Phys. 8, 1057 (2006).

----- AuxC basis set information -----
Your calculation utilizes the auxiliary basis: def2-TZVP/C
  H-La, Hf-Rn : A. Hellweg, C. Hattig, S. Hofener and W. Klopper, Theor. Chem. Acc. 117, 587 (2007).
        Ce-Lu : J. Chmela and M. E. Harding, Mol. Phys. (2018).

================================================================================
                                        WARNINGS
                       Please study these warnings very carefully!
================================================================================

INFO   : Checking CIS options ...
  ===> : (D) CORRECTION FOUND - SETTING MODE=3
  ===> : JK MODE FOUND - ACTIVATING RI-MP2 CODE
  ===> : MP2 AND CIS FOUND - CHECKING
WARNING: CIS(D) and MP2 runs must have the same orbital window
  ===> : adjusting orbital windows

WARNING: No MP2 level density has been requested!
         To caclulate MP2 level properties use
         %mp2 Density relaxed end
         or
         %mp2 Density unrelaxed end
         Otherwise for double-hybrid DFT only the energy is correct!

WARNING: The frozen-core approximation is turned on by default for 
         the MP2 part of double-hybrid DFT.

WARNING: CIS/ROCIS methods need fully converged wavefunctions
  ===> : Setting SCFConvForced true
         You can overwrite this default with %scf ConvForced false 


INFO   : the flag for use of the SHARK integral package has been found!

================================================================================
                                       INPUT FILE
================================================================================
NAME = BOH-Acr_p_M06L_def2TZVP_coords.inp
|  1> %maxcore 20000
|  2> %pal
|  3>  nprocs= 6
|  4> end
|  5> ! RI-SCS-PBE-QIDH   def2-TZVP def2/J def2-TZVP/C RIJCOSX CPCM TightSCF
|  6> %TDDFT  
|  7>    NROOTS   30
|  8>    dcorr 4
|  9>    doscs true 
| 10>    TDA      FALSE
| 11> END
| 12> 
| 13> %CPCM
| 14>    SMD          TRUE
| 15>    SMDsolvent   "ACETONITRILE"
| 16> END
| 17>    
| 18> 
| 19> * xyz 1 1
| 20> C                  -0.99815600   -3.59492200    0.24638100
| 21> C                  -1.67788100   -2.40979500    0.17633400
| 22> C                  -0.96971200   -1.19623700    0.12146300
| 23> C                   0.45725200   -1.20773700    0.11133000
| 24> C                   1.11251800   -2.46141800    0.21572500
| 25> C                   0.40645600   -3.62559900    0.27957300
| 26> C                   1.16289900    0.00657700    0.02600200
| 27> C                   0.44603300    1.21608400   -0.02810600
| 28> C                  -0.97992300    1.19540200    0.02317300
| 29> C                  -1.69757800    2.40447500    0.00145200
| 30> H                  -2.77527400    2.38913800    0.05955700
| 31> C                  -1.02900200    3.59407800   -0.09559500
| 32> C                   0.37259700    3.63375600   -0.19007200
| 33> C                   1.08807000    2.47405500   -0.15897900
| 34> H                  -1.55633400   -4.52108300    0.28830500
| 35> H                  -2.75720700   -2.40121200    0.16548000
| 36> H                   2.19194000   -2.47972300    0.25387900
| 37> H                   0.92335900   -4.57190200    0.36113100
| 38> H                  -1.59429400    4.51673400   -0.11106000
| 39> H                   0.87938100    4.58347900   -0.29275400
| 40> H                   2.16461600    2.49898500   -0.24432400
| 41> N                  -1.63780300   -0.00275000    0.08515800
| 42> C                   2.63708300    0.01059200   -0.00613700
| 43> C                   3.32575700   -0.60525700   -1.05285100
| 44> C                   3.36658900    0.62850000    1.01037300
| 45> C                   4.70822600   -0.59090000   -1.08002000
| 46> C                   4.74961300    0.61413500    0.98144300
| 47> C                   5.45609800    0.01064800   -0.06250800
| 48> H                   5.22392100   -1.06167700   -1.90834200
| 49> H                   5.27930300    1.09415300    1.79808800
| 50> H                   2.76772500   -1.08182200   -1.84966000
| 51> H                   2.84234400    1.10538600    1.82941400
| 52> C                  -3.08481100   -0.00716300    0.11213200
| 53> C                  -3.78865400    0.00084400   -1.07706800
| 54> C                  -3.74597100   -0.01701900    1.33251500
| 55> C                  -5.17489700   -0.00000500   -1.05937300
| 56> H                  -3.25448900    0.00878600   -2.01882500
| 57> C                  -5.12446300   -0.01807800    1.35656000
| 58> H                  -3.17810500   -0.02360900    2.25417100
| 59> C                  -5.84899100   -0.00891000    0.16146500
| 60> H                  -5.71859800    0.00631500   -1.99286200
| 61> H                  -5.66148600   -0.02492100    2.29574700
| 62> O                  -7.19054800   -0.00914000    0.28675300
| 63> C                  -7.96491700    0.00239400   -0.90361400
| 64> H                  -9.00420200    0.00215400   -0.58782900
| 65> H                  -7.76999600    0.89748800   -1.49802800
| 66> H                  -7.77408300   -0.88356300   -1.51286000
| 67> B                   7.01824700   -0.00761200   -0.11345300
| 68> O                   7.82596900    0.50635800    0.86212300
| 69> H                   7.34866700    0.88524900    1.60754600
| 70> O                   7.61392700   -0.57547400   -1.20247400
| 71> H                   8.57600500   -0.54598500   -1.14644000
| 72> *
| 73> 
| 74> 
| 75>                          ****END OF INPUT****
================================================================================

                       ****************************
                       * Single Point Calculation *
                       ****************************

---------------------------------
CARTESIAN COORDINATES (ANGSTROEM)
---------------------------------
  C     -0.998156   -3.594922    0.246381
  C     -1.677881   -2.409795    0.176334
  C     -0.969712   -1.196237    0.121463
  C      0.457252   -1.207737    0.111330
  C      1.112518   -2.461418    0.215725
  C      0.406456   -3.625599    0.279573
  C      1.162899    0.006577    0.026002
  C      0.446033    1.216084   -0.028106
  C     -0.979923    1.195402    0.023173
  C     -1.697578    2.404475    0.001452
  H     -2.775274    2.389138    0.059557
  C     -1.029002    3.594078   -0.095595
  C      0.372597    3.633756   -0.190072
  C      1.088070    2.474055   -0.158979
  H     -1.556334   -4.521083    0.288305
  H     -2.757207   -2.401212    0.165480
  H      2.191940   -2.479723    0.253879
  H      0.923359   -4.571902    0.361131
  H     -1.594294    4.516734   -0.111060
  H      0.879381    4.583479   -0.292754
  H      2.164616    2.498985   -0.244324
  N     -1.637803   -0.002750    0.085158
  C      2.637083    0.010592   -0.006137
  C      3.325757   -0.605257   -1.052851
  C      3.366589    0.628500    1.010373
  C      4.708226   -0.590900   -1.080020
  C      4.749613    0.614135    0.981443
  C      5.456098    0.010648   -0.062508
  H      5.223921   -1.061677   -1.908342
  H      5.279303    1.094153    1.798088
  H      2.767725   -1.081822   -1.849660
  H      2.842344    1.105386    1.829414
  C     -3.084811   -0.007163    0.112132
  C     -3.788654    0.000844   -1.077068
  C     -3.745971   -0.017019    1.332515
  C     -5.174897   -0.000005   -1.059373
  H     -3.254489    0.008786   -2.018825
  C     -5.124463   -0.018078    1.356560
  H     -3.178105   -0.023609    2.254171
  C     -5.848991   -0.008910    0.161465
  H     -5.718598    0.006315   -1.992862
  H     -5.661486   -0.024921    2.295747
  O     -7.190548   -0.009140    0.286753
  C     -7.964917    0.002394   -0.903614
  H     -9.004202    0.002154   -0.587829
  H     -7.769996    0.897488   -1.498028
  H     -7.774083   -0.883563   -1.512860
  B      7.018247   -0.007612   -0.113453
  O      7.825969    0.506358    0.862123
  H      7.348667    0.885249    1.607546
  O      7.613927   -0.575474   -1.202474
  H      8.576005   -0.545985   -1.146440

----------------------------
CARTESIAN COORDINATES (A.U.)
----------------------------
  NO LB      ZA    FRAG     MASS         X           Y           Z
   0 C     6.0000    0    12.011   -1.886241   -6.793418    0.465593
   1 C     6.0000    0    12.011   -3.170736   -4.553853    0.333223
   2 C     6.0000    0    12.011   -1.832490   -2.260560    0.229532
   3 C     6.0000    0    12.011    0.864081   -2.282292    0.210383
   4 C     6.0000    0    12.011    2.102354   -4.651406    0.407661
   5 C     6.0000    0    12.011    0.768091   -6.851389    0.528316
   6 C     6.0000    0    12.011    2.197561    0.012429    0.049137
   7 C     6.0000    0    12.011    0.842880    2.298066   -0.053113
   8 C     6.0000    0    12.011   -1.851786    2.258982    0.043791
   9 C     6.0000    0    12.011   -3.207958    4.543799    0.002744
  10 H     1.0000    0     1.008   -5.244508    4.514817    0.112546
  11 C     6.0000    0    12.011   -1.944532    6.791823   -0.180648
  12 C     6.0000    0    12.011    0.704106    6.866804   -0.359184
  13 C     6.0000    0    12.011    2.056154    4.675286   -0.300427
  14 H     1.0000    0     1.008   -2.941045   -8.543609    0.544817
  15 H     1.0000    0     1.008   -5.210366   -4.537633    0.312712
  16 H     1.0000    0     1.008    4.142166   -4.685997    0.479762
  17 H     1.0000    0     1.008    1.744896   -8.639643    0.682439
  18 H     1.0000    0     1.008   -3.012779    8.535390   -0.209873
  19 H     1.0000    0     1.008    1.661789    8.661520   -0.553225
  20 H     1.0000    0     1.008    4.090531    4.722397   -0.461705
  21 N     7.0000    0    14.007   -3.094999   -0.005197    0.160925
  22 C     6.0000    0    12.011    4.983365    0.020016   -0.011597
  23 C     6.0000    0    12.011    6.284770   -1.143770   -1.989600
  24 C     6.0000    0    12.011    6.361931    1.187693    1.909328
  25 C     6.0000    0    12.011    8.897258   -1.116639   -2.040942
  26 C     6.0000    0    12.011    8.975468    1.160547    1.854658
  27 C     6.0000    0    12.011   10.310531    0.020122   -0.118123
  28 H     1.0000    0     1.008    9.871780   -2.006279   -3.606244
  29 H     1.0000    0     1.008    9.976437    2.067650    3.397894
  30 H     1.0000    0     1.008    5.230242   -2.044347   -3.495351
  31 H     1.0000    0     1.008    5.371252    2.088877    3.457091
  32 C     6.0000    0    12.011   -5.829448   -0.013536    0.211899
  33 C     6.0000    0    12.011   -7.159518    0.001595   -2.035364
  34 C     6.0000    0    12.011   -7.078859   -0.032161    2.518088
  35 C     6.0000    0    12.011   -9.779138   -0.000009   -2.001925
  36 H     1.0000    0     1.008   -6.150093    0.016603   -3.815026
  37 C     6.0000    0    12.011   -9.683832   -0.034162    2.563527
  38 H     1.0000    0     1.008   -6.005748   -0.044615    4.259766
  39 C     6.0000    0    12.011  -11.052991   -0.016837    0.305125
  40 H     1.0000    0     1.008  -10.806584    0.011934   -3.765963
  41 H     1.0000    0     1.008  -10.698658   -0.047094    4.338333
  42 O     8.0000    0    15.999  -13.588166   -0.017272    0.541885
  43 C     6.0000    0    12.011  -15.051512    0.004524   -1.707583
  44 H     1.0000    0     1.008  -17.015476    0.004070   -1.110836
  45 H     1.0000    0     1.008  -14.683165    1.696007   -2.830863
  46 H     1.0000    0     1.008  -14.690888   -1.669692   -2.858891
  47 B     5.0000    0    10.810   13.262565   -0.014385   -0.214395
  48 O     8.0000    0    15.999   14.788938    0.956878    1.629176
  49 H     1.0000    0     1.008   13.886968    1.672878    3.037822
  50 O     8.0000    0    15.999   14.388237   -1.087488   -2.272347
  51 H     1.0000    0     1.008   16.206301   -1.031762   -2.166458

--------------------------------
INTERNAL COORDINATES (ANGSTROEM)
--------------------------------
 C      0   0   0     0.000000000000     0.00000000     0.00000000
 C      1   0   0     1.368012669518     0.00000000     0.00000000
 C      2   1   0     1.406142659393   119.96194231     0.00000000
 C      3   2   1     1.427046314940   119.79633296     1.28739369
 C      4   3   2     1.418445591675   117.93917083   357.34875448
 C      5   4   3     1.363054480096   121.26777424     2.12441186
 C      4   3   2     1.407045502743   119.66689092   178.57432752
 C      7   4   3     1.407029395808   119.25443905     0.93368601
 C      8   7   4     1.427027608318   119.68729565     0.87968740
 C      9   8   7     1.406185627929   119.79881436   178.48592485
 H     10   9   8     1.079370225182   119.76971555   181.18244853
 C     10   9   8     1.368052369463   119.95702472     1.30434079
 C     12  10   9     1.405339817985   121.11285658     0.72703965
 C     13  12  10     1.363002126843   119.86585238   358.69869991
 H      1   2   3     1.082171196891   119.15161434   179.98423898
 H      2   1   3     1.079414698566   120.28044758   180.15656024
 H      5   4   3     1.080251199872   118.63200916   182.70870483
 H      6   5   4     1.081355531998   120.22182658   180.13436591
 H     12  10   9     1.082168335253   119.15108148   180.00842262
 H     13  12  10     1.081363672642   119.90646247   178.35532973
 H     14  13  12     1.080211351561   120.11282612   179.19709491
 N      3   2   1     1.368237865459   120.52641999   181.65261572
 C      7   4   3     1.474539759180   120.33536317   180.92652671
 C     23   7   4     1.396120362602   120.55052204    62.38178911
 C     23   7   4     1.395450422122   120.52917059   242.47302157
 C     24  23   7     1.382810476519   120.21894774   179.63745628
 C     25  23   7     1.383401128632   120.18546364   179.22398539
 C     27  25  23     1.397551896995   121.70078782     1.14402581
 H     26  24  23     1.083369582570   119.10444622   180.89295226
 H     27  25  23     1.085310016746   117.87816269   180.83087462
 H     24  23   7     1.083244429817   119.43513814     0.48579958
 H     25  23   7     1.083088748304   119.52386488     0.18240498
 C     22   3   2     1.447266120418   119.01537686     0.36560105
 C     33  22   3     1.381902934615   119.54990308   267.18422182
 C     33  22   3     1.388007331762   119.51565234    87.29627660
 C     34  33  22     1.386356191199   119.88758463   180.15776942
 H     34  33  22     1.082728760881   119.81974223     0.09490686
 C     35  33  22     1.378702098921   119.44609686   179.85042535
 H     35  33  22     1.082573325180   119.91541696   359.86126578
 C     36  34  33     1.394606554590   119.63649468     0.00000000
 H     36  34  33     1.080302010052   119.48609674   179.99816422
 H     38  35  33     1.081902375516   120.75967103   180.04682873
 O     40  36  34     1.347394641556   124.24024005   179.93059289
 C     43  40  36     1.420124633969   117.70873486   359.90513212
 H     44  43  40     1.086201424714   106.14322435   180.10757915
 H     44  43  40     1.092023565896   111.44364178   298.91760221
 H     44  43  40     1.092024775324   111.45464119    61.29103473
 B     28  27  25     1.563086152081   122.31703958   179.67920022
 O     48  28  27     1.366868143590   124.25795511     2.66227539
 H     49  48  28     0.962824510497   114.05436913     0.46050536
 O     48  28  27     1.365015989608   117.83917367   182.57255823
 H     51  48  28     0.964159472474   112.10829731   180.28987537

---------------------------
INTERNAL COORDINATES (A.U.)
---------------------------
 C      0   0   0     0.000000000000     0.00000000     0.00000000
 C      1   0   0     2.585169293124     0.00000000     0.00000000
 C      2   1   0     2.657224531477   119.96194231     0.00000000
 C      3   2   1     2.696726715659   119.79633296     1.28739369
 C      4   3   2     2.680473704133   117.93917083   357.34875448
 C      5   4   3     2.575799672995   121.26777424     2.12441186
 C      4   3   2     2.658930658150   119.66689092   178.57432752
 C      7   4   3     2.658900220455   119.25443905     0.93368601
 C      8   7   4     2.696691365265   119.68729565     0.87968740
 C      9   8   7     2.657305730243   119.79881436   178.48592485
 H     10   9   8     2.039714122703   119.76971555   181.18244853
 C     10   9   8     2.585244315148   119.95702472     1.30434079
 C     12  10   9     2.655707381086   121.11285658     0.72703965
 C     13  12  10     2.575700739686   119.86585238   358.69869991
 H      1   2   3     2.045007192142   119.15161434   179.98423898
 H      2   1   3     2.039798165219   120.28044758   180.15656024
 H      5   4   3     2.041378923598   118.63200916   182.70870483
 H      6   5   4     2.043465808876   120.22182658   180.13436591
 H     12  10   9     2.045001784430   119.15108148   180.00842262
 H     13  12  10     2.043481192464   119.90646247   178.35532973
 H     14  13  12     2.041303621203   120.11282612   179.19709491
 N      3   2   1     2.585594851778   120.52641999   181.65261572
 C      7   4   3     2.786476318428   120.33536317   180.92652671
 C     23   7   4     2.638285135309   120.55052204    62.38178911
 C     23   7   4     2.637019131275   120.52917059   242.47302157
 C     24  23   7     2.613133095738   120.21894774   179.63745628
 C     25  23   7     2.614249266473   120.18546364   179.22398539
 C     27  25  23     2.640990343263   121.70078782     1.14402581
 H     26  24  23     2.047271812878   119.10444622   180.89295226
 H     27  25  23     2.050938702051   117.87816269   180.83087462
 H     24  23   7     2.047035308450   119.43513814     0.48579958
 H     25  23   7     2.046741113025   119.52386488     0.18240498
 C     22   3   2     2.734936610492   119.01537686     0.36560105
 C     33  22   3     2.611418090085   119.54990308   267.18422182
 C     33  22   3     2.622953728905   119.51565234    87.29627660
 C     34  33  22     2.619833525432   119.88758463   180.15776942
 H     34  33  22     2.046060835384   119.81974223     0.09490686
 C     35  33  22     2.605369387224   119.44609686   179.85042535
 H     35  33  22     2.045767104479   119.91541696   359.86126578
 C     36  34  33     2.635424452746   119.63649468     0.00000000
 H     36  34  33     2.041474940923   119.48609674   179.99816422
 H     38  35  33     2.044499193364   120.75967103   180.04682873
 O     40  36  34     2.546206866853   124.24024005   179.93059289
 C     43  40  36     2.683646634237   117.70873486   359.90513212
 H     44  43  40     2.052623218984   106.14322435   180.10757915
 H     44  43  40     2.063625471332   111.44364178   298.91760221
 H     44  43  40     2.063627756819   111.45464119    61.29103473
 B     28  27  25     2.953804751157   122.31703958   179.67920022
 O     48  28  27     2.583006452566   124.25795511     2.66227539
 H     49  48  28     1.819474639866   114.05436913     0.46050536
 O     48  28  27     2.579506388782   117.83917367   182.57255823
 H     51  48  28     1.821997352402   112.10829731   180.28987537

---------------------
BASIS SET INFORMATION
---------------------
There are 5 groups of distinct atoms

 Group   1 Type C   : 11s6p2d1f contracted to 5s3p2d1f pattern {62111/411/11/1}
 Group   2 Type H   : 5s1p contracted to 3s1p pattern {311/1}
 Group   3 Type N   : 11s6p2d1f contracted to 5s3p2d1f pattern {62111/411/11/1}
 Group   4 Type O   : 11s6p2d1f contracted to 5s3p2d1f pattern {62111/411/11/1}
 Group   5 Type B   : 11s6p2d1f contracted to 5s3p2d1f pattern {62111/411/11/1}

Atom   0C    basis set group =>   1
Atom   1C    basis set group =>   1
Atom   2C    basis set group =>   1
Atom   3C    basis set group =>   1
Atom   4C    basis set group =>   1
Atom   5C    basis set group =>   1
Atom   6C    basis set group =>   1
Atom   7C    basis set group =>   1
Atom   8C    basis set group =>   1
Atom   9C    basis set group =>   1
Atom  10H    basis set group =>   2
Atom  11C    basis set group =>   1
Atom  12C    basis set group =>   1
Atom  13C    basis set group =>   1
Atom  14H    basis set group =>   2
Atom  15H    basis set group =>   2
Atom  16H    basis set group =>   2
Atom  17H    basis set group =>   2
Atom  18H    basis set group =>   2
Atom  19H    basis set group =>   2
Atom  20H    basis set group =>   2
Atom  21N    basis set group =>   3
Atom  22C    basis set group =>   1
Atom  23C    basis set group =>   1
Atom  24C    basis set group =>   1
Atom  25C    basis set group =>   1
Atom  26C    basis set group =>   1
Atom  27C    basis set group =>   1
Atom  28H    basis set group =>   2
Atom  29H    basis set group =>   2
Atom  30H    basis set group =>   2
Atom  31H    basis set group =>   2
Atom  32C    basis set group =>   1
Atom  33C    basis set group =>   1
Atom  34C    basis set group =>   1
Atom  35C    basis set group =>   1
Atom  36H    basis set group =>   2
Atom  37C    basis set group =>   1
Atom  38H    basis set group =>   2
Atom  39C    basis set group =>   1
Atom  40H    basis set group =>   2
Atom  41H    basis set group =>   2
Atom  42O    basis set group =>   4
Atom  43C    basis set group =>   1
Atom  44H    basis set group =>   2
Atom  45H    basis set group =>   2
Atom  46H    basis set group =>   2
Atom  47B    basis set group =>   5
Atom  48O    basis set group =>   4
Atom  49H    basis set group =>   2
Atom  50O    basis set group =>   4
Atom  51H    basis set group =>   2
---------------------------------
AUXILIARY/J BASIS SET INFORMATION
---------------------------------
There are 5 groups of distinct atoms

 Group   1 Type C   : 12s5p4d2f1g contracted to 6s4p3d1f1g pattern {711111/2111/211/2/1}
 Group   2 Type H   : 5s2p1d contracted to 3s1p1d pattern {311/2/1}
 Group   3 Type N   : 12s5p4d2f1g contracted to 6s4p3d1f1g pattern {711111/2111/211/2/1}
 Group   4 Type O   : 12s5p4d2f1g contracted to 6s4p3d1f1g pattern {711111/2111/211/2/1}
 Group   5 Type B   : 12s5p4d2f1g contracted to 6s4p3d1f1g pattern {711111/2111/211/2/1}

Atom   0C    basis set group =>   1
Atom   1C    basis set group =>   1
Atom   2C    basis set group =>   1
Atom   3C    basis set group =>   1
Atom   4C    basis set group =>   1
Atom   5C    basis set group =>   1
Atom   6C    basis set group =>   1
Atom   7C    basis set group =>   1
Atom   8C    basis set group =>   1
Atom   9C    basis set group =>   1
Atom  10H    basis set group =>   2
Atom  11C    basis set group =>   1
Atom  12C    basis set group =>   1
Atom  13C    basis set group =>   1
Atom  14H    basis set group =>   2
Atom  15H    basis set group =>   2
Atom  16H    basis set group =>   2
Atom  17H    basis set group =>   2
Atom  18H    basis set group =>   2
Atom  19H    basis set group =>   2
Atom  20H    basis set group =>   2
Atom  21N    basis set group =>   3
Atom  22C    basis set group =>   1
Atom  23C    basis set group =>   1
Atom  24C    basis set group =>   1
Atom  25C    basis set group =>   1
Atom  26C    basis set group =>   1
Atom  27C    basis set group =>   1
Atom  28H    basis set group =>   2
Atom  29H    basis set group =>   2
Atom  30H    basis set group =>   2
Atom  31H    basis set group =>   2
Atom  32C    basis set group =>   1
Atom  33C    basis set group =>   1
Atom  34C    basis set group =>   1
Atom  35C    basis set group =>   1
Atom  36H    basis set group =>   2
Atom  37C    basis set group =>   1
Atom  38H    basis set group =>   2
Atom  39C    basis set group =>   1
Atom  40H    basis set group =>   2
Atom  41H    basis set group =>   2
Atom  42O    basis set group =>   4
Atom  43C    basis set group =>   1
Atom  44H    basis set group =>   2
Atom  45H    basis set group =>   2
Atom  46H    basis set group =>   2
Atom  47B    basis set group =>   5
Atom  48O    basis set group =>   4
Atom  49H    basis set group =>   2
Atom  50O    basis set group =>   4
Atom  51H    basis set group =>   2
---------------------------------
AUXILIARY/C BASIS SET INFORMATION
---------------------------------
There are 5 groups of distinct atoms

 Group   1 Type C   : 8s6p5d3f1g contracted to 8s6p4d3f1g pattern {11111111/111111/2111/111/1}
 Group   2 Type H   : 4s3p2d contracted to 4s2p1d pattern {1111/21/2}
 Group   3 Type N   : 8s6p5d3f1g contracted to 8s6p4d3f1g pattern {11111111/111111/2111/111/1}
 Group   4 Type O   : 8s6p5d3f1g contracted to 8s6p4d3f1g pattern {11111111/111111/2111/111/1}
 Group   5 Type B   : 8s6p5d3f1g contracted to 8s6p4d3f1g pattern {11111111/111111/2111/111/1}

Atom   0C    basis set group =>   1
Atom   1C    basis set group =>   1
Atom   2C    basis set group =>   1
Atom   3C    basis set group =>   1
Atom   4C    basis set group =>   1
Atom   5C    basis set group =>   1
Atom   6C    basis set group =>   1
Atom   7C    basis set group =>   1
Atom   8C    basis set group =>   1
Atom   9C    basis set group =>   1
Atom  10H    basis set group =>   2
Atom  11C    basis set group =>   1
Atom  12C    basis set group =>   1
Atom  13C    basis set group =>   1
Atom  14H    basis set group =>   2
Atom  15H    basis set group =>   2
Atom  16H    basis set group =>   2
Atom  17H    basis set group =>   2
Atom  18H    basis set group =>   2
Atom  19H    basis set group =>   2
Atom  20H    basis set group =>   2
Atom  21N    basis set group =>   3
Atom  22C    basis set group =>   1
Atom  23C    basis set group =>   1
Atom  24C    basis set group =>   1
Atom  25C    basis set group =>   1
Atom  26C    basis set group =>   1
Atom  27C    basis set group =>   1
Atom  28H    basis set group =>   2
Atom  29H    basis set group =>   2
Atom  30H    basis set group =>   2
Atom  31H    basis set group =>   2
Atom  32C    basis set group =>   1
Atom  33C    basis set group =>   1
Atom  34C    basis set group =>   1
Atom  35C    basis set group =>   1
Atom  36H    basis set group =>   2
Atom  37C    basis set group =>   1
Atom  38H    basis set group =>   2
Atom  39C    basis set group =>   1
Atom  40H    basis set group =>   2
Atom  41H    basis set group =>   2
Atom  42O    basis set group =>   4
Atom  43C    basis set group =>   1
Atom  44H    basis set group =>   2
Atom  45H    basis set group =>   2
Atom  46H    basis set group =>   2
Atom  47B    basis set group =>   5
Atom  48O    basis set group =>   4
Atom  49H    basis set group =>   2
Atom  50O    basis set group =>   4
Atom  51H    basis set group =>   2


           ************************************************************
           *        Program running with 6 parallel MPI-processes     *
           *              working on a common directory               *
           ************************************************************
------------------------------------------------------------------------------
                           ORCA GTO INTEGRAL CALCULATION
                           -- RI-GTO INTEGRALS CHOSEN --
------------------------------------------------------------------------------
------------------------------------------------------------------------------
                   ___                                                        
                  /   \      - P O W E R E D   B Y -                         
                 /     \                                                     
                 |  |  |   _    _      __       _____    __    __             
                 |  |  |  | |  | |    /  \     |  _  \  |  |  /  |          
                  \  \/   | |  | |   /    \    | | | |  |  | /  /          
                 / \  \   | |__| |  /  /\  \   | |_| |  |  |/  /          
                |  |  |   |  __  | /  /__\  \  |    /   |      \           
                |  |  |   | |  | | |   __   |  |    \   |  |\   \          
                \     /   | |  | | |  |  |  |  | |\  \  |  | \   \       
                 \___/    |_|  |_| |__|  |__|  |_| \__\ |__|  \__/        
                                                                              
                      - O R C A' S   B I G   F R I E N D -                    
                                      &                                       
                       - I N T E G R A L  F E E D E R -                       
                                                                              
 v1 FN, 2020, v2 2021                                                         
------------------------------------------------------------------------------


Reading SHARK input file BOH-Acr_p_M06L_def2TZVP_coords.SHARKINP.tmp ... ok
----------------------
SHARK INTEGRAL PACKAGE
----------------------

Number of atoms                             ...     52
Number of basis functions                   ...   1087
Number of shells                            ...    425
Maximum angular momentum                    ...      3
Integral batch strategy                     ... SHARK/LIBINT Hybrid
RI-J (if used) integral strategy            ... SPLIT-RIJ (Revised 2003 algorithm where possible)
Printlevel                                  ...      1
Contraction scheme used                     ... SEGMENTED contraction
Coulomb Range Separation                    ... NOT USED
Exchange Range Separation                   ... NOT USED
Finite Nucleus Model                        ... NOT USED
Auxiliary Coulomb fitting basis             ... AVAILABLE
   # of basis functions in Aux-J            ...   1750
   # of shells in Aux-J                     ...    570
   Maximum angular momentum in Aux-J        ...      4
Auxiliary J/K fitting basis                 ... NOT available
Auxiliary Correlation fitting basis         ... AVAILABLE
   # of basis functions in Aux-C            ...   2671
   # of shells in Aux-C                     ...    829
   Maximum angular momentum in Aux-C        ...      4
Auxiliary 'external' fitting basis          ... NOT available
Integral threshold                          ...     2.500000e-11
Primitive cut-off                           ...     2.500000e-12
Primitive pair pre-selection threshold      ...     2.500000e-12

Calculating pre-screening integrals         ... done (  0.1 sec) Dimension = 425
Organizing shell pair data                  ... done (  2.0 sec)
Shell pair information
Total number of shell pairs                 ...     90525
Shell pairs after pre-screening             ...     54364
Total number of primitive shell pairs       ...    279376
Primitive shell pairs kept                  ...    108846
          la=0 lb=0:  13631 shell pairs
          la=1 lb=0:  15734 shell pairs
          la=1 lb=1:   4532 shell pairs
          la=2 lb=0:   7743 shell pairs
          la=2 lb=1:   4527 shell pairs
          la=2 lb=2:   1147 shell pairs
          la=3 lb=0:   3609 shell pairs
          la=3 lb=1:   2146 shell pairs
          la=3 lb=2:   1037 shell pairs
          la=3 lb=3:    258 shell pairs

Calculating one electron integrals          ... done (  0.2 sec)
Calculating RI/J V-Matrix + Cholesky decomp.... done (  0.2 sec)
Calculating RI/C V-Matrix + Cholesky decomp.... done (  0.4 sec)
Calculating Nuclear repulsion               ... done (  0.0 sec) ENN=   2763.417078813940 Eh

SHARK setup successfully completed in   3.5 seconds

Maximum memory used throughout the entire GTOINT-calculation: 98.3 MB


           ************************************************************
           *        Program running with 6 parallel MPI-processes     *
           *              working on a common directory               *
           ************************************************************
-------------------------------------------------------------------------------
                                 ORCA SCF
-------------------------------------------------------------------------------

------------
SCF SETTINGS
------------
Hamiltonian:
 Density Functional     Method          .... DFT(GTOs)
 Exchange Functional    Exchange        .... PBE
   PBE kappa parameter   XKappa         ....  0.804000
   PBE mue parameter    XMuePBE         ....  0.219520
 Correlation Functional Correlation     .... PBE
   PBE beta parameter  CBetaPBE         ....  0.066725
 LDA part of GGA corr.  LDAOpt          .... PW91-LDA
 Gradients option       PostSCFGGA      .... off
 Hybrid DFT is turned on
   Fraction HF Exchange ScalHFX         ....  0.690000
   Scaling of DF-GGA-X  ScalDFX         ....  0.310000
   Scaling of DF-GGA-C  ScalDFC         ....  0.670000
   Scaling of DF-LDA-C  ScalLDAC        ....  0.670000
   Perturbative correction              ....  0.330000
   Density functional embedding theory  .... OFF
 RI-approximation to the Coulomb term is turned on
   Number of AuxJ basis functions       .... 1750
   RIJ-COSX (HFX calculated with COS-X)).... on


General Settings:
 Integral files         IntName         .... BOH-Acr_p_M06L_def2TZVP_coords
 Hartree-Fock type      HFTyp           .... RHF
 Total Charge           Charge          ....    1
 Multiplicity           Mult            ....    1
 Number of Electrons    NEL             ....  212
 Basis Dimension        Dim             .... 1087
 Nuclear Repulsion      ENuc            ....   2763.4170788139 Eh

Convergence Acceleration:
 DIIS                   CNVDIIS         .... on
   Start iteration      DIISMaxIt       ....    12
   Startup error        DIISStart       ....  0.200000
   # of expansion vecs  DIISMaxEq       ....     5
   Bias factor          DIISBfac        ....   1.050
   Max. coefficient     DIISMaxC        ....  10.000
 Trust-Rad. Augm. Hess. CNVTRAH         .... auto
   Auto Start mean grad. ratio tolernc. ....  1.125000
   Auto Start start iteration           ....    20
   Auto Start num. interpolation iter.  ....    10
   Max. Number of Micro iterations      ....    16
   Max. Number of Macro iterations      .... Maxiter - #DIIS iter
   Number of Davidson start vectors     ....     2
   Converg. threshold I  (grad. norm)   ....   1.000e-05
   Converg. threshold II (energy diff.) ....   1.000e-08
   Grad. Scal. Fac. for Micro threshold ....   0.100
   Minimum threshold for Micro iter.    ....   0.010
   NR start threshold (gradient norm)   ....   0.001
   Initial trust radius                 ....   0.400
   Minimum AH scaling param. (alpha)    ....   1.000
   Maximum AH scaling param. (alpha)    .... 1000.000
   Orbital update algorithm             .... Taylor
   White noise on init. David. guess    .... on
   Maximum white noise                  ....   0.010
   Quad. conv. algorithm                .... NR
 SOSCF                  CNVSOSCF        .... on
   Start iteration      SOSCFMaxIt      ....   150
   Startup grad/error   SOSCFStart      ....  0.003300
 Level Shifting         CNVShift        .... on
   Level shift para.    LevelShift      ....    0.2500
   Turn off err/grad.   ShiftErr        ....    0.0010
 Zerner damping         CNVZerner       .... off
 Static damping         CNVDamp         .... on
   Fraction old density DampFac         ....    0.7000
   Max. Damping (<1)    DampMax         ....    0.9800
   Min. Damping (>=0)   DampMin         ....    0.0000
   Turn off err/grad.   DampErr         ....    0.1000
 Fernandez-Rico         CNVRico         .... off

SCF Procedure:
 Maximum # iterations   MaxIter         ....   125
 SCF integral mode      SCFMode         .... Direct
   Integral package                     .... SHARK and LIBINT hybrid scheme
 Reset frequency        DirectResetFreq ....    20
 Integral Threshold     Thresh          ....  2.500e-11 Eh
 Primitive CutOff       TCut            ....  2.500e-12 Eh

Convergence Tolerance:
 Convergence Check Mode ConvCheckMode   .... Total+1el-Energy
 Convergence forced     ConvForced      .... 1
 Energy Change          TolE            ....  1.000e-08 Eh
 1-El. energy change                    ....  1.000e-05 Eh
 Orbital Gradient       TolG            ....  1.000e-05
 Orbital Rotation angle TolX            ....  1.000e-05
 DIIS Error             TolErr          ....  5.000e-07


Diagonalization of the overlap matrix:
Smallest eigenvalue                        ... 4.755e-06
Time for diagonalization                   ...    0.225 sec
Threshold for overlap eigenvalues          ... 1.000e-08
Number of eigenvalues below threshold      ... 0
Time for construction of square roots      ...    0.178 sec
Total time needed                          ...    0.409 sec

Time for model grid setup =    0.484 sec

------------------------------
INITIAL GUESS: MODEL POTENTIAL
------------------------------
Loading Hartree-Fock densities                     ... done
Calculating cut-offs                               ... done
Initializing the effective Hamiltonian             ... done
Setting up the integral package (SHARK)            ... done
Starting the Coulomb interaction                   ... done (   1.0 sec)
Reading the grid                                   ... done
Mapping shells                                     ... done
Starting the XC term evaluation                    ... done (   0.6 sec)
  promolecular density results
     # of electrons  =    212.985567155
     EX              =   -174.184701238
     EC              =     -2.651984242
     EX+EC           =   -176.836685480
Transforming the Hamiltonian                       ... done (   0.2 sec)
Diagonalizing the Hamiltonian                      ... done (   0.2 sec)
Back transforming the eigenvectors                 ... done (   0.1 sec)
Now organizing SCF variables                       ... done
                      ------------------
                      INITIAL GUESS DONE (   2.6 sec)
                      ------------------
-------------------
DFT GRID GENERATION
-------------------

General Integration Accuracy     IntAcc      ... 4.388
Radial Grid Type                 RadialGrid  ... OptM3 with GC (2021)
Angular Grid (max. ang.)         AngularGrid ... 4 (Lebedev-302)
Angular grid pruning method      GridPruning ... 4 (adaptive)
Weight generation scheme         WeightScheme... Becke
Basis function cutoff            BFCut       ... 1.0000e-11
Integration weight cutoff        WCut        ... 1.0000e-14
Angular grids for H and He will be reduced by one unit
Partially contracted basis set               ... off
Rotationally invariant grid construction     ... off

Total number of grid points                  ...   250989
Total number of batches                      ...     3947
Average number of points per batch           ...       63
Average number of grid points per atom       ...     4827
Time for grid setup =    1.915 sec

--------------------
COSX GRID GENERATION
--------------------

GRIDX 1
-------
General Integration Accuracy     IntAcc      ... 3.816
Radial Grid Type                 RadialGrid  ... OptM3 with GC (2021)
Angular Grid (max. ang.)         AngularGrid ... 1 (Lebedev-50)
Angular grid pruning method      GridPruning ... 4 (adaptive)
Weight generation scheme         WeightScheme... Becke
Basis function cutoff            BFCut       ... 1.0000e-11
Integration weight cutoff        WCut        ... 1.0000e-14
Angular grids for H and He will be reduced by one unit
Partially contracted basis set               ... on
Rotationally invariant grid construction     ... off

Total number of grid points                  ...    31903
Total number of batches                      ...      523
Average number of points per batch           ...       61
Average number of grid points per atom       ...      614
UseSFitting                                  ... on

GRIDX 2
-------
General Integration Accuracy     IntAcc      ... 4.020
Radial Grid Type                 RadialGrid  ... OptM3 with GC (2021)
Angular Grid (max. ang.)         AngularGrid ... 2 (Lebedev-110)
Angular grid pruning method      GridPruning ... 4 (adaptive)
Weight generation scheme         WeightScheme... Becke
Basis function cutoff            BFCut       ... 1.0000e-11
Integration weight cutoff        WCut        ... 1.0000e-14
Angular grids for H and He will be reduced by one unit
Partially contracted basis set               ... on
Rotationally invariant grid construction     ... off

Total number of grid points                  ...    69220
Total number of batches                      ...     1105
Average number of points per batch           ...       62
Average number of grid points per atom       ...     1331
UseSFitting                                  ... on

GRIDX 3
-------
General Integration Accuracy     IntAcc      ... 4.338
Radial Grid Type                 RadialGrid  ... OptM3 with GC (2021)
Angular Grid (max. ang.)         AngularGrid ... 3 (Lebedev-194)
Angular grid pruning method      GridPruning ... 4 (adaptive)
Weight generation scheme         WeightScheme... Becke
Basis function cutoff            BFCut       ... 1.0000e-11
Integration weight cutoff        WCut        ... 1.0000e-14
Angular grids for H and He will be reduced by one unit
Partially contracted basis set               ... on
Rotationally invariant grid construction     ... off

Total number of grid points                  ...   151454
Total number of batches                      ...     2393
Average number of points per batch           ...       63
Average number of grid points per atom       ...     2913
UseSFitting                                  ... on

Time for X-Grid setup             =    4.352 sec


--------------------
CPCM SOLVATION MODEL
--------------------
CPCM parameters:
  Epsilon                                         ...      35.6880
  Refrac                                          ...       1.3442
  Rsolv                                           ...       1.3000
  Surface type                                    ... GAUSSIAN VDW
  Epsilon function type                           ...         CPCM
Solvent:                                     ... ACETONITRILE
SMD-CDS solvent descriptors:
  Soln                                       ...    1.3442
  Soln25                                     ...    1.3416
  Sola                                       ...    0.0700
  Solb                                       ...    0.3200
  Solg                                       ...   41.2500
  Solc                                       ...    0.0000
  Solh                                       ...    0.0000
Radii:
 Radius for C  used is    3.4960 Bohr (=   1.8500 Ang.)
 Radius for H  used is    2.2677 Bohr (=   1.2000 Ang.)
 Radius for N  used is    3.5716 Bohr (=   1.8900 Ang.)
 Radius for O  used is    4.0969 Bohr (=   2.1680 Ang.)
 Radius for B  used is    3.6283 Bohr (=   1.9200 Ang.)
Calculating surface                               ...        done! (  0.0s)
GEPOL surface points                              ...         2758
GEPOL Volume                                      ...    2959.6642
GEPOL Surface-area                                ...    1554.4650
Calculating surface distance matrix               ...        done! (  0.0s)
Performing Cholesky decomposition & store         ...        done! (  0.3s)
Overall time for CPCM initialization              ...                 0.4s
--------------
SCF ITERATIONS
--------------
ITER       Energy         Delta-E        Max-DP      RMS-DP      [F,P]     Damp
               ***  Starting incremental Fock matrix formation  ***
  0  -1304.8563632396   0.000000000000 0.04997020  0.00056551  0.2666156 0.7000
  1  -1305.1148463358  -0.258483096180 0.05243972  0.00047813  0.1454072 0.7000
                               ***Turning on DIIS***
  2  -1305.2607053924  -0.145859056601 0.11201132  0.00112163  0.0708010 0.0000
  3  -1305.5265744361  -0.265869043740 0.03332046  0.00027861  0.0618340 0.0000
  4  -1305.5507870475  -0.024212611443 0.00769890  0.00010169  0.0082591 0.0000
  5  -1305.5517546258  -0.000967578226 0.00305046  0.00004375  0.0040087 0.0000
                      *** Initiating the SOSCF procedure ***
                           *** Shutting down DIIS ***
                      *** Re-Reading the Fockian *** 
                      *** Removing any level shift *** 
ITER      Energy       Delta-E        Grad      Rot      Max-DP    RMS-DP
  6  -1305.55196302  -0.0002083920  0.001585  0.001585  0.001456  0.000021
               *** Restarting incremental Fock matrix formation ***
  7  -1305.55164382   0.0003192014  0.001020  0.004331  0.020081  0.000215
  8  -1305.55168126  -0.0000374427  0.000550  0.005522  0.007898  0.000085
  9  -1305.55169491  -0.0000136532  0.000197  0.000384  0.007129  0.000075
 10  -1305.55169702  -0.0000021120  0.000053  0.000161  0.000424  0.000005
 11  -1305.55169738  -0.0000003556  0.000023  0.000067  0.000757  0.000007
 12  -1305.55169742  -0.0000000362  0.000022  0.000129  0.000137  0.000002
 13  -1305.55169742  -0.0000000078  0.000003  0.000023  0.000422  0.000003
                  ***Gradient check signals convergence***
              ***Rediagonalizing the Fockian in SOSCF/NRSCF***

               *****************************************************
               *                     SUCCESS                       *
               *           SCF CONVERGED AFTER  14 CYCLES          *
               *****************************************************

Old exchange energy                            =   -122.650809473 Eh
New exchange energy                            =   -122.650728663 Eh
Exchange energy change after final integration =      0.000080810 Eh
Total energy after final integration           =  -1305.551616628 Eh
Final COS-X integration done in                =    68.774 sec

SMD CDS free energy correction energy :                -5.66055     Kcal/mol
Total Energy after SMD CDS correction =             -1305.560637282 Eh

----------------
TOTAL SCF ENERGY
----------------

Total Energy       :        -1305.56063728 Eh          -35526.11105 eV

Components:
Nuclear Repulsion  :         2763.41707881 Eh           75196.40163 eV
Electronic Energy  :        -4068.97771610 Eh         -110722.51268 eV
One Electron Energy:        -7243.19229598 Eh         -197097.28261 eV
Two Electron Energy:         3174.21457988 Eh           86374.76993 eV
Max COSX asymmetry :            0.00000618 Eh               0.00017 eV
CPCM Dielectric    :           -0.08455671 Eh              -2.30091 eV
SMD CDS (Gcds)     :           -0.00902065 Eh              -0.24546 eV

Virial components:
Potential Energy   :        -2605.88807627 Eh          -70909.81954 eV
Kinetic Energy     :         1300.32743899 Eh           35383.70849 eV
Virial Ratio       :            2.00402452


DFT components:
N(Alpha)           :      106.000212469004 electrons
N(Beta)            :      106.000212469004 electrons
N(Total)           :      212.000424938007 electrons
E(X)               :      -54.877618601255 Eh       
E(C)               :       -4.783885981244 Eh       
E(XC)              :      -59.661504582500 Eh       
DFET-embed. en.    :        0.000000000000 Eh       
CPCM Solvation Model Properties:
Surface-charge          :           -1.04794142
Charge-correction       :            0.00464070 Eh               0.12628 eV
Free-energy (cav+disp)  :           -0.00902065 Eh              -0.24546 eV

---------------
SCF CONVERGENCE
---------------

  Last Energy change         ...   -1.4034e-08  Tolerance :   1.0000e-08
  Last MAX-Density change    ...    2.1094e-15  Tolerance :   1.0000e-07
  Last RMS-Density change    ...    1.2705e-17  Tolerance :   5.0000e-09
  Last Orbital Gradient      ...    1.8653e-06  Tolerance :   1.0000e-05
  Last Orbital Rotation      ...    4.9968e-06  Tolerance :   1.0000e-05

             **** THE GBW FILE WAS UPDATED (BOH-Acr_p_M06L_def2TZVP_coords.gbw) ****
             **** DENSITY BOH-Acr_p_M06L_def2TZVP_coords.scfp WAS UPDATED ****
             **** ENERGY FILE WAS UPDATED (BOH-Acr_p_M06L_def2TZVP_coords.en.tmp) ****
             **** THE GBW FILE WAS UPDATED (BOH-Acr_p_M06L_def2TZVP_coords.gbw) ****
             **** DENSITY BOH-Acr_p_M06L_def2TZVP_coords.scfp WAS UPDATED ****
----------------
ORBITAL ENERGIES
----------------

  NO   OCC          E(Eh)            E(eV) 
   0   2.0000     -20.041192      -545.3485 
   1   2.0000     -20.015803      -544.6577 
   2   2.0000     -20.010879      -544.5237 
   3   2.0000     -15.188530      -413.3009 
   4   2.0000     -10.918086      -297.0962 
   5   2.0000     -10.918048      -297.0952 
   6   2.0000     -10.905779      -296.7613 
   7   2.0000     -10.899129      -296.5804 
   8   2.0000     -10.873097      -295.8720 
   9   2.0000     -10.869106      -295.7634 
  10   2.0000     -10.869086      -295.7629 
  11   2.0000     -10.859054      -295.4899 
  12   2.0000     -10.856226      -295.4129 
  13   2.0000     -10.852341      -295.3072 
  14   2.0000     -10.852321      -295.3067 
  15   2.0000     -10.848266      -295.1963 
  16   2.0000     -10.848251      -295.1959 
  17   2.0000     -10.841375      -295.0088 
  18   2.0000     -10.840458      -294.9839 
  19   2.0000     -10.840048      -294.9727 
  20   2.0000     -10.840029      -294.9722 
  21   2.0000     -10.836405      -294.8736 
  22   2.0000     -10.835917      -294.8603 
  23   2.0000     -10.835902      -294.8599 
  24   2.0000     -10.835561      -294.8506 
  25   2.0000     -10.834883      -294.8322 
  26   2.0000     -10.831882      -294.7505 
  27   2.0000     -10.829117      -294.6753 
  28   2.0000     -10.827806      -294.6396 
  29   2.0000     -10.818349      -294.3822 
  30   2.0000      -7.303632      -198.7419 
  31   2.0000      -1.302018       -35.4297 
  32   2.0000      -1.264160       -34.3995 
  33   2.0000      -1.245940       -33.9037 
  34   2.0000      -1.225788       -33.3554 
  35   2.0000      -1.105064       -30.0703 
  36   2.0000      -1.087277       -29.5863 
  37   2.0000      -1.071274       -29.1509 
  38   2.0000      -1.057458       -28.7749 
  39   2.0000      -1.024575       -27.8801 
  40   2.0000      -0.973451       -26.4890 
  41   2.0000      -0.959164       -26.1002 
  42   2.0000      -0.955763       -26.0076 
  43   2.0000      -0.946956       -25.7680 
  44   2.0000      -0.939603       -25.5679 
  45   2.0000      -0.937386       -25.5076 
  46   2.0000      -0.920769       -25.0554 
  47   2.0000      -0.869111       -23.6497 
  48   2.0000      -0.849611       -23.1191 
  49   2.0000      -0.822488       -22.3810 
  50   2.0000      -0.809699       -22.0330 
  51   2.0000      -0.781275       -21.2596 
  52   2.0000      -0.770906       -20.9774 
  53   2.0000      -0.765346       -20.8261 
  54   2.0000      -0.762081       -20.7373 
  55   2.0000      -0.731849       -19.9146 
  56   2.0000      -0.711461       -19.3598 
  57   2.0000      -0.710673       -19.3384 
  58   2.0000      -0.699880       -19.0447 
  59   2.0000      -0.685834       -18.6625 
  60   2.0000      -0.678164       -18.4538 
  61   2.0000      -0.661323       -17.9955 
  62   2.0000      -0.647498       -17.6193 
  63   2.0000      -0.636291       -17.3143 
  64   2.0000      -0.627873       -17.0853 
  65   2.0000      -0.611083       -16.6284 
  66   2.0000      -0.607583       -16.5332 
  67   2.0000      -0.603809       -16.4305 
  68   2.0000      -0.596069       -16.2199 
  69   2.0000      -0.586875       -15.9697 
  70   2.0000      -0.575726       -15.6663 
  71   2.0000      -0.574691       -15.6381 
  72   2.0000      -0.570972       -15.5369 
  73   2.0000      -0.569490       -15.4966 
  74   2.0000      -0.565176       -15.3792 
  75   2.0000      -0.560202       -15.2439 
  76   2.0000      -0.550880       -14.9902 
  77   2.0000      -0.548348       -14.9213 
  78   2.0000      -0.541006       -14.7215 
  79   2.0000      -0.526663       -14.3312 
  80   2.0000      -0.520082       -14.1521 
  81   2.0000      -0.516950       -14.0669 
  82   2.0000      -0.509435       -13.8624 
  83   2.0000      -0.505270       -13.7491 
  84   2.0000      -0.500958       -13.6318 
  85   2.0000      -0.493791       -13.4367 
  86   2.0000      -0.491788       -13.3822 
  87   2.0000      -0.482903       -13.1404 
  88   2.0000      -0.479265       -13.0415 
  89   2.0000      -0.472897       -12.8682 
  90   2.0000      -0.466711       -12.6998 
  91   2.0000      -0.458671       -12.4811 
  92   2.0000      -0.454125       -12.3574 
  93   2.0000      -0.448398       -12.2015 
  94   2.0000      -0.445185       -12.1141 
  95   2.0000      -0.437129       -11.8949 
  96   2.0000      -0.432958       -11.7814 
  97   2.0000      -0.430444       -11.7130 
  98   2.0000      -0.406907       -11.0725 
  99   2.0000      -0.357510        -9.7283 
 100   2.0000      -0.337677        -9.1887 
 101   2.0000      -0.334511        -9.1025 
 102   2.0000      -0.333935        -9.0868 
 103   2.0000      -0.329186        -8.9576 
 104   2.0000      -0.307439        -8.3658 
 105   2.0000      -0.298820        -8.1313 
 106   0.0000      -0.062855        -1.7104 
 107   0.0000       0.015501         0.4218 
 108   0.0000       0.020061         0.5459 
 109   0.0000       0.035684         0.9710 
 110   0.0000       0.052227         1.4212 
 111   0.0000       0.056890         1.5481 
 112   0.0000       0.065139         1.7725 
 113   0.0000       0.069845         1.9006 
 114   0.0000       0.086483         2.3533 
 115   0.0000       0.104939         2.8555 
 116   0.0000       0.112475         3.0606 
 117   0.0000       0.115800         3.1511 
 118   0.0000       0.117293         3.1917 
 119   0.0000       0.125175         3.4062 
 120   0.0000       0.127631         3.4730 
 121   0.0000       0.129633         3.5275 
 122   0.0000       0.135445         3.6856 
 123   0.0000       0.137681         3.7465 
 124   0.0000       0.143259         3.8983 
 125   0.0000       0.147352         4.0097 
 126   0.0000       0.148996         4.0544 
 127   0.0000       0.155498         4.2313 
 128   0.0000       0.160196         4.3592 
 129   0.0000       0.163981         4.4622 
 130   0.0000       0.170544         4.6407 
 131   0.0000       0.173784         4.7289 
 132   0.0000       0.178508         4.8574 
 133   0.0000       0.182988         4.9793 
 134   0.0000       0.184222         5.0129 
 135   0.0000       0.188098         5.1184 
 136   0.0000       0.190939         5.1957 
 137   0.0000       0.195455         5.3186 
 138   0.0000       0.196355         5.3431 
 139   0.0000       0.202676         5.5151 
 140   0.0000       0.209268         5.6945 
 141   0.0000       0.216352         5.8872 
 142   0.0000       0.222231         6.0472 
 143   0.0000       0.226647         6.1674 
 144   0.0000       0.228737         6.2242 
 145   0.0000       0.231310         6.2943 
 146   0.0000       0.233065         6.3420 
 147   0.0000       0.242571         6.6007 
 148   0.0000       0.249294         6.7836 
 149   0.0000       0.253207         6.8901 
 150   0.0000       0.259000         7.0478 
 151   0.0000       0.263385         7.1671 
 152   0.0000       0.269125         7.3233 
 153   0.0000       0.272590         7.4176 
 154   0.0000       0.274538         7.4706 
 155   0.0000       0.277820         7.5599 
 156   0.0000       0.281432         7.6582 
 157   0.0000       0.283574         7.7164 
 158   0.0000       0.286533         7.7970 
 159   0.0000       0.288178         7.8417 
 160   0.0000       0.293153         7.9771 
 161   0.0000       0.295853         8.0506 
 162   0.0000       0.300391         8.1741 
 163   0.0000       0.301930         8.2159 
 164   0.0000       0.307510         8.3678 
 165   0.0000       0.308297         8.3892 
 166   0.0000       0.313796         8.5388 
 167   0.0000       0.315007         8.5718 
 168   0.0000       0.317334         8.6351 
 169   0.0000       0.320387         8.7182 
 170   0.0000       0.321633         8.7521 
 171   0.0000       0.324847         8.8395 
 172   0.0000       0.332470         9.0470 
 173   0.0000       0.337874         9.1940 
 174   0.0000       0.341190         9.2843 
 175   0.0000       0.342684         9.3249 
 176   0.0000       0.346541         9.4299 
 177   0.0000       0.348216         9.4754 
 178   0.0000       0.353551         9.6206 
 179   0.0000       0.358946         9.7674 
 180   0.0000       0.362374         9.8607 
 181   0.0000       0.367971        10.0130 
 182   0.0000       0.371740        10.1156 
 183   0.0000       0.372819        10.1449 
 184   0.0000       0.375487        10.2175 
 185   0.0000       0.378500        10.2995 
 186   0.0000       0.381292        10.3755 
 187   0.0000       0.382396        10.4055 
 188   0.0000       0.388010        10.5583 
 189   0.0000       0.397319        10.8116 
 190   0.0000       0.399742        10.8775 
 191   0.0000       0.403555        10.9813 
 192   0.0000       0.405986        11.0474 
 193   0.0000       0.410215        11.1625 
 194   0.0000       0.411461        11.1964 
 195   0.0000       0.420394        11.4395 
 196   0.0000       0.424152        11.5418 
 197   0.0000       0.425614        11.5815 
 198   0.0000       0.428366        11.6564 
 199   0.0000       0.433009        11.7828 
 200   0.0000       0.434851        11.8329 
 201   0.0000       0.446809        12.1583 
 202   0.0000       0.447519        12.1776 
 203   0.0000       0.449533        12.2324 
 204   0.0000       0.450373        12.2553 
 205   0.0000       0.455068        12.3830 
 206   0.0000       0.457459        12.4481 
 207   0.0000       0.458093        12.4653 
 208   0.0000       0.461810        12.5665 
 209   0.0000       0.468809        12.7569 
 210   0.0000       0.471144        12.8205 
 211   0.0000       0.477367        12.9898 
 212   0.0000       0.479019        13.0348 
 213   0.0000       0.481204        13.0942 
 214   0.0000       0.484995        13.1974 
 215   0.0000       0.488478        13.2922 
 216   0.0000       0.492244        13.3946 
 217   0.0000       0.493770        13.4362 
 218   0.0000       0.497413        13.5353 
 219   0.0000       0.498950        13.5771 
 220   0.0000       0.502128        13.6636 
 221   0.0000       0.504772        13.7355 
 222   0.0000       0.508449        13.8356 
 223   0.0000       0.511470        13.9178 
 224   0.0000       0.512821        13.9546 
 225   0.0000       0.515678        14.0323 
 226   0.0000       0.518132        14.0991 
 227   0.0000       0.525083        14.2882 
 228   0.0000       0.526630        14.3303 
 229   0.0000       0.530067        14.4238 
 230   0.0000       0.532642        14.4939 
 231   0.0000       0.533821        14.5260 
 232   0.0000       0.537572        14.6281 
 233   0.0000       0.544240        14.8095 
 234   0.0000       0.546164        14.8619 
 235   0.0000       0.550893        14.9906 
 236   0.0000       0.552996        15.0478 
 237   0.0000       0.560693        15.2572 
 238   0.0000       0.563906        15.3447 
 239   0.0000       0.565513        15.3884 
 240   0.0000       0.567194        15.4341 
 241   0.0000       0.568737        15.4761 
 242   0.0000       0.573053        15.5936 
 243   0.0000       0.574040        15.6204 
 244   0.0000       0.576894        15.6981 
 245   0.0000       0.582343        15.8464 
 246   0.0000       0.587142        15.9769 
 247   0.0000       0.589336        16.0366 
 248   0.0000       0.592157        16.1134 
 249   0.0000       0.596540        16.2327 
 250   0.0000       0.597165        16.2497 
 251   0.0000       0.600799        16.3486 
 252   0.0000       0.601421        16.3655 
 253   0.0000       0.604614        16.4524 
 254   0.0000       0.607757        16.5379 
 255   0.0000       0.617512        16.8034 
 256   0.0000       0.625690        17.0259 
 257   0.0000       0.629804        17.1378 
 258   0.0000       0.636379        17.3167 
 259   0.0000       0.644130        17.5277 
 260   0.0000       0.647383        17.6162 
 261   0.0000       0.649112        17.6632 
 262   0.0000       0.654724        17.8159 
 263   0.0000       0.658269        17.9124 
 264   0.0000       0.662152        18.0181 
 265   0.0000       0.673069        18.3151 
 266   0.0000       0.678373        18.4595 
 267   0.0000       0.682505        18.5719 
 268   0.0000       0.684785        18.6339 
 269   0.0000       0.689755        18.7692 
 270   0.0000       0.694450        18.8969 
 271   0.0000       0.698715        19.0130 
 272   0.0000       0.702944        19.1281 
 273   0.0000       0.710117        19.3233 
 274   0.0000       0.711220        19.3533 
 275   0.0000       0.714823        19.4513 
 276   0.0000       0.722870        19.6703 
 277   0.0000       0.724307        19.7094 
 278   0.0000       0.728683        19.8285 
 279   0.0000       0.732602        19.9351 
 280   0.0000       0.734027        19.9739 
 281   0.0000       0.743963        20.2443 
 282   0.0000       0.746050        20.3010 
 283   0.0000       0.747954        20.3529 
 284   0.0000       0.754000        20.5174 
 285   0.0000       0.757354        20.6086 
 286   0.0000       0.760700        20.6997 
 287   0.0000       0.764071        20.7914 
 288   0.0000       0.766613        20.8606 
 289   0.0000       0.769831        20.9482 
 290   0.0000       0.775731        21.1087 
 291   0.0000       0.778631        21.1876 
 292   0.0000       0.785020        21.3615 
 293   0.0000       0.788546        21.4574 
 294   0.0000       0.791481        21.5373 
 295   0.0000       0.798318        21.7233 
 296   0.0000       0.803733        21.8707 
 297   0.0000       0.809055        22.0155 
 298   0.0000       0.811944        22.0941 
 299   0.0000       0.815758        22.1979 
 300   0.0000       0.817156        22.2359 
 301   0.0000       0.822143        22.3716 
 302   0.0000       0.827000        22.5038 
 303   0.0000       0.830190        22.5906 
 304   0.0000       0.834447        22.7064 
 305   0.0000       0.836625        22.7657 
 306   0.0000       0.841843        22.9077 
 307   0.0000       0.844641        22.9838 
 308   0.0000       0.849428        23.1141 
 309   0.0000       0.850910        23.1544 
 310   0.0000       0.853830        23.2339 
 311   0.0000       0.857074        23.3222 
 312   0.0000       0.858279        23.3550 
 313   0.0000       0.862631        23.4734 
 314   0.0000       0.863387        23.4940 
 315   0.0000       0.869672        23.6650 
 316   0.0000       0.872833        23.7510 
 317   0.0000       0.876176        23.8420 
 318   0.0000       0.884553        24.0699 
 319   0.0000       0.890003        24.2182 
 320   0.0000       0.898376        24.4461 
 321   0.0000       0.904242        24.6057 
 322   0.0000       0.910383        24.7728 
 323   0.0000       0.914128        24.8747 
 324   0.0000       0.917294        24.9608 
 325   0.0000       0.920528        25.0488 
 326   0.0000       0.926008        25.1980 
 327   0.0000       0.934397        25.4262 
 328   0.0000       0.935040        25.4437 
 329   0.0000       0.943698        25.6793 
 330   0.0000       0.954647        25.9773 
 331   0.0000       0.958722        26.0881 
 332   0.0000       0.960345        26.1323 
 333   0.0000       0.962955        26.2033 
 334   0.0000       0.966860        26.3096 
 335   0.0000       0.971092        26.4248 
 336   0.0000       0.978383        26.6232 
 337   0.0000       0.979000        26.6399 
 338   0.0000       0.985186        26.8083 
 339   0.0000       0.987645        26.8752 
 340   0.0000       0.989950        26.9379 
 341   0.0000       0.995909        27.1001 
 342   0.0000       1.002244        27.2724 
 343   0.0000       1.003480        27.3061 
 344   0.0000       1.005653        27.3652 
 345   0.0000       1.012091        27.5404 
 346   0.0000       1.013836        27.5879 
 347   0.0000       1.019270        27.7358 
 348   0.0000       1.031988        28.0818 
 349   0.0000       1.038924        28.2706 
 350   0.0000       1.045319        28.4446 
 351   0.0000       1.050275        28.5794 
 352   0.0000       1.052813        28.6485 
 353   0.0000       1.063426        28.9373 
 354   0.0000       1.065652        28.9979 
 355   0.0000       1.071462        29.1560 
 356   0.0000       1.075362        29.2621 
 357   0.0000       1.085573        29.5399 
 358   0.0000       1.090947        29.6862 
 359   0.0000       1.099877        29.9292 
 360   0.0000       1.102393        29.9976 
 361   0.0000       1.108031        30.1511 
 362   0.0000       1.111384        30.2423 
 363   0.0000       1.115098        30.3434 
 364   0.0000       1.136954        30.9381 
 365   0.0000       1.145957        31.1831 
 366   0.0000       1.151701        31.3394 
 367   0.0000       1.156812        31.4784 
 368   0.0000       1.158120        31.5140 
 369   0.0000       1.165227        31.7074 
 370   0.0000       1.171962        31.8907 
 371   0.0000       1.174568        31.9616 
 372   0.0000       1.175451        31.9857 
 373   0.0000       1.185249        32.2523 
 374   0.0000       1.189798        32.3760 
 375   0.0000       1.192850        32.4591 
 376   0.0000       1.205187        32.7948 
 377   0.0000       1.207336        32.8533 
 378   0.0000       1.212261        32.9873 
 379   0.0000       1.222654        33.2701 
 380   0.0000       1.226244        33.3678 
 381   0.0000       1.233969        33.5780 
 382   0.0000       1.235057        33.6076 
 383   0.0000       1.249032        33.9879 
 384   0.0000       1.251124        34.0448 
 385   0.0000       1.251452        34.0537 
 386   0.0000       1.265360        34.4322 
 387   0.0000       1.274223        34.6734 
 388   0.0000       1.278133        34.7798 
 389   0.0000       1.294289        35.2194 
 390   0.0000       1.298408        35.3315 
 391   0.0000       1.300929        35.4001 
 392   0.0000       1.315038        35.7840 
 393   0.0000       1.317474        35.8503 
 394   0.0000       1.326394        36.0930 
 395   0.0000       1.331074        36.2204 
 396   0.0000       1.337441        36.3936 
 397   0.0000       1.342256        36.5247 
 398   0.0000       1.349252        36.7150 
 399   0.0000       1.357443        36.9379 
 400   0.0000       1.360198        37.0129 
 401   0.0000       1.369614        37.2691 
 402   0.0000       1.370674        37.2979 
 403   0.0000       1.375915        37.4406 
 404   0.0000       1.377495        37.4836 
 405   0.0000       1.381502        37.5926 
 406   0.0000       1.392295        37.8863 
 407   0.0000       1.398739        38.0616 
 408   0.0000       1.403494        38.1910 
 409   0.0000       1.407182        38.2914 
 410   0.0000       1.413550        38.4647 
 411   0.0000       1.417198        38.5639 
 412   0.0000       1.418279        38.5933 
 413   0.0000       1.426338        38.8126 
 414   0.0000       1.427932        38.8560 
 415   0.0000       1.431311        38.9479 
 416   0.0000       1.439673        39.1755 
 417   0.0000       1.441916        39.2365 
 418   0.0000       1.445270        39.3278 
 419   0.0000       1.448265        39.4093 
 420   0.0000       1.459231        39.7077 
 421   0.0000       1.468509        39.9601 
 422   0.0000       1.478662        40.2364 
 423   0.0000       1.480011        40.2731 
 424   0.0000       1.489520        40.5319 
 425   0.0000       1.498530        40.7771 
 426   0.0000       1.501716        40.8638 
 427   0.0000       1.514655        41.2159 
 428   0.0000       1.529026        41.6069 
 429   0.0000       1.539867        41.9019 
 430   0.0000       1.541161        41.9371 
 431   0.0000       1.543119        41.9904 
 432   0.0000       1.552145        42.2360 
 433   0.0000       1.558177        42.4002 
 434   0.0000       1.571147        42.7531 
 435   0.0000       1.580717        43.0135 
 436   0.0000       1.588197        43.2170 
 437   0.0000       1.594695        43.3939 
 438   0.0000       1.596517        43.4434 
 439   0.0000       1.607513        43.7427 
 440   0.0000       1.609519        43.7972 
 441   0.0000       1.618710        44.0473 
 442   0.0000       1.623277        44.1716 
 443   0.0000       1.629551        44.3423 
 444   0.0000       1.632541        44.4237 
 445   0.0000       1.640395        44.6374 
 446   0.0000       1.647745        44.8374 
 447   0.0000       1.653505        44.9942 
 448   0.0000       1.659236        45.1501 
 449   0.0000       1.662711        45.2447 
 450   0.0000       1.664495        45.2932 
 451   0.0000       1.668327        45.3975 
 452   0.0000       1.675206        45.5847 
 453   0.0000       1.677829        45.6560 
 454   0.0000       1.682640        45.7870 
 455   0.0000       1.692225        46.0478 
 456   0.0000       1.696864        46.1740 
 457   0.0000       1.699313        46.2407 
 458   0.0000       1.703167        46.3455 
 459   0.0000       1.708174        46.4818 
 460   0.0000       1.713825        46.6355 
 461   0.0000       1.715860        46.6909 
 462   0.0000       1.724808        46.9344 
 463   0.0000       1.726022        46.9674 
 464   0.0000       1.728702        47.0404 
 465   0.0000       1.733320        47.1660 
 466   0.0000       1.736049        47.2403 
 467   0.0000       1.740789        47.3693 
 468   0.0000       1.743148        47.4335 
 469   0.0000       1.745821        47.5062 
 470   0.0000       1.749789        47.6142 
 471   0.0000       1.752380        47.6847 
 472   0.0000       1.764586        48.0168 
 473   0.0000       1.770824        48.1866 
 474   0.0000       1.772814        48.2407 
 475   0.0000       1.777648        48.3723 
 476   0.0000       1.782054        48.4922 
 477   0.0000       1.784361        48.5549 
 478   0.0000       1.796967        48.8980 
 479   0.0000       1.801979        49.0343 
 480   0.0000       1.808659        49.2161 
 481   0.0000       1.816205        49.4214 
 482   0.0000       1.816434        49.4277 
 483   0.0000       1.817600        49.4594 
 484   0.0000       1.824476        49.6465 
 485   0.0000       1.831293        49.8320 
 486   0.0000       1.837031        49.9881 
 487   0.0000       1.845548        50.2199 
 488   0.0000       1.852711        50.4148 
 489   0.0000       1.858130        50.5623 
 490   0.0000       1.865810        50.7713 
 491   0.0000       1.866326        50.7853 
 492   0.0000       1.870000        50.8853 
 493   0.0000       1.876922        51.0737 
 494   0.0000       1.880638        51.1748 
 495   0.0000       1.884861        51.2897 
 496   0.0000       1.889901        51.4268 
 497   0.0000       1.899074        51.6764 
 498   0.0000       1.900472        51.7145 
 499   0.0000       1.902961        51.7822 
 500   0.0000       1.908727        51.9391 
 501   0.0000       1.910198        51.9791 
 502   0.0000       1.919284        52.2264 
 503   0.0000       1.922970        52.3267 
 504   0.0000       1.929418        52.5021 
 505   0.0000       1.930641        52.5354 
 506   0.0000       1.936230        52.6875 
 507   0.0000       1.945678        52.9446 
 508   0.0000       1.947706        52.9998 
 509   0.0000       1.959338        53.3163 
 510   0.0000       1.959729        53.3269 
 511   0.0000       1.966453        53.5099 
 512   0.0000       1.972273        53.6683 
 513   0.0000       1.984041        53.9885 
 514   0.0000       1.994263        54.2667 
 515   0.0000       1.996891        54.3382 
 516   0.0000       2.011411        54.7333 
 517   0.0000       2.017390        54.8960 
 518   0.0000       2.023898        55.0731 
[...]
    99a -> 107a  :     0.127391 
   100a -> 107a  :     0.039922 
   101a -> 108a  :     0.018547 
   101a -> 112a  :     0.014766 
   102a -> 107a  :     0.010291 
   102a -> 108a  :     0.014688 
   102a -> 109a  :     0.018685 
   102a -> 112a  :     0.021935 
   103a -> 107a  :     0.159020 
   103a -> 109a  :     0.069352 
   105a -> 106a  :     0.015328 
   105a -> 108a  :     0.081152 
   105a -> 113a  :     0.017106 
   105a -> 117a  :     0.023944 

STATE 16:  E=   0.214305 au      5.832 eV    47034.5 cm**-1 <S**2> =   0.000000
    92a -> 106a  :     0.027181 
    93a -> 106a  :     0.019190 
    95a -> 106a  :     0.018365 
    98a -> 106a  :     0.167684 
    99a -> 107a  :     0.121471 
    99a -> 110a  :     0.010378 
   100a -> 112a  :     0.010574 
   101a -> 107a  :     0.128987 
   102a -> 107a  :     0.173342 
   102a -> 112a  :     0.010285 
   103a -> 107a  :     0.043104 
   103a -> 109a  :     0.041193 
   103a -> 110a  :     0.033616 
   105a -> 108a  :     0.064357 
   105a -> 117a  :     0.028461 

STATE 17:  E=   0.216910 au      5.902 eV    47606.1 cm**-1 <S**2> =   0.000000
    91a -> 106a  :     0.041898 
    97a -> 106a  :     0.043084 
    98a -> 106a  :     0.072281 
    99a -> 107a  :     0.030237 
   100a -> 107a  :     0.024037 
   101a -> 108a  :     0.053568 
   102a -> 107a  :     0.022082 
   102a -> 108a  :     0.053921 
   103a -> 107a  :     0.168458 
   103a -> 109a  :     0.053455 
   105a -> 108a  :     0.210433 
   105a -> 113a  :     0.097444 

STATE 18:  E=   0.212908 au      5.794 eV    46727.8 cm**-1 <S**2> =   0.000000
    91a -> 106a  :     0.345567 
    92a -> 106a  :     0.018129 
    97a -> 106a  :     0.357675 
    97a -> 108a  :     0.012764 
   101a -> 108a  :     0.015302 
   103a -> 107a  :     0.021144 
   103a -> 108a  :     0.013048 
   105a -> 108a  :     0.024670 
   105a -> 113a  :     0.012716 

STATE 19:  E=   0.202137 au      5.500 eV    44363.9 cm**-1 <S**2> =   0.000000
    96a -> 107a  :     0.013822 
   100a -> 111a  :     0.034568 
   104a -> 107a  :     0.754880 
   104a -> 109a  :     0.073105 
   104a -> 110a  :     0.048706 
   105a -> 107a  :     0.013465 

STATE 20:  E=   0.234554 au      6.383 eV    51478.6 cm**-1 <S**2> =   0.000000
    98a -> 106a  :     0.014794 
    99a -> 112a  :     0.018703 
   100a -> 107a  :     0.173872 
   100a -> 109a  :     0.077258 
   100a -> 110a  :     0.102078 
   101a -> 107a  :     0.013392 
   101a -> 108a  :     0.022857 
   101a -> 109a  :     0.037679 
   102a -> 109a  :     0.064305 
   102a -> 112a  :     0.017128 
   103a -> 109a  :     0.063524 
   103a -> 110a  :     0.047296 
   104a -> 111a  :     0.155115 
   105a -> 108a  :     0.039412 

STATE 21:  E=   0.233723 au      6.360 eV    51296.3 cm**-1 <S**2> =   0.000000
    91a -> 106a  :     0.044408 
    97a -> 106a  :     0.015381 
   100a -> 108a  :     0.030015 
   101a -> 107a  :     0.033605 
   101a -> 108a  :     0.023212 
   101a -> 109a  :     0.114008 
   101a -> 110a  :     0.080083 
   101a -> 111a  :     0.015285 
   101a -> 112a  :     0.027499 
   102a -> 107a  :     0.037310 
   102a -> 108a  :     0.022235 
   102a -> 109a  :     0.071751 
   102a -> 110a  :     0.087268 
   102a -> 112a  :     0.012830 
   103a -> 108a  :     0.135147 
   105a -> 107a  :     0.013458 
   105a -> 110a  :     0.115537 
   105a -> 111a  :     0.013493 
   105a -> 112a  :     0.023430 

STATE 22:  E=   0.232502 au      6.327 eV    51028.4 cm**-1 <S**2> =   0.000000
    92a -> 106a  :     0.042937 
    93a -> 106a  :     0.021879 
    95a -> 106a  :     0.033044 
    98a -> 106a  :     0.012338 
    99a -> 107a  :     0.043303 
    99a -> 109a  :     0.022719 
   100a -> 109a  :     0.116622 
   100a -> 112a  :     0.025860 
   101a -> 109a  :     0.026717 
   101a -> 110a  :     0.054758 
   102a -> 109a  :     0.022226 
   102a -> 110a  :     0.030302 
   102a -> 112a  :     0.011240 
   103a -> 107a  :     0.015057 
   103a -> 110a  :     0.063059 
   103a -> 112a  :     0.037912 
   104a -> 111a  :     0.038245 
   105a -> 108a  :     0.139585 
   105a -> 113a  :     0.115614 

STATE 23:  E=   0.227528 au      6.191 eV    49936.6 cm**-1 <S**2> =   0.000000
    98a -> 107a  :     0.021130 
    98a -> 109a  :     0.034005 
    98a -> 112a  :     0.012654 
   100a -> 108a  :     0.030657 
   100a -> 113a  :     0.021398 
   101a -> 107a  :     0.056357 
   101a -> 108a  :     0.053633 
   101a -> 110a  :     0.016925 
   101a -> 113a  :     0.035933 
   102a -> 107a  :     0.047288 
   102a -> 108a  :     0.101379 
   102a -> 110a  :     0.013235 
   102a -> 113a  :     0.066387 
   103a -> 108a  :     0.166906 
   103a -> 113a  :     0.131052 
   105a -> 107a  :     0.027581 
   105a -> 109a  :     0.029750 
   105a -> 110a  :     0.014131 
   105a -> 111a  :     0.016167 
   105a -> 112a  :     0.027030 

STATE 24:  E=   0.239688 au      6.522 eV    52605.5 cm**-1 <S**2> =   0.000000
    99a -> 111a  :     0.044752 
   100a -> 110a  :     0.026681 
   100a -> 111a  :     0.440933 
   100a -> 112a  :     0.014777 
   101a -> 111a  :     0.081431 
   102a -> 111a  :     0.071005 
   104a -> 109a  :     0.207217 
   104a -> 110a  :     0.038292 

STATE 25:  E=   0.234099 au      6.370 eV    51378.9 cm**-1 <S**2> =   0.000000
    87a -> 106a  :     0.015750 
    89a -> 106a  :     0.235238 
    92a -> 106a  :     0.044880 
    93a -> 106a  :     0.014174 
    96a -> 106a  :     0.014459 
    98a -> 106a  :     0.017818 
    98a -> 108a  :     0.011755 
    99a -> 109a  :     0.014633 
   100a -> 109a  :     0.035122 
   101a -> 107a  :     0.020044 
   101a -> 108a  :     0.055453 
   102a -> 107a  :     0.023989 
   102a -> 108a  :     0.050111 
   103a -> 110a  :     0.026309 
   103a -> 112a  :     0.019107 
   104a -> 111a  :     0.013610 
   105a -> 108a  :     0.043607 
   105a -> 113a  :     0.196652 

STATE 26:  E=   0.232219 au      6.319 eV    50966.3 cm**-1 <S**2> =   0.000000
    95a -> 111a  :     0.014048 
   100a -> 108a  :     0.010845 
   103a -> 108a  :     0.010968 
   104a -> 111a  :     0.023031 
   105a -> 109a  :     0.020225 
   105a -> 110a  :     0.217126 
   105a -> 111a  :     0.535434 
   105a -> 112a  :     0.013880 
   105a -> 113a  :     0.018597 

STATE 27:  E=   0.233980 au      6.367 eV    51352.7 cm**-1 <S**2> =   0.000000
    87a -> 106a  :     0.024777 
    88a -> 106a  :     0.023131 
    89a -> 106a  :     0.416448 
    90a -> 106a  :     0.023953 
    93a -> 106a  :     0.018403 
    96a -> 106a  :     0.026651 
    98a -> 106a  :     0.035035 
   100a -> 109a  :     0.026155 
   101a -> 108a  :     0.023435 
   102a -> 107a  :     0.010168 
   102a -> 108a  :     0.024363 
   103a -> 110a  :     0.015733 
   104a -> 111a  :     0.010120 
   105a -> 108a  :     0.021060 
   105a -> 113a  :     0.118571 

STATE 28:  E=   0.233294 au      6.348 eV    51202.1 cm**-1 <S**2> =   0.000000
    98a -> 107a  :     0.015713 
    99a -> 108a  :     0.023614 
   100a -> 108a  :     0.056970 
   101a -> 107a  :     0.195918 
   101a -> 108a  :     0.039954 
   101a -> 110a  :     0.026200 
   102a -> 107a  :     0.179854 
   102a -> 108a  :     0.062438 
   102a -> 110a  :     0.025160 
   103a -> 108a  :     0.066652 
   105a -> 109a  :     0.057036 
   105a -> 111a  :     0.036854 
   105a -> 112a  :     0.088420 

STATE 29:  E=   0.233504 au      6.354 eV    51248.3 cm**-1 <S**2> =   0.000000
   101a -> 107a  :     0.120840 
   102a -> 107a  :     0.113991 
   105a -> 109a  :     0.025297 
   105a -> 110a  :     0.223419 
   105a -> 111a  :     0.209011 
   105a -> 112a  :     0.197498 

STATE 30:  E=   0.235406 au      6.406 eV    51665.6 cm**-1 <S**2> =   0.000000
    85a -> 106a  :     0.048129 
    87a -> 106a  :     0.081395 
    88a -> 106a  :     0.042233 
    89a -> 106a  :     0.028030 
    90a -> 106a  :     0.385847 
    91a -> 107a  :     0.023310 
    91a -> 109a  :     0.012139 
    91a -> 112a  :     0.017744 
    96a -> 106a  :     0.031671 
   101a -> 107a  :     0.014158 
   102a -> 109a  :     0.010629 
   103a -> 107a  :     0.051664 
   103a -> 109a  :     0.045234 
   104a -> 108a  :     0.034821 
   104a -> 113a  :     0.015130 


-------------------------
TD-DFT-EXCITATION SPECTRA
-------------------------

Center of mass = (  0.0850, -0.0018,  0.0100)
Calculating the Dipole integrals                  ... done
Transforming integrals                            ... done
Calculating the Linear Momentum integrals         ... done
Transforming integrals                            ... done
Calculating angular momentum integrals            ... done
Transforming integrals                            ... done

-----------------------------------------------------------------------------
         ABSORPTION SPECTRUM VIA TRANSITION ELECTRIC DIPOLE MOMENTS
-----------------------------------------------------------------------------
State   Energy    Wavelength  fosc         T2        TX        TY        TZ  
        (cm-1)      (nm)                 (au**2)    (au)      (au)      (au) 
-----------------------------------------------------------------------------
   1   23659.5    422.7   0.263079630   3.66064  -1.91310  -0.00614   0.02549
   2   28704.6    348.4   0.340718263   3.90768  -0.00607   1.97432  -0.09849
   3   27707.7    360.9   0.002216359   0.02633  -0.11630   0.11300   0.00617
   4   31715.6    315.3   0.137713007   1.42948  -1.18336  -0.17068   0.00285
   5   31656.3    315.9   0.048650964   0.50595  -0.32573   0.63138   0.03482
   6   32924.5    303.7   0.026790718   0.26788  -0.01580  -0.35862   0.37286
   7   36830.3    271.5   0.258031280   2.30644  -0.02027  -1.51816  -0.03506
   8   38087.0    262.6   0.127056199   1.09823   0.06929  -0.87608   0.57089
   9   39133.6    255.5   0.820796208   6.90496   0.01872  -2.62553   0.10582
  10   39531.8    253.0   0.100825082   0.83965   0.09037   0.88712   0.21097
  11   45145.1    221.5   0.136862877   0.99805  -0.99876   0.02304  -0.00110
  12   46676.3    214.2   0.077624916   0.54750   0.71810  -0.01454   0.17779
  13   46676.5    214.2   0.048330830   0.34088  -0.58073  -0.00238   0.06020
  14   45279.3    220.9   0.049054911   0.35666  -0.00759   0.55234   0.22699
  15   43468.6    230.1   0.000825580   0.00625  -0.07384  -0.01044   0.02629
  16   47034.5    212.6   0.009426569   0.06598   0.25685   0.00139   0.00280
  17   47606.1    210.1   0.850759292   5.88328   2.42399   0.04479   0.07455
  18   46727.8    214.0   0.123308391   0.86875  -0.86489   0.10232   0.33204
  19   44363.9    225.4   0.036183297   0.26851  -0.44549   0.02499   0.26348
  20   51478.6    194.3   1.786247742  11.42328   3.37439  -0.09381  -0.16716
  21   51296.3    194.9   0.309024341   1.98327   0.48167   0.68414   1.13279
  22   51028.4    196.0   0.010123561   0.06531   0.23157   0.04751   0.09711
  23   49936.6    200.3   0.076483311   0.50422   0.00868   0.63167  -0.32426
  24   52605.5    190.1   0.422352494   2.64314   0.12097   0.03463   1.62090
  25   51378.9    194.6   0.001653259   0.01059  -0.10036   0.01498   0.01721
  26   50966.3    196.2   0.011976888   0.07736   0.07719  -0.22187  -0.14893
  27   51352.7    194.7   0.001473271   0.00944  -0.09525   0.01923   0.00132
  28   51202.1    195.3   0.108223248   0.69584  -0.00629  -0.80658  -0.21268
  29   51248.3    195.1   0.013730561   0.08820  -0.03937   0.28794  -0.06118
  30   51665.6    193.6   0.000891561   0.00568  -0.07275  -0.01515   0.01260

-----------------------------------------------------------------------------
         ABSORPTION SPECTRUM VIA TRANSITION VELOCITY DIPOLE MOMENTS
-----------------------------------------------------------------------------
State   Energy    Wavelength   fosc        P2         PX        PY        PZ  
        (cm-1)      (nm)                 (au**2)     (au)      (au)      (au) 
-----------------------------------------------------------------------------
   1   23659.5    422.7   0.368184767   0.05954   0.24398   0.00079  -0.00328
   2   28704.6    348.4   0.445965718   0.08749   0.00090  -0.29542   0.01471
   3   27707.7    360.9   0.003765596   0.00071   0.01904  -0.01869  -0.00102
   4   31715.6    315.3   0.182621666   0.03959   0.19684   0.02894  -0.00039
   5   31656.3    315.9   0.067195208   0.01454   0.05452  -0.10738  -0.00582
   6   32924.5    303.7   0.037641733   0.00847   0.00279   0.06324  -0.06681
   7   36830.3    271.5   0.370388135   0.09323   0.00468   0.30521   0.00751
   8   38087.0    262.6   0.173162460   0.04508  -0.01567   0.17666  -0.11671
   9   39133.6    255.5   1.090639331   0.29170  -0.00365   0.53965  -0.02160
  10   39531.8    253.0   0.133986674   0.03620  -0.01896  -0.18409  -0.04420
  11   45145.1    221.5   0.147550288   0.04553   0.21331  -0.00480   0.00044
  12   46676.3    214.2   0.082358857   0.02627  -0.15725   0.00318  -0.03918
  13   46676.5    214.2   0.054876086   0.01751   0.13161   0.00051  -0.01363
  14   45279.3    220.9   0.061943200   0.01917   0.00183  -0.12829  -0.05203
  15   43468.6    230.1   0.001345798   0.00040   0.01886   0.00241  -0.00618
  16   47034.5    212.6   0.011659734   0.00375  -0.06122  -0.00035  -0.00074
  17   47606.1    210.1   1.063494104   0.34602  -0.58787  -0.01103  -0.01776
  18   46727.8    214.0   0.159828236   0.05104   0.20986  -0.02517  -0.07979
  19   44363.9    225.4   0.052799693   0.01601   0.10968  -0.00595  -0.06280
  20   51478.6    194.3   2.048269214   0.72064  -0.84754   0.02363   0.04205
  21   51296.3    194.9   0.360469195   0.12638  -0.12123  -0.17277  -0.28606
  22   51028.4    196.0   0.011798688   0.00411  -0.05800  -0.01213  -0.02458
  23   49936.6    200.3   0.098831634   0.03373  -0.00218  -0.16318   0.08425
  24   52605.5    190.1   0.495545100   0.17816  -0.03281  -0.00922  -0.42072
  25   51378.9    194.6   0.001894779   0.00067   0.02509  -0.00405  -0.00440
  26   50966.3    196.2   0.015355930   0.00535  -0.02042   0.05869   0.03857
  27   51352.7    194.7   0.001746982   0.00061   0.02422  -0.00516  -0.00027
  28   51202.1    195.3   0.142556084   0.04989   0.00164   0.21593   0.05708
  29   51248.3    195.1   0.017463658   0.00612   0.01048  -0.07595   0.01544
  30   51665.6    193.6   0.001157617   0.00041   0.01950   0.00412  -0.00341

-------------------------------------------------------------------
                             CD SPECTRUM
-------------------------------------------------------------------
State  Energy     Wavelength     R         MX        MY        MZ   
       (cm-1)       (nm)     (1e40*cgs)   (au)      (au)      (au)  
-------------------------------------------------------------------
   1   23659.5    422.7    -34.28176   0.03808  -0.01988   0.00037
   2   28704.6    348.4     -3.49304  -0.00774   0.00849   0.24595
   3   27707.7    360.9      1.10207  -0.02998  -0.00548  -0.08587
   4   31715.6    315.3    -33.82326   0.05722   0.02615   0.14963
   5   31656.3    315.9    -41.66064   0.00336  -0.10810  -0.54615
   6   32924.5    303.7    101.71517   0.01178  -0.24305   0.34537
   7   36830.3    271.5     77.38882   0.01836  -0.11149   0.13492
   8   38087.0    262.6    -95.88746   0.00829   0.28950   0.08700
   9   39133.6    255.5    111.18879   0.02687  -0.08331   0.15694
  10   39531.8    253.0    -45.10930  -0.00771  -0.12933   0.09361
  11   45145.1    221.5    -20.73915   0.04308  -0.04159   0.00045
  12   46676.3    214.2     -3.77560  -0.00768   0.23636   0.00533
  13   46676.5    214.2     -6.01895   0.02190   0.04207   0.00080
  14   45279.3    220.9    101.25726   0.01789  -0.13718   1.28060
  15   43468.6    230.1     -1.76036   0.04003   0.02595  -0.01930
  16   47034.5    212.6      0.36244   0.00292   0.01036   0.00187
  17   47606.1    210.1     31.14541   0.02634  -0.02955   0.04734
  18   46727.8    214.0     12.26310  -0.00399  -0.22976   0.13874
  19   44363.9    225.4      1.77974   0.00143   0.33168  -0.01470
  20   51478.6    194.3    -81.94855  -0.04603   0.35743  -0.08993
  21   51296.3    194.9    -103.75235   0.01526  -1.34033   0.60872
  22   51028.4    196.0     -4.84568  -0.03821  -0.11859   0.04329
  23   49936.6    200.3    106.71345   0.01157  -0.04833  -0.79189
  24   52605.5    190.1      9.34038   0.01151   1.78100  -0.02668
  25   51378.9    194.6      3.72108  -0.08284  -0.01773  -0.00903
  26   50966.3    196.2    -18.30558   0.22047   0.06662   0.27574
  27   51352.7    194.7     -4.81019   0.09736  -0.04627  -0.02977
  28   51202.1    195.3    -130.58853  -0.04103   0.34534  -0.00608
  29   51248.3    195.1      0.18528  -0.08876   0.05221   0.29639
  30   51665.6    193.6      5.22704  -0.15711   0.02458   0.00236

Total run time:    28588.941 sec

           *** ORCA-CIS/TD-DFT FINISHED WITHOUT ERROR ***

Maximum memory used throughout the entire CIS-calculation: 5480.1 MB

-----------------------
CIS/TD-DFT TOTAL ENERGY
-----------------------

    E(SCF)  =  -1305.560637282 Eh
    DE(CIS) =      0.107800700 Eh (Root  1)
    ----------------------------- ---------
    E(tot)  =  -1305.452836582 Eh


-------------------------   --------------------
FINAL SINGLE POINT ENERGY     -1305.452836582130
-------------------------   --------------------


                            ***************************************
                            *     ORCA property calculations      *
                            ***************************************


  WARNING: The energy has been calculated at the MP2 level but the densities
           used in the property calculations are still SCF densities
           MP2 response densities have not been calculated 
           use %mp2 Density relaxed end
           or  %mp2 Density unrelaxed end

                                    ---------------------
                                    Active property flags
                                    ---------------------
   (+) Dipole Moment


------------------------------------------------------------------------------
                       ORCA ELECTRIC PROPERTIES CALCULATION
------------------------------------------------------------------------------

Dipole Moment Calculation                       ... on
Quadrupole Moment Calculation                   ... off
Polarizability Calculation                      ... off
GBWName                                         ... BOH-Acr_p_M06L_def2TZVP_coords.gbw
Electron density                                ... BOH-Acr_p_M06L_def2TZVP_coords.scfp
The origin for moment calculation is the CENTER OF MASS  = ( 0.084974, -0.001836  0.009978)

-------------
DIPOLE MOMENT
-------------
                                X             Y             Z
Electronic contribution:     16.28540      -0.05133       2.16470
Nuclear contribution   :    -18.09944       0.39115      -2.12544
                        -----------------------------------------
Total Dipole Moment    :     -1.81404       0.33982       0.03925
                        -----------------------------------------
Magnitude (a.u.)       :      1.84601
Magnitude (Debye)      :      4.69219



--------------------
Rotational spectrum 
--------------------
 
Rotational constants in cm-1:     0.012596     0.002183     0.001953 
Rotational constants in MHz :   377.610801    65.449689    58.549588 

 Dipole components along the rotational axes: 
x,y,z [a.u.] :    -1.814274    -0.339173     0.033692 
x,y,z [Debye]:    -4.611518    -0.862109     0.085638 

 

Timings for individual modules:

Sum of individual times         ...    30065.612 sec (= 501.094 min)
GTO integral calculation        ...        3.858 sec (=   0.064 min)   0.0 %
SCF iterations                  ...      526.759 sec (=   8.779 min)   1.8 %
MP2 module                      ...      943.995 sec (=  15.733 min)   3.1 %
CIS module                      ...    28590.999 sec (= 476.517 min)  95.1 %
                             ****ORCA TERMINATED NORMALLY****
TOTAL RUN TIME: 0 days 8 hours 21 minutes 33 seconds 684 msec
