
                                 *****************
                                 * O   R   C   A *
                                 *****************

                                            #,                                       
                                            ###                                      
                                            ####                                     
                                            #####                                    
                                            ######                                   
                                           ########,                                 
                                     ,,################,,,,,                         
                               ,,#################################,,                 
                          ,,##########################################,,             
                       ,#########################################, ''#####,          
                    ,#############################################,,   '####,        
                  ,##################################################,,,,####,       
                ,###########''''           ''''###############################       
              ,#####''   ,,,,##########,,,,          '''####'''          '####       
            ,##' ,,,,###########################,,,                        '##       
           ' ,,###''''                  '''############,,,                           
         ,,##''                                '''############,,,,        ,,,,,,###''
      ,#''                                            '''#######################'''  
     '                                                          ''''####''''         
             ,#######,   #######,   ,#######,      ##                                
            ,#'     '#,  ##    ##  ,#'     '#,    #''#        ######   ,####,        
            ##       ##  ##   ,#'  ##            #'  '#       #        #'  '#        
            ##       ##  #######   ##           ,######,      #####,   #    #        
            '#,     ,#'  ##    ##  '#,     ,#' ,#      #,         ##   #,  ,#        
             '#######'   ##     ##  '#######'  #'      '#     #####' # '####'        



                  #######################################################
                  #                        -***-                        #
                  #          Department of theory and spectroscopy      #
                  #    Directorship and core code : Frank Neese         #
                  #        Max Planck Institute fuer Kohlenforschung    #
                  #                Kaiser Wilhelm Platz 1               #
                  #                 D-45470 Muelheim/Ruhr               #
                  #                      Germany                        #
                  #                                                     #
                  #                  All rights reserved                #
                  #                        -***-                        #
                  #######################################################


                         Program Version 5.0.2 -  RELEASE  -


 With contributions from (in alphabetic order):
   Daniel Aravena         : Magnetic Suceptibility
   Michael Atanasov       : Ab Initio Ligand Field Theory (pilot matlab implementation)
   Alexander A. Auer      : GIAO ZORA, VPT2 properties, NMR spectrum
   Ute Becker             : Parallelization
   Giovanni Bistoni       : ED, misc. LED, open-shell LED, HFLD
   Martin Brehm           : Molecular dynamics
   Dmytro Bykov           : SCF Hessian
   Vijay G. Chilkuri      : MRCI spin determinant printing, contributions to CSF-ICE
   Dipayan Datta          : RHF DLPNO-CCSD density
   Achintya Kumar Dutta   : EOM-CC, STEOM-CC
   Dmitry Ganyushin       : Spin-Orbit,Spin-Spin,Magnetic field MRCI
   Miquel Garcia          : C-PCM and meta-GGA Hessian, CC/C-PCM, Gaussian charge scheme
   Yang Guo               : DLPNO-NEVPT2, F12-NEVPT2, CIM, IAO-localization
   Andreas Hansen         : Spin unrestricted coupled pair/coupled cluster methods
   Benjamin Helmich-Paris : MC-RPA, TRAH-SCF, COSX integrals
   Lee Huntington         : MR-EOM, pCC
   Robert Izsak           : Overlap fitted RIJCOSX, COSX-SCS-MP3, EOM
   Marcus Kettner         : VPT2
   Christian Kollmar      : KDIIS, OOCD, Brueckner-CCSD(T), CCSD density, CASPT2, CASPT2-K
   Simone Kossmann        : Meta GGA functionals, TD-DFT gradient, OOMP2, MP2 Hessian
   Martin Krupicka        : Initial AUTO-CI
   Lucas Lang             : DCDCAS
   Marvin Lechner         : AUTO-CI (C++ implementation), FIC-MRCC
   Dagmar Lenk            : GEPOL surface, SMD
   Dimitrios Liakos       : Extrapolation schemes; Compound Job, initial MDCI parallelization
   Dimitrios Manganas     : Further ROCIS development; embedding schemes
   Dimitrios Pantazis     : SARC Basis sets
   Anastasios Papadopoulos: AUTO-CI, single reference methods and gradients
   Taras Petrenko         : DFT Hessian,TD-DFT gradient, ASA, ECA, R-Raman, ABS, FL, XAS/XES, NRVS
   Peter Pinski           : DLPNO-MP2, DLPNO-MP2 Gradient
   Christoph Reimann      : Effective Core Potentials
   Marius Retegan         : Local ZFS, SOC
   Christoph Riplinger    : Optimizer, TS searches, QM/MM, DLPNO-CCSD(T), (RO)-DLPNO pert. Triples
   Tobias Risthaus        : Range-separated hybrids, TD-DFT gradient, RPA, STAB
   Michael Roemelt        : Original ROCIS implementation
   Masaaki Saitow         : Open-shell DLPNO-CCSD energy and density
   Barbara Sandhoefer     : DKH picture change effects
   Avijit Sen             : IP-ROCIS
   Kantharuban Sivalingam : CASSCF convergence, NEVPT2, FIC-MRCI
   Bernardo de Souza      : ESD, SOC TD-DFT
   Georgi Stoychev        : AutoAux, RI-MP2 NMR, DLPNO-MP2 response
   Willem Van den Heuvel  : Paramagnetic NMR
   Boris Wezisla          : Elementary symmetry handling
   Frank Wennmohs         : Technical directorship


 We gratefully acknowledge several colleagues who have allowed us to
 interface, adapt or use parts of their codes:
   Stefan Grimme, W. Hujo, H. Kruse, P. Pracht,  : VdW corrections, initial TS optimization,
                  C. Bannwarth, S. Ehlert          DFT functionals, gCP, sTDA/sTD-DF
   Ed Valeev, F. Pavosevic, A. Kumar             : LibInt (2-el integral package), F12 methods
   Garnet Chan, S. Sharma, J. Yang, R. Olivares  : DMRG
   Ulf Ekstrom                                   : XCFun DFT Library
   Mihaly Kallay                                 : mrcc  (arbitrary order and MRCC methods)
   Jiri Pittner, Ondrej Demel                    : Mk-CCSD
   Frank Weinhold                                : gennbo (NPA and NBO analysis)
   Christopher J. Cramer and Donald G. Truhlar   : smd solvation model
   Lars Goerigk                                  : TD-DFT with DH, B97 family of functionals
   V. Asgeirsson, H. Jonsson                     : NEB implementation
   FAccTs GmbH                                   : IRC, NEB, NEB-TS, DLPNO-Multilevel, CI-OPT
                                                   MM, QMMM, 2- and 3-layer-ONIOM, Crystal-QMMM,
                                                   LR-CPCM, SF, NACMEs, symmetry and pop. for TD-DFT,
                                                   nearIR, NL-DFT gradient (VV10), updates on ESD,
                                                   ML-optimized integration grids
   S Lehtola, MJT Oliveira, MAL Marques          : LibXC Library
   Liviu Ungur et al                             : ANISO software


 Your calculation uses the libint2 library for the computation of 2-el integrals
 For citations please refer to: http://libint.valeyev.net

 Your ORCA version has been built with support for libXC version: 5.1.0
 For citations please refer to: https://tddft.org/programs/libxc/

 This ORCA versions uses:
   CBLAS   interface :  Fast vector & matrix operations
   LAPACKE interface :  Fast linear algebra routines
   SCALAPACK package :  Parallel linear algebra routines
   Shared memory     :  Shared parallel matrices
   BLAS/LAPACK       :  OpenBLAS 0.3.15  USE64BITINT DYNAMIC_ARCH NO_AFFINITY Prescott SINGLE_THREADED
        Core in use  :  Prescott
   Copyright (c) 2011-2014, The OpenBLAS Project


Your calculation utilizes the SMD solvation module
Please cite in your paper:
A.V. Marenich, C.J. Cramer, D.G. Truhlar J. Phys. Chem. B, 113, (2009), 6378 

================================================================================

----- Orbital basis set information -----
Your calculation utilizes the basis: def2-TZVP
   F. Weigend and R. Ahlrichs, Phys. Chem. Chem. Phys. 7, 3297 (2005).

----- AuxJ basis set information -----
Your calculation utilizes the auxiliary basis: def2/J
   F. Weigend, Phys. Chem. Chem. Phys. 8, 1057 (2006).

----- AuxC basis set information -----
Your calculation utilizes the auxiliary basis: def2-TZVP/C
  H-La, Hf-Rn : A. Hellweg, C. Hattig, S. Hofener and W. Klopper, Theor. Chem. Acc. 117, 587 (2007).
        Ce-Lu : J. Chmela and M. E. Harding, Mol. Phys. (2018).

================================================================================
                                        WARNINGS
                       Please study these warnings very carefully!
================================================================================

INFO   : Checking CIS options ...
  ===> : (D) CORRECTION FOUND - SETTING MODE=3
  ===> : JK MODE FOUND - ACTIVATING RI-MP2 CODE
  ===> : MP2 AND CIS FOUND - CHECKING
WARNING: CIS(D) and MP2 runs must have the same orbital window
  ===> : adjusting orbital windows

WARNING: No MP2 level density has been requested!
         To caclulate MP2 level properties use
         %mp2 Density relaxed end
         or
         %mp2 Density unrelaxed end
         Otherwise for double-hybrid DFT only the energy is correct!

WARNING: The frozen-core approximation is turned on by default for 
         the MP2 part of double-hybrid DFT.

WARNING: CIS/ROCIS methods need fully converged wavefunctions
  ===> : Setting SCFConvForced true
         You can overwrite this default with %scf ConvForced false 


INFO   : the flag for use of the SHARK integral package has been found!

================================================================================
                                       INPUT FILE
================================================================================
NAME = BOH-Acr_p_M06L_def2TZVP_coords.inp
|  1> %maxcore 20000
|  2> %pal
|  3>  nprocs= 4
|  4> end
|  5> ! RI-B2GP-PLYP   def2-TZVP def2/J def2-TZVP/C RIJCOSX CPCM TightSCF
|  6> %TDDFT  
|  7>    NROOTS   30
|  8>    dcorr 4
|  9>    TDA      FALSE
| 10> END
| 11> 
| 12> %CPCM
| 13>    SMD          TRUE
| 14>    SMDsolvent   "ACETONITRILE"
| 15> END
| 16>    
| 17> 
| 18> * xyz 1 1
| 19> C                  -0.99815600   -3.59492200    0.24638100
| 20> C                  -1.67788100   -2.40979500    0.17633400
| 21> C                  -0.96971200   -1.19623700    0.12146300
| 22> C                   0.45725200   -1.20773700    0.11133000
| 23> C                   1.11251800   -2.46141800    0.21572500
| 24> C                   0.40645600   -3.62559900    0.27957300
| 25> C                   1.16289900    0.00657700    0.02600200
| 26> C                   0.44603300    1.21608400   -0.02810600
| 27> C                  -0.97992300    1.19540200    0.02317300
| 28> C                  -1.69757800    2.40447500    0.00145200
| 29> H                  -2.77527400    2.38913800    0.05955700
| 30> C                  -1.02900200    3.59407800   -0.09559500
| 31> C                   0.37259700    3.63375600   -0.19007200
| 32> C                   1.08807000    2.47405500   -0.15897900
| 33> H                  -1.55633400   -4.52108300    0.28830500
| 34> H                  -2.75720700   -2.40121200    0.16548000
| 35> H                   2.19194000   -2.47972300    0.25387900
| 36> H                   0.92335900   -4.57190200    0.36113100
| 37> H                  -1.59429400    4.51673400   -0.11106000
| 38> H                   0.87938100    4.58347900   -0.29275400
| 39> H                   2.16461600    2.49898500   -0.24432400
| 40> N                  -1.63780300   -0.00275000    0.08515800
| 41> C                   2.63708300    0.01059200   -0.00613700
| 42> C                   3.32575700   -0.60525700   -1.05285100
| 43> C                   3.36658900    0.62850000    1.01037300
| 44> C                   4.70822600   -0.59090000   -1.08002000
| 45> C                   4.74961300    0.61413500    0.98144300
| 46> C                   5.45609800    0.01064800   -0.06250800
| 47> H                   5.22392100   -1.06167700   -1.90834200
| 48> H                   5.27930300    1.09415300    1.79808800
| 49> H                   2.76772500   -1.08182200   -1.84966000
| 50> H                   2.84234400    1.10538600    1.82941400
| 51> C                  -3.08481100   -0.00716300    0.11213200
| 52> C                  -3.78865400    0.00084400   -1.07706800
| 53> C                  -3.74597100   -0.01701900    1.33251500
| 54> C                  -5.17489700   -0.00000500   -1.05937300
| 55> H                  -3.25448900    0.00878600   -2.01882500
| 56> C                  -5.12446300   -0.01807800    1.35656000
| 57> H                  -3.17810500   -0.02360900    2.25417100
| 58> C                  -5.84899100   -0.00891000    0.16146500
| 59> H                  -5.71859800    0.00631500   -1.99286200
| 60> H                  -5.66148600   -0.02492100    2.29574700
| 61> O                  -7.19054800   -0.00914000    0.28675300
| 62> C                  -7.96491700    0.00239400   -0.90361400
| 63> H                  -9.00420200    0.00215400   -0.58782900
| 64> H                  -7.76999600    0.89748800   -1.49802800
| 65> H                  -7.77408300   -0.88356300   -1.51286000
| 66> B                   7.01824700   -0.00761200   -0.11345300
| 67> O                   7.82596900    0.50635800    0.86212300
| 68> H                   7.34866700    0.88524900    1.60754600
| 69> O                   7.61392700   -0.57547400   -1.20247400
| 70> H                   8.57600500   -0.54598500   -1.14644000
| 71> *
| 72> 
| 73> 
| 74>                          ****END OF INPUT****
================================================================================

                       ****************************
                       * Single Point Calculation *
                       ****************************

---------------------------------
CARTESIAN COORDINATES (ANGSTROEM)
---------------------------------
  C     -0.998156   -3.594922    0.246381
  C     -1.677881   -2.409795    0.176334
  C     -0.969712   -1.196237    0.121463
  C      0.457252   -1.207737    0.111330
  C      1.112518   -2.461418    0.215725
  C      0.406456   -3.625599    0.279573
  C      1.162899    0.006577    0.026002
  C      0.446033    1.216084   -0.028106
  C     -0.979923    1.195402    0.023173
  C     -1.697578    2.404475    0.001452
  H     -2.775274    2.389138    0.059557
  C     -1.029002    3.594078   -0.095595
  C      0.372597    3.633756   -0.190072
  C      1.088070    2.474055   -0.158979
  H     -1.556334   -4.521083    0.288305
  H     -2.757207   -2.401212    0.165480
  H      2.191940   -2.479723    0.253879
  H      0.923359   -4.571902    0.361131
  H     -1.594294    4.516734   -0.111060
  H      0.879381    4.583479   -0.292754
  H      2.164616    2.498985   -0.244324
  N     -1.637803   -0.002750    0.085158
  C      2.637083    0.010592   -0.006137
  C      3.325757   -0.605257   -1.052851
  C      3.366589    0.628500    1.010373
  C      4.708226   -0.590900   -1.080020
  C      4.749613    0.614135    0.981443
  C      5.456098    0.010648   -0.062508
  H      5.223921   -1.061677   -1.908342
  H      5.279303    1.094153    1.798088
  H      2.767725   -1.081822   -1.849660
  H      2.842344    1.105386    1.829414
  C     -3.084811   -0.007163    0.112132
  C     -3.788654    0.000844   -1.077068
  C     -3.745971   -0.017019    1.332515
  C     -5.174897   -0.000005   -1.059373
  H     -3.254489    0.008786   -2.018825
  C     -5.124463   -0.018078    1.356560
  H     -3.178105   -0.023609    2.254171
  C     -5.848991   -0.008910    0.161465
  H     -5.718598    0.006315   -1.992862
  H     -5.661486   -0.024921    2.295747
  O     -7.190548   -0.009140    0.286753
  C     -7.964917    0.002394   -0.903614
  H     -9.004202    0.002154   -0.587829
  H     -7.769996    0.897488   -1.498028
  H     -7.774083   -0.883563   -1.512860
  B      7.018247   -0.007612   -0.113453
  O      7.825969    0.506358    0.862123
  H      7.348667    0.885249    1.607546
  O      7.613927   -0.575474   -1.202474
  H      8.576005   -0.545985   -1.146440

----------------------------
CARTESIAN COORDINATES (A.U.)
----------------------------
  NO LB      ZA    FRAG     MASS         X           Y           Z
   0 C     6.0000    0    12.011   -1.886241   -6.793418    0.465593
   1 C     6.0000    0    12.011   -3.170736   -4.553853    0.333223
   2 C     6.0000    0    12.011   -1.832490   -2.260560    0.229532
   3 C     6.0000    0    12.011    0.864081   -2.282292    0.210383
   4 C     6.0000    0    12.011    2.102354   -4.651406    0.407661
   5 C     6.0000    0    12.011    0.768091   -6.851389    0.528316
   6 C     6.0000    0    12.011    2.197561    0.012429    0.049137
   7 C     6.0000    0    12.011    0.842880    2.298066   -0.053113
   8 C     6.0000    0    12.011   -1.851786    2.258982    0.043791
   9 C     6.0000    0    12.011   -3.207958    4.543799    0.002744
  10 H     1.0000    0     1.008   -5.244508    4.514817    0.112546
  11 C     6.0000    0    12.011   -1.944532    6.791823   -0.180648
  12 C     6.0000    0    12.011    0.704106    6.866804   -0.359184
  13 C     6.0000    0    12.011    2.056154    4.675286   -0.300427
  14 H     1.0000    0     1.008   -2.941045   -8.543609    0.544817
  15 H     1.0000    0     1.008   -5.210366   -4.537633    0.312712
  16 H     1.0000    0     1.008    4.142166   -4.685997    0.479762
  17 H     1.0000    0     1.008    1.744896   -8.639643    0.682439
  18 H     1.0000    0     1.008   -3.012779    8.535390   -0.209873
  19 H     1.0000    0     1.008    1.661789    8.661520   -0.553225
  20 H     1.0000    0     1.008    4.090531    4.722397   -0.461705
  21 N     7.0000    0    14.007   -3.094999   -0.005197    0.160925
  22 C     6.0000    0    12.011    4.983365    0.020016   -0.011597
  23 C     6.0000    0    12.011    6.284770   -1.143770   -1.989600
  24 C     6.0000    0    12.011    6.361931    1.187693    1.909328
  25 C     6.0000    0    12.011    8.897258   -1.116639   -2.040942
  26 C     6.0000    0    12.011    8.975468    1.160547    1.854658
  27 C     6.0000    0    12.011   10.310531    0.020122   -0.118123
  28 H     1.0000    0     1.008    9.871780   -2.006279   -3.606244
  29 H     1.0000    0     1.008    9.976437    2.067650    3.397894
  30 H     1.0000    0     1.008    5.230242   -2.044347   -3.495351
  31 H     1.0000    0     1.008    5.371252    2.088877    3.457091
  32 C     6.0000    0    12.011   -5.829448   -0.013536    0.211899
  33 C     6.0000    0    12.011   -7.159518    0.001595   -2.035364
  34 C     6.0000    0    12.011   -7.078859   -0.032161    2.518088
  35 C     6.0000    0    12.011   -9.779138   -0.000009   -2.001925
  36 H     1.0000    0     1.008   -6.150093    0.016603   -3.815026
  37 C     6.0000    0    12.011   -9.683832   -0.034162    2.563527
  38 H     1.0000    0     1.008   -6.005748   -0.044615    4.259766
  39 C     6.0000    0    12.011  -11.052991   -0.016837    0.305125
  40 H     1.0000    0     1.008  -10.806584    0.011934   -3.765963
  41 H     1.0000    0     1.008  -10.698658   -0.047094    4.338333
  42 O     8.0000    0    15.999  -13.588166   -0.017272    0.541885
  43 C     6.0000    0    12.011  -15.051512    0.004524   -1.707583
  44 H     1.0000    0     1.008  -17.015476    0.004070   -1.110836
  45 H     1.0000    0     1.008  -14.683165    1.696007   -2.830863
  46 H     1.0000    0     1.008  -14.690888   -1.669692   -2.858891
  47 B     5.0000    0    10.810   13.262565   -0.014385   -0.214395
  48 O     8.0000    0    15.999   14.788938    0.956878    1.629176
  49 H     1.0000    0     1.008   13.886968    1.672878    3.037822
  50 O     8.0000    0    15.999   14.388237   -1.087488   -2.272347
  51 H     1.0000    0     1.008   16.206301   -1.031762   -2.166458

--------------------------------
INTERNAL COORDINATES (ANGSTROEM)
--------------------------------
 C      0   0   0     0.000000000000     0.00000000     0.00000000
 C      1   0   0     1.368012669518     0.00000000     0.00000000
 C      2   1   0     1.406142659393   119.96194231     0.00000000
 C      3   2   1     1.427046314940   119.79633296     1.28739369
 C      4   3   2     1.418445591675   117.93917083   357.34875448
 C      5   4   3     1.363054480096   121.26777424     2.12441186
 C      4   3   2     1.407045502743   119.66689092   178.57432752
 C      7   4   3     1.407029395808   119.25443905     0.93368601
 C      8   7   4     1.427027608318   119.68729565     0.87968740
 C      9   8   7     1.406185627929   119.79881436   178.48592485
 H     10   9   8     1.079370225182   119.76971555   181.18244853
 C     10   9   8     1.368052369463   119.95702472     1.30434079
 C     12  10   9     1.405339817985   121.11285658     0.72703965
 C     13  12  10     1.363002126843   119.86585238   358.69869991
 H      1   2   3     1.082171196891   119.15161434   179.98423898
 H      2   1   3     1.079414698566   120.28044758   180.15656024
 H      5   4   3     1.080251199872   118.63200916   182.70870483
 H      6   5   4     1.081355531998   120.22182658   180.13436591
 H     12  10   9     1.082168335253   119.15108148   180.00842262
 H     13  12  10     1.081363672642   119.90646247   178.35532973
 H     14  13  12     1.080211351561   120.11282612   179.19709491
 N      3   2   1     1.368237865459   120.52641999   181.65261572
 C      7   4   3     1.474539759180   120.33536317   180.92652671
 C     23   7   4     1.396120362602   120.55052204    62.38178911
 C     23   7   4     1.395450422122   120.52917059   242.47302157
 C     24  23   7     1.382810476519   120.21894774   179.63745628
 C     25  23   7     1.383401128632   120.18546364   179.22398539
 C     27  25  23     1.397551896995   121.70078782     1.14402581
 H     26  24  23     1.083369582570   119.10444622   180.89295226
 H     27  25  23     1.085310016746   117.87816269   180.83087462
 H     24  23   7     1.083244429817   119.43513814     0.48579958
 H     25  23   7     1.083088748304   119.52386488     0.18240498
 C     22   3   2     1.447266120418   119.01537686     0.36560105
 C     33  22   3     1.381902934615   119.54990308   267.18422182
 C     33  22   3     1.388007331762   119.51565234    87.29627660
 C     34  33  22     1.386356191199   119.88758463   180.15776942
 H     34  33  22     1.082728760881   119.81974223     0.09490686
 C     35  33  22     1.378702098921   119.44609686   179.85042535
 H     35  33  22     1.082573325180   119.91541696   359.86126578
 C     36  34  33     1.394606554590   119.63649468     0.00000000
 H     36  34  33     1.080302010052   119.48609674   179.99816422
 H     38  35  33     1.081902375516   120.75967103   180.04682873
 O     40  36  34     1.347394641556   124.24024005   179.93059289
 C     43  40  36     1.420124633969   117.70873486   359.90513212
 H     44  43  40     1.086201424714   106.14322435   180.10757915
 H     44  43  40     1.092023565896   111.44364178   298.91760221
 H     44  43  40     1.092024775324   111.45464119    61.29103473
 B     28  27  25     1.563086152081   122.31703958   179.67920022
 O     48  28  27     1.366868143590   124.25795511     2.66227539
 H     49  48  28     0.962824510497   114.05436913     0.46050536
 O     48  28  27     1.365015989608   117.83917367   182.57255823
 H     51  48  28     0.964159472474   112.10829731   180.28987537

---------------------------
INTERNAL COORDINATES (A.U.)
---------------------------
 C      0   0   0     0.000000000000     0.00000000     0.00000000
 C      1   0   0     2.585169293124     0.00000000     0.00000000
 C      2   1   0     2.657224531477   119.96194231     0.00000000
 C      3   2   1     2.696726715659   119.79633296     1.28739369
 C      4   3   2     2.680473704133   117.93917083   357.34875448
 C      5   4   3     2.575799672995   121.26777424     2.12441186
 C      4   3   2     2.658930658150   119.66689092   178.57432752
 C      7   4   3     2.658900220455   119.25443905     0.93368601
 C      8   7   4     2.696691365265   119.68729565     0.87968740
 C      9   8   7     2.657305730243   119.79881436   178.48592485
 H     10   9   8     2.039714122703   119.76971555   181.18244853
 C     10   9   8     2.585244315148   119.95702472     1.30434079
 C     12  10   9     2.655707381086   121.11285658     0.72703965
 C     13  12  10     2.575700739686   119.86585238   358.69869991
 H      1   2   3     2.045007192142   119.15161434   179.98423898
 H      2   1   3     2.039798165219   120.28044758   180.15656024
 H      5   4   3     2.041378923598   118.63200916   182.70870483
 H      6   5   4     2.043465808876   120.22182658   180.13436591
 H     12  10   9     2.045001784430   119.15108148   180.00842262
 H     13  12  10     2.043481192464   119.90646247   178.35532973
 H     14  13  12     2.041303621203   120.11282612   179.19709491
 N      3   2   1     2.585594851778   120.52641999   181.65261572
 C      7   4   3     2.786476318428   120.33536317   180.92652671
 C     23   7   4     2.638285135309   120.55052204    62.38178911
 C     23   7   4     2.637019131275   120.52917059   242.47302157
 C     24  23   7     2.613133095738   120.21894774   179.63745628
 C     25  23   7     2.614249266473   120.18546364   179.22398539
 C     27  25  23     2.640990343263   121.70078782     1.14402581
 H     26  24  23     2.047271812878   119.10444622   180.89295226
 H     27  25  23     2.050938702051   117.87816269   180.83087462
 H     24  23   7     2.047035308450   119.43513814     0.48579958
 H     25  23   7     2.046741113025   119.52386488     0.18240498
 C     22   3   2     2.734936610492   119.01537686     0.36560105
 C     33  22   3     2.611418090085   119.54990308   267.18422182
 C     33  22   3     2.622953728905   119.51565234    87.29627660
 C     34  33  22     2.619833525432   119.88758463   180.15776942
 H     34  33  22     2.046060835384   119.81974223     0.09490686
 C     35  33  22     2.605369387224   119.44609686   179.85042535
 H     35  33  22     2.045767104479   119.91541696   359.86126578
 C     36  34  33     2.635424452746   119.63649468     0.00000000
 H     36  34  33     2.041474940923   119.48609674   179.99816422
 H     38  35  33     2.044499193364   120.75967103   180.04682873
 O     40  36  34     2.546206866853   124.24024005   179.93059289
 C     43  40  36     2.683646634237   117.70873486   359.90513212
 H     44  43  40     2.052623218984   106.14322435   180.10757915
 H     44  43  40     2.063625471332   111.44364178   298.91760221
 H     44  43  40     2.063627756819   111.45464119    61.29103473
 B     28  27  25     2.953804751157   122.31703958   179.67920022
 O     48  28  27     2.583006452566   124.25795511     2.66227539
 H     49  48  28     1.819474639866   114.05436913     0.46050536
 O     48  28  27     2.579506388782   117.83917367   182.57255823
 H     51  48  28     1.821997352402   112.10829731   180.28987537

---------------------
BASIS SET INFORMATION
---------------------
There are 5 groups of distinct atoms

 Group   1 Type C   : 11s6p2d1f contracted to 5s3p2d1f pattern {62111/411/11/1}
 Group   2 Type H   : 5s1p contracted to 3s1p pattern {311/1}
 Group   3 Type N   : 11s6p2d1f contracted to 5s3p2d1f pattern {62111/411/11/1}
 Group   4 Type O   : 11s6p2d1f contracted to 5s3p2d1f pattern {62111/411/11/1}
 Group   5 Type B   : 11s6p2d1f contracted to 5s3p2d1f pattern {62111/411/11/1}

Atom   0C    basis set group =>   1
Atom   1C    basis set group =>   1
Atom   2C    basis set group =>   1
Atom   3C    basis set group =>   1
Atom   4C    basis set group =>   1
Atom   5C    basis set group =>   1
Atom   6C    basis set group =>   1
Atom   7C    basis set group =>   1
Atom   8C    basis set group =>   1
Atom   9C    basis set group =>   1
Atom  10H    basis set group =>   2
Atom  11C    basis set group =>   1
Atom  12C    basis set group =>   1
Atom  13C    basis set group =>   1
Atom  14H    basis set group =>   2
Atom  15H    basis set group =>   2
Atom  16H    basis set group =>   2
Atom  17H    basis set group =>   2
Atom  18H    basis set group =>   2
Atom  19H    basis set group =>   2
Atom  20H    basis set group =>   2
Atom  21N    basis set group =>   3
Atom  22C    basis set group =>   1
Atom  23C    basis set group =>   1
Atom  24C    basis set group =>   1
Atom  25C    basis set group =>   1
Atom  26C    basis set group =>   1
Atom  27C    basis set group =>   1
Atom  28H    basis set group =>   2
Atom  29H    basis set group =>   2
Atom  30H    basis set group =>   2
Atom  31H    basis set group =>   2
Atom  32C    basis set group =>   1
Atom  33C    basis set group =>   1
Atom  34C    basis set group =>   1
Atom  35C    basis set group =>   1
Atom  36H    basis set group =>   2
Atom  37C    basis set group =>   1
Atom  38H    basis set group =>   2
Atom  39C    basis set group =>   1
Atom  40H    basis set group =>   2
Atom  41H    basis set group =>   2
Atom  42O    basis set group =>   4
Atom  43C    basis set group =>   1
Atom  44H    basis set group =>   2
Atom  45H    basis set group =>   2
Atom  46H    basis set group =>   2
Atom  47B    basis set group =>   5
Atom  48O    basis set group =>   4
Atom  49H    basis set group =>   2
Atom  50O    basis set group =>   4
Atom  51H    basis set group =>   2
---------------------------------
AUXILIARY/J BASIS SET INFORMATION
---------------------------------
There are 5 groups of distinct atoms

 Group   1 Type C   : 12s5p4d2f1g contracted to 6s4p3d1f1g pattern {711111/2111/211/2/1}
 Group   2 Type H   : 5s2p1d contracted to 3s1p1d pattern {311/2/1}
 Group   3 Type N   : 12s5p4d2f1g contracted to 6s4p3d1f1g pattern {711111/2111/211/2/1}
 Group   4 Type O   : 12s5p4d2f1g contracted to 6s4p3d1f1g pattern {711111/2111/211/2/1}
 Group   5 Type B   : 12s5p4d2f1g contracted to 6s4p3d1f1g pattern {711111/2111/211/2/1}

Atom   0C    basis set group =>   1
Atom   1C    basis set group =>   1
Atom   2C    basis set group =>   1
Atom   3C    basis set group =>   1
Atom   4C    basis set group =>   1
Atom   5C    basis set group =>   1
Atom   6C    basis set group =>   1
Atom   7C    basis set group =>   1
Atom   8C    basis set group =>   1
Atom   9C    basis set group =>   1
Atom  10H    basis set group =>   2
Atom  11C    basis set group =>   1
Atom  12C    basis set group =>   1
Atom  13C    basis set group =>   1
Atom  14H    basis set group =>   2
Atom  15H    basis set group =>   2
Atom  16H    basis set group =>   2
Atom  17H    basis set group =>   2
Atom  18H    basis set group =>   2
Atom  19H    basis set group =>   2
Atom  20H    basis set group =>   2
Atom  21N    basis set group =>   3
Atom  22C    basis set group =>   1
Atom  23C    basis set group =>   1
Atom  24C    basis set group =>   1
Atom  25C    basis set group =>   1
Atom  26C    basis set group =>   1
Atom  27C    basis set group =>   1
Atom  28H    basis set group =>   2
Atom  29H    basis set group =>   2
Atom  30H    basis set group =>   2
Atom  31H    basis set group =>   2
Atom  32C    basis set group =>   1
Atom  33C    basis set group =>   1
Atom  34C    basis set group =>   1
Atom  35C    basis set group =>   1
Atom  36H    basis set group =>   2
Atom  37C    basis set group =>   1
Atom  38H    basis set group =>   2
Atom  39C    basis set group =>   1
Atom  40H    basis set group =>   2
Atom  41H    basis set group =>   2
Atom  42O    basis set group =>   4
Atom  43C    basis set group =>   1
Atom  44H    basis set group =>   2
Atom  45H    basis set group =>   2
Atom  46H    basis set group =>   2
Atom  47B    basis set group =>   5
Atom  48O    basis set group =>   4
Atom  49H    basis set group =>   2
Atom  50O    basis set group =>   4
Atom  51H    basis set group =>   2
---------------------------------
AUXILIARY/C BASIS SET INFORMATION
---------------------------------
There are 5 groups of distinct atoms

 Group   1 Type C   : 8s6p5d3f1g contracted to 8s6p4d3f1g pattern {11111111/111111/2111/111/1}
 Group   2 Type H   : 4s3p2d contracted to 4s2p1d pattern {1111/21/2}
 Group   3 Type N   : 8s6p5d3f1g contracted to 8s6p4d3f1g pattern {11111111/111111/2111/111/1}
 Group   4 Type O   : 8s6p5d3f1g contracted to 8s6p4d3f1g pattern {11111111/111111/2111/111/1}
 Group   5 Type B   : 8s6p5d3f1g contracted to 8s6p4d3f1g pattern {11111111/111111/2111/111/1}

Atom   0C    basis set group =>   1
Atom   1C    basis set group =>   1
Atom   2C    basis set group =>   1
Atom   3C    basis set group =>   1
Atom   4C    basis set group =>   1
Atom   5C    basis set group =>   1
Atom   6C    basis set group =>   1
Atom   7C    basis set group =>   1
Atom   8C    basis set group =>   1
Atom   9C    basis set group =>   1
Atom  10H    basis set group =>   2
Atom  11C    basis set group =>   1
Atom  12C    basis set group =>   1
Atom  13C    basis set group =>   1
Atom  14H    basis set group =>   2
Atom  15H    basis set group =>   2
Atom  16H    basis set group =>   2
Atom  17H    basis set group =>   2
Atom  18H    basis set group =>   2
Atom  19H    basis set group =>   2
Atom  20H    basis set group =>   2
Atom  21N    basis set group =>   3
Atom  22C    basis set group =>   1
Atom  23C    basis set group =>   1
Atom  24C    basis set group =>   1
Atom  25C    basis set group =>   1
Atom  26C    basis set group =>   1
Atom  27C    basis set group =>   1
Atom  28H    basis set group =>   2
Atom  29H    basis set group =>   2
Atom  30H    basis set group =>   2
Atom  31H    basis set group =>   2
Atom  32C    basis set group =>   1
Atom  33C    basis set group =>   1
Atom  34C    basis set group =>   1
Atom  35C    basis set group =>   1
Atom  36H    basis set group =>   2
Atom  37C    basis set group =>   1
Atom  38H    basis set group =>   2
Atom  39C    basis set group =>   1
Atom  40H    basis set group =>   2
Atom  41H    basis set group =>   2
Atom  42O    basis set group =>   4
Atom  43C    basis set group =>   1
Atom  44H    basis set group =>   2
Atom  45H    basis set group =>   2
Atom  46H    basis set group =>   2
Atom  47B    basis set group =>   5
Atom  48O    basis set group =>   4
Atom  49H    basis set group =>   2
Atom  50O    basis set group =>   4
Atom  51H    basis set group =>   2


           ************************************************************
           *        Program running with 4 parallel MPI-processes     *
           *              working on a common directory               *
           ************************************************************
------------------------------------------------------------------------------
                           ORCA GTO INTEGRAL CALCULATION
                           -- RI-GTO INTEGRALS CHOSEN --
------------------------------------------------------------------------------
------------------------------------------------------------------------------
                   ___                                                        
                  /   \      - P O W E R E D   B Y -                         
                 /     \                                                     
                 |  |  |   _    _      __       _____    __    __             
                 |  |  |  | |  | |    /  \     |  _  \  |  |  /  |          
                  \  \/   | |  | |   /    \    | | | |  |  | /  /          
                 / \  \   | |__| |  /  /\  \   | |_| |  |  |/  /          
                |  |  |   |  __  | /  /__\  \  |    /   |      \           
                |  |  |   | |  | | |   __   |  |    \   |  |\   \          
                \     /   | |  | | |  |  |  |  | |\  \  |  | \   \       
                 \___/    |_|  |_| |__|  |__|  |_| \__\ |__|  \__/        
                                                                              
                      - O R C A' S   B I G   F R I E N D -                    
                                      &                                       
                       - I N T E G R A L  F E E D E R -                       
                                                                              
 v1 FN, 2020, v2 2021                                                         
------------------------------------------------------------------------------


Reading SHARK input file BOH-Acr_p_M06L_def2TZVP_coords.SHARKINP.tmp ... ok
----------------------
SHARK INTEGRAL PACKAGE
----------------------

Number of atoms                             ...     52
Number of basis functions                   ...   1087
Number of shells                            ...    425
Maximum angular momentum                    ...      3
Integral batch strategy                     ... SHARK/LIBINT Hybrid
RI-J (if used) integral strategy            ... SPLIT-RIJ (Revised 2003 algorithm where possible)
Printlevel                                  ...      1
Contraction scheme used                     ... SEGMENTED contraction
Coulomb Range Separation                    ... NOT USED
Exchange Range Separation                   ... NOT USED
Finite Nucleus Model                        ... NOT USED
Auxiliary Coulomb fitting basis             ... AVAILABLE
   # of basis functions in Aux-J            ...   1750
   # of shells in Aux-J                     ...    570
   Maximum angular momentum in Aux-J        ...      4
Auxiliary J/K fitting basis                 ... NOT available
Auxiliary Correlation fitting basis         ... AVAILABLE
   # of basis functions in Aux-C            ...   2671
   # of shells in Aux-C                     ...    829
   Maximum angular momentum in Aux-C        ...      4
Auxiliary 'external' fitting basis          ... NOT available
Integral threshold                          ...     2.500000e-11
Primitive cut-off                           ...     2.500000e-12
Primitive pair pre-selection threshold      ...     2.500000e-12

Calculating pre-screening integrals         ... done (  0.2 sec) Dimension = 425
Organizing shell pair data                  ... done (  1.1 sec)
Shell pair information
Total number of shell pairs                 ...     90525
Shell pairs after pre-screening             ...     54364
Total number of primitive shell pairs       ...    279376
Primitive shell pairs kept                  ...    108846
          la=0 lb=0:  13631 shell pairs
          la=1 lb=0:  15734 shell pairs
          la=1 lb=1:   4532 shell pairs
          la=2 lb=0:   7743 shell pairs
          la=2 lb=1:   4527 shell pairs
          la=2 lb=2:   1147 shell pairs
          la=3 lb=0:   3609 shell pairs
          la=3 lb=1:   2146 shell pairs
          la=3 lb=2:   1037 shell pairs
          la=3 lb=3:    258 shell pairs

Calculating one electron integrals          ... done (  0.2 sec)
Calculating RI/J V-Matrix + Cholesky decomp.... done (  0.3 sec)
Calculating RI/C V-Matrix + Cholesky decomp.... done (  0.7 sec)
Calculating Nuclear repulsion               ... done (  0.0 sec) ENN=   2763.417078813940 Eh

SHARK setup successfully completed in   3.5 seconds

Maximum memory used throughout the entire GTOINT-calculation: 112.0 MB


           ************************************************************
           *        Program running with 4 parallel MPI-processes     *
           *              working on a common directory               *
           ************************************************************
-------------------------------------------------------------------------------
                                 ORCA SCF
-------------------------------------------------------------------------------

------------
SCF SETTINGS
------------
Hamiltonian:
 Density Functional     Method          .... DFT(GTOs)
 Exchange Functional    Exchange        .... B88
   X-Alpha parameter    XAlpha          ....  0.666667
   Becke's b parameter  XBeta           ....  0.004200
 Correlation Functional Correlation     .... LYP
 LDA part of GGA corr.  LDAOpt          .... VWN-3
 Gradients option       PostSCFGGA      .... off
 Hybrid DFT is turned on
   Fraction HF Exchange ScalHFX         ....  0.650000
   Scaling of DF-GGA-X  ScalDFX         ....  0.350000
   Scaling of DF-GGA-C  ScalDFC         ....  0.640000
   Scaling of DF-LDA-C  ScalLDAC        ....  0.640000
   Perturbative correction              ....  0.360000
   Density functional embedding theory  .... OFF
 RI-approximation to the Coulomb term is turned on
   Number of AuxJ basis functions       .... 1750
   RIJ-COSX (HFX calculated with COS-X)).... on


General Settings:
 Integral files         IntName         .... BOH-Acr_p_M06L_def2TZVP_coords
 Hartree-Fock type      HFTyp           .... RHF
 Total Charge           Charge          ....    1
 Multiplicity           Mult            ....    1
 Number of Electrons    NEL             ....  212
 Basis Dimension        Dim             .... 1087
 Nuclear Repulsion      ENuc            ....   2763.4170788139 Eh

Convergence Acceleration:
 DIIS                   CNVDIIS         .... on
   Start iteration      DIISMaxIt       ....    12
   Startup error        DIISStart       ....  0.200000
   # of expansion vecs  DIISMaxEq       ....     5
   Bias factor          DIISBfac        ....   1.050
   Max. coefficient     DIISMaxC        ....  10.000
 Trust-Rad. Augm. Hess. CNVTRAH         .... auto
   Auto Start mean grad. ratio tolernc. ....  1.125000
   Auto Start start iteration           ....    20
   Auto Start num. interpolation iter.  ....    10
   Max. Number of Micro iterations      ....    16
   Max. Number of Macro iterations      .... Maxiter - #DIIS iter
   Number of Davidson start vectors     ....     2
   Converg. threshold I  (grad. norm)   ....   1.000e-05
   Converg. threshold II (energy diff.) ....   1.000e-08
   Grad. Scal. Fac. for Micro threshold ....   0.100
   Minimum threshold for Micro iter.    ....   0.010
   NR start threshold (gradient norm)   ....   0.001
   Initial trust radius                 ....   0.400
   Minimum AH scaling param. (alpha)    ....   1.000
   Maximum AH scaling param. (alpha)    .... 1000.000
   Orbital update algorithm             .... Taylor
   White noise on init. David. guess    .... on
   Maximum white noise                  ....   0.010
   Quad. conv. algorithm                .... NR
 SOSCF                  CNVSOSCF        .... on
   Start iteration      SOSCFMaxIt      ....   150
   Startup grad/error   SOSCFStart      ....  0.003300
 Level Shifting         CNVShift        .... on
   Level shift para.    LevelShift      ....    0.2500
   Turn off err/grad.   ShiftErr        ....    0.0010
 Zerner damping         CNVZerner       .... off
 Static damping         CNVDamp         .... on
   Fraction old density DampFac         ....    0.7000
   Max. Damping (<1)    DampMax         ....    0.9800
   Min. Damping (>=0)   DampMin         ....    0.0000
   Turn off err/grad.   DampErr         ....    0.1000
 Fernandez-Rico         CNVRico         .... off

SCF Procedure:
 Maximum # iterations   MaxIter         ....   125
 SCF integral mode      SCFMode         .... Direct
   Integral package                     .... SHARK and LIBINT hybrid scheme
 Reset frequency        DirectResetFreq ....    20
 Integral Threshold     Thresh          ....  2.500e-11 Eh
 Primitive CutOff       TCut            ....  2.500e-12 Eh

Convergence Tolerance:
 Convergence Check Mode ConvCheckMode   .... Total+1el-Energy
 Convergence forced     ConvForced      .... 1
 Energy Change          TolE            ....  1.000e-08 Eh
 1-El. energy change                    ....  1.000e-05 Eh
 Orbital Gradient       TolG            ....  1.000e-05
 Orbital Rotation angle TolX            ....  1.000e-05
 DIIS Error             TolErr          ....  5.000e-07


Diagonalization of the overlap matrix:
Smallest eigenvalue                        ... 4.755e-06
Time for diagonalization                   ...    0.377 sec
Threshold for overlap eigenvalues          ... 1.000e-08
Number of eigenvalues below threshold      ... 0
Time for construction of square roots      ...    0.280 sec
Total time needed                          ...    0.663 sec

Time for model grid setup =    0.867 sec

------------------------------
INITIAL GUESS: MODEL POTENTIAL
------------------------------
Loading Hartree-Fock densities                     ... done
Calculating cut-offs                               ... done
Initializing the effective Hamiltonian             ... done
Setting up the integral package (SHARK)            ... done
Starting the Coulomb interaction                   ... done (   2.1 sec)
Reading the grid                                   ... done
Mapping shells                                     ... done
Starting the XC term evaluation                    ... done (   1.3 sec)
  promolecular density results
     # of electrons  =    212.985567155
     EX              =   -175.131417671
     EC              =     -0.830196207
     EX+EC           =   -175.961613878
Transforming the Hamiltonian                       ... done (   0.2 sec)
Diagonalizing the Hamiltonian                      ... done (   0.3 sec)
Back transforming the eigenvectors                 ... done (   0.1 sec)
Now organizing SCF variables                       ... done
                      ------------------
                      INITIAL GUESS DONE (   5.0 sec)
                      ------------------
-------------------
DFT GRID GENERATION
-------------------

General Integration Accuracy     IntAcc      ... 4.388
Radial Grid Type                 RadialGrid  ... OptM3 with GC (2021)
Angular Grid (max. ang.)         AngularGrid ... 4 (Lebedev-302)
Angular grid pruning method      GridPruning ... 4 (adaptive)
Weight generation scheme         WeightScheme... Becke
Basis function cutoff            BFCut       ... 1.0000e-11
Integration weight cutoff        WCut        ... 1.0000e-14
Angular grids for H and He will be reduced by one unit
Partially contracted basis set               ... off
Rotationally invariant grid construction     ... off

Total number of grid points                  ...   250989
Total number of batches                      ...     3947
Average number of points per batch           ...       63
Average number of grid points per atom       ...     4827
Time for grid setup =    3.291 sec

--------------------
COSX GRID GENERATION
--------------------

GRIDX 1
-------
General Integration Accuracy     IntAcc      ... 3.816
Radial Grid Type                 RadialGrid  ... OptM3 with GC (2021)
Angular Grid (max. ang.)         AngularGrid ... 1 (Lebedev-50)
Angular grid pruning method      GridPruning ... 4 (adaptive)
Weight generation scheme         WeightScheme... Becke
Basis function cutoff            BFCut       ... 1.0000e-11
Integration weight cutoff        WCut        ... 1.0000e-14
Angular grids for H and He will be reduced by one unit
Partially contracted basis set               ... on
Rotationally invariant grid construction     ... off

Total number of grid points                  ...    31903
Total number of batches                      ...      523
Average number of points per batch           ...       61
Average number of grid points per atom       ...      614
UseSFitting                                  ... on

GRIDX 2
-------
General Integration Accuracy     IntAcc      ... 4.020
Radial Grid Type                 RadialGrid  ... OptM3 with GC (2021)
Angular Grid (max. ang.)         AngularGrid ... 2 (Lebedev-110)
Angular grid pruning method      GridPruning ... 4 (adaptive)
Weight generation scheme         WeightScheme... Becke
Basis function cutoff            BFCut       ... 1.0000e-11
Integration weight cutoff        WCut        ... 1.0000e-14
Angular grids for H and He will be reduced by one unit
Partially contracted basis set               ... on
Rotationally invariant grid construction     ... off

Total number of grid points                  ...    69220
Total number of batches                      ...     1105
Average number of points per batch           ...       62
Average number of grid points per atom       ...     1331
UseSFitting                                  ... on

GRIDX 3
-------
General Integration Accuracy     IntAcc      ... 4.338
Radial Grid Type                 RadialGrid  ... OptM3 with GC (2021)
Angular Grid (max. ang.)         AngularGrid ... 3 (Lebedev-194)
Angular grid pruning method      GridPruning ... 4 (adaptive)
Weight generation scheme         WeightScheme... Becke
Basis function cutoff            BFCut       ... 1.0000e-11
Integration weight cutoff        WCut        ... 1.0000e-14
Angular grids for H and He will be reduced by one unit
Partially contracted basis set               ... on
Rotationally invariant grid construction     ... off

Total number of grid points                  ...   151454
Total number of batches                      ...     2393
Average number of points per batch           ...       63
Average number of grid points per atom       ...     2913
UseSFitting                                  ... on

Time for X-Grid setup             =    8.056 sec


--------------------
CPCM SOLVATION MODEL
--------------------
CPCM parameters:
  Epsilon                                         ...      35.6880
  Refrac                                          ...       1.3442
  Rsolv                                           ...       1.3000
  Surface type                                    ... GAUSSIAN VDW
  Epsilon function type                           ...         CPCM
Solvent:                                     ... ACETONITRILE
SMD-CDS solvent descriptors:
  Soln                                       ...    1.3442
  Soln25                                     ...    1.3416
  Sola                                       ...    0.0700
  Solb                                       ...    0.3200
  Solg                                       ...   41.2500
  Solc                                       ...    0.0000
  Solh                                       ...    0.0000
Radii:
 Radius for C  used is    3.4960 Bohr (=   1.8500 Ang.)
 Radius for H  used is    2.2677 Bohr (=   1.2000 Ang.)
 Radius for N  used is    3.5716 Bohr (=   1.8900 Ang.)
 Radius for O  used is    4.0969 Bohr (=   2.1680 Ang.)
 Radius for B  used is    3.6283 Bohr (=   1.9200 Ang.)
Calculating surface                               ...        done! (  0.0s)
GEPOL surface points                              ...         2758
GEPOL Volume                                      ...    2959.6642
GEPOL Surface-area                                ...    1554.4650
Calculating surface distance matrix               ...        done! (  0.1s)
Performing Cholesky decomposition & store         ...        done! (  0.5s)
Overall time for CPCM initialization              ...                 0.6s
--------------
SCF ITERATIONS
--------------
ITER       Energy         Delta-E        Max-DP      RMS-DP      [F,P]     Damp
               ***  Starting incremental Fock matrix formation  ***
  0  -1304.9212690385   0.000000000000 0.06578750  0.00060626  0.2941241 0.7000
  1  -1305.2288208946  -0.307551856091 0.07134594  0.00051406  0.1558311 0.7000
                               ***Turning on DIIS***
  2  -1305.3985965727  -0.169775678082 0.14823083  0.00115988  0.0720015 0.0000
  3  -1305.7025336813  -0.303937108612 0.04905634  0.00030935  0.0701010 0.0000
  4  -1305.7326764378  -0.030142756522 0.01221093  0.00010468  0.0093674 0.0000
  5  -1305.7337807743  -0.001104336460 0.00383298  0.00004415  0.0053847 0.0000
                      *** Initiating the SOSCF procedure ***
                           *** Shutting down DIIS ***
                      *** Re-Reading the Fockian *** 
                      *** Removing any level shift *** 
ITER      Energy       Delta-E        Grad      Rot      Max-DP    RMS-DP
  6  -1305.73399590  -0.0002151276  0.001407  0.001407  0.001649  0.000020
               *** Restarting incremental Fock matrix formation ***
  7  -1305.73366109   0.0003348112  0.000952  0.004210  0.021863  0.000230
  8  -1305.73369538  -0.0000342917  0.000479  0.005021  0.009135  0.000096
  9  -1305.73370677  -0.0000113834  0.000216  0.000428  0.008211  0.000084
 10  -1305.73370905  -0.0000022797  0.000059  0.000132  0.000671  0.000007
 11  -1305.73370932  -0.0000002767  0.000017  0.000053  0.000427  0.000004
 12  -1305.73370934  -0.0000000191  0.000018  0.000114  0.000188  0.000001
 13  -1305.73370936  -0.0000000176  0.000003  0.000012  0.000368  0.000002
                  ***Gradient check signals convergence***
              ***Rediagonalizing the Fockian in SOSCF/NRSCF***

               *****************************************************
               *                     SUCCESS                       *
               *           SCF CONVERGED AFTER  14 CYCLES          *
               *****************************************************

Old exchange energy                            =   -115.575507387 Eh
New exchange energy                            =   -115.575415758 Eh
Exchange energy change after final integration =      0.000091629 Eh
Total energy after final integration           =  -1305.733617754 Eh
Final COS-X integration done in                =    98.879 sec

SMD CDS free energy correction energy :                -5.66055     Kcal/mol
Total Energy after SMD CDS correction =             -1305.742638408 Eh

----------------
TOTAL SCF ENERGY
----------------

Total Energy       :        -1305.74263841 Eh          -35531.06356 eV

Components:
Nuclear Repulsion  :         2763.41707881 Eh           75196.40163 eV
Electronic Energy  :        -4069.15971722 Eh         -110727.46518 eV
One Electron Energy:        -7243.11500047 Eh         -197095.17929 eV
Two Electron Energy:         3173.95528324 Eh           86367.71411 eV
Max COSX asymmetry :            0.00000613 Eh               0.00017 eV
CPCM Dielectric    :           -0.08466053 Eh              -2.30373 eV
SMD CDS (Gcds)     :           -0.00902065 Eh              -0.24546 eV

Virial components:
Potential Energy   :        -2607.43518635 Eh          -70951.91855 eV
Kinetic Energy     :         1301.69254794 Eh           35420.85499 eV
Virial Ratio       :            2.00311140


DFT components:
N(Alpha)           :      106.000226790312 electrons
N(Beta)            :      106.000226790312 electrons
N(Total)           :      212.000453580625 electrons
E(X)               :      -62.336828035011 Eh       
E(C)               :       -4.649242142362 Eh       
E(XC)              :      -66.986070177372 Eh       
DFET-embed. en.    :        0.000000000000 Eh       
CPCM Solvation Model Properties:
Surface-charge          :           -1.05138155
Charge-correction       :            0.00498305 Eh               0.13560 eV
Free-energy (cav+disp)  :           -0.00902065 Eh              -0.24546 eV

---------------
SCF CONVERGENCE
---------------

  Last Energy change         ...   -2.3937e-08  Tolerance :   1.0000e-08
  Last MAX-Density change    ...    1.6653e-15  Tolerance :   1.0000e-07
  Last RMS-Density change    ...    1.1955e-17  Tolerance :   5.0000e-09
  Last Orbital Gradient      ...    2.0130e-06  Tolerance :   1.0000e-05
  Last Orbital Rotation      ...    4.2351e-06  Tolerance :   1.0000e-05

             **** THE GBW FILE WAS UPDATED (BOH-Acr_p_M06L_def2TZVP_coords.gbw) ****
             **** DENSITY BOH-Acr_p_M06L_def2TZVP_coords.scfp WAS UPDATED ****
             **** ENERGY FILE WAS UPDATED (BOH-Acr_p_M06L_def2TZVP_coords.en.tmp) ****
             **** THE GBW FILE WAS UPDATED (BOH-Acr_p_M06L_def2TZVP_coords.gbw) ****
             **** DENSITY BOH-Acr_p_M06L_def2TZVP_coords.scfp WAS UPDATED ****
----------------
ORBITAL ENERGIES
----------------

  NO   OCC          E(Eh)            E(eV) 
   0   2.0000     -19.975149      -543.5514 
   1   2.0000     -19.952469      -542.9343 
   2   2.0000     -19.947503      -542.7992 
   3   2.0000     -15.128650      -411.6715 
   4   2.0000     -10.871268      -295.8223 
   5   2.0000     -10.871232      -295.8213 
   6   2.0000     -10.857932      -295.4594 
   7   2.0000     -10.853733      -295.3451 
   8   2.0000     -10.826497      -294.6040 
   9   2.0000     -10.822480      -294.4947 
  10   2.0000     -10.822461      -294.4941 
  11   2.0000     -10.817217      -294.3514 
  12   2.0000     -10.809251      -294.1347 
  13   2.0000     -10.806645      -294.0638 
  14   2.0000     -10.806626      -294.0632 
  15   2.0000     -10.802444      -293.9495 
  16   2.0000     -10.802429      -293.9490 
  17   2.0000     -10.795739      -293.7670 
  18   2.0000     -10.794881      -293.7436 
  19   2.0000     -10.794646      -293.7372 
  20   2.0000     -10.794629      -293.7368 
  21   2.0000     -10.790743      -293.6311 
  22   2.0000     -10.790730      -293.6307 
  23   2.0000     -10.790648      -293.6285 
  24   2.0000     -10.789797      -293.6053 
  25   2.0000     -10.789240      -293.5902 
  26   2.0000     -10.786257      -293.5090 
  27   2.0000     -10.783988      -293.4472 
  28   2.0000     -10.782749      -293.4135 
  29   2.0000     -10.771648      -293.1115 
  30   2.0000      -7.272296      -197.8892 
  31   2.0000      -1.274564       -34.6826 
  32   2.0000      -1.238519       -33.7018 
  33   2.0000      -1.218213       -33.1493 
  34   2.0000      -1.200753       -32.6741 
  35   2.0000      -1.079102       -29.3639 
  36   2.0000      -1.061734       -28.8913 
  37   2.0000      -1.045859       -28.4593 
  38   2.0000      -1.032437       -28.0940 
  39   2.0000      -1.000071       -27.2133 
  40   2.0000      -0.950080       -25.8530 
  41   2.0000      -0.935953       -25.4686 
  42   2.0000      -0.932717       -25.3805 
  43   2.0000      -0.924176       -25.1481 
  44   2.0000      -0.916773       -24.9467 
  45   2.0000      -0.914551       -24.8862 
  46   2.0000      -0.898529       -24.4502 
  47   2.0000      -0.848097       -23.0779 
  48   2.0000      -0.828642       -22.5485 
  49   2.0000      -0.801877       -21.8202 
  50   2.0000      -0.789232       -21.4761 
  51   2.0000      -0.761753       -20.7284 
  52   2.0000      -0.751448       -20.4479 
  53   2.0000      -0.746030       -20.3005 
  54   2.0000      -0.742642       -20.2083 
  55   2.0000      -0.713116       -19.4049 
  56   2.0000      -0.693188       -18.8626 
  57   2.0000      -0.692183       -18.8353 
  58   2.0000      -0.682385       -18.5686 
  59   2.0000      -0.667797       -18.1717 
  60   2.0000      -0.661272       -17.9941 
  61   2.0000      -0.644027       -17.5249 
  62   2.0000      -0.630478       -17.1562 
  63   2.0000      -0.619016       -16.8443 
  64   2.0000      -0.611521       -16.6403 
  65   2.0000      -0.595042       -16.1919 
  66   2.0000      -0.591301       -16.0901 
  67   2.0000      -0.587790       -15.9946 
  68   2.0000      -0.579475       -15.7683 
  69   2.0000      -0.570683       -15.5291 
  70   2.0000      -0.560664       -15.2564 
  71   2.0000      -0.559267       -15.2184 
  72   2.0000      -0.556000       -15.1295 
  73   2.0000      -0.553185       -15.0529 
  74   2.0000      -0.550525       -14.9806 
  75   2.0000      -0.545336       -14.8393 
  76   2.0000      -0.536390       -14.5959 
  77   2.0000      -0.533425       -14.5152 
  78   2.0000      -0.526852       -14.3364 
  79   2.0000      -0.511940       -13.9306 
  80   2.0000      -0.504268       -13.7218 
  81   2.0000      -0.503111       -13.6904 
  82   2.0000      -0.495055       -13.4711 
  83   2.0000      -0.491792       -13.3823 
  84   2.0000      -0.485477       -13.2105 
  85   2.0000      -0.478655       -13.0249 
  86   2.0000      -0.475129       -12.9289 
  87   2.0000      -0.468443       -12.7470 
  88   2.0000      -0.465945       -12.6790 
  89   2.0000      -0.460160       -12.5216 
  90   2.0000      -0.452215       -12.3054 
  91   2.0000      -0.446049       -12.1376 
  92   2.0000      -0.439787       -11.9672 
  93   2.0000      -0.435002       -11.8370 
  94   2.0000      -0.430249       -11.7077 
  95   2.0000      -0.424162       -11.5420 
  96   2.0000      -0.418454       -11.3867 
  97   2.0000      -0.418123       -11.3777 
  98   2.0000      -0.392157       -10.6711 
  99   2.0000      -0.343688        -9.3522 
 100   2.0000      -0.324143        -8.8204 
 101   2.0000      -0.320996        -8.7348 
 102   2.0000      -0.320300        -8.7158 
 103   2.0000      -0.315878        -8.5955 
 104   2.0000      -0.294425        -8.0117 
 105   2.0000      -0.286099        -7.7851 
 106   0.0000      -0.059493        -1.6189 
 107   0.0000       0.017642         0.4801 
 108   0.0000       0.021706         0.5907 
 109   0.0000       0.036511         0.9935 
 110   0.0000       0.052986         1.4418 
 111   0.0000       0.057647         1.5686 
 112   0.0000       0.065827         1.7912 
 113   0.0000       0.070314         1.9134 
 114   0.0000       0.078720         2.1421 
 115   0.0000       0.098316         2.6753 
 116   0.0000       0.106054         2.8859 
 117   0.0000       0.109912         2.9909 
 118   0.0000       0.114307         3.1105 
 119   0.0000       0.117962         3.2099 
 120   0.0000       0.120791         3.2869 
 121   0.0000       0.121866         3.3161 
 122   0.0000       0.128561         3.4983 
 123   0.0000       0.131694         3.5836 
 124   0.0000       0.135643         3.6910 
 125   0.0000       0.139977         3.8090 
 126   0.0000       0.142120         3.8673 
 127   0.0000       0.148147         4.0313 
 128   0.0000       0.152948         4.1619 
 129   0.0000       0.156384         4.2554 
 130   0.0000       0.163338         4.4446 
 131   0.0000       0.166228         4.5233 
 132   0.0000       0.172491         4.6937 
 133   0.0000       0.176252         4.7961 
 134   0.0000       0.177127         4.8199 
 135   0.0000       0.182663         4.9705 
 136   0.0000       0.184695         5.0258 
 137   0.0000       0.188392         5.1264 
 138   0.0000       0.188977         5.1423 
 139   0.0000       0.195677         5.3246 
 140   0.0000       0.202233         5.5030 
 141   0.0000       0.208665         5.6780 
 142   0.0000       0.216823         5.9001 
 143   0.0000       0.221473         6.0266 
 144   0.0000       0.224746         6.1157 
 145   0.0000       0.226667         6.1679 
 146   0.0000       0.227453         6.1893 
 147   0.0000       0.236884         6.4459 
 148   0.0000       0.242949         6.6110 
 149   0.0000       0.247109         6.7242 
 150   0.0000       0.253353         6.8941 
 151   0.0000       0.258449         7.0328 
 152   0.0000       0.263236         7.1630 
 153   0.0000       0.266003         7.2383 
 154   0.0000       0.268136         7.2964 
 155   0.0000       0.271525         7.3886 
 156   0.0000       0.276754         7.5309 
 157   0.0000       0.278018         7.5653 
 158   0.0000       0.279854         7.6152 
 159   0.0000       0.283036         7.7018 
 160   0.0000       0.287888         7.8338 
 161   0.0000       0.290654         7.9091 
 162   0.0000       0.295481         8.0404 
 163   0.0000       0.297505         8.0955 
 164   0.0000       0.302858         8.2412 
 165   0.0000       0.303549         8.2600 
 166   0.0000       0.308266         8.3883 
 167   0.0000       0.311036         8.4637 
 168   0.0000       0.312668         8.5081 
 169   0.0000       0.314600         8.5607 
 170   0.0000       0.318119         8.6565 
 171   0.0000       0.320287         8.7155 
 172   0.0000       0.329024         8.9532 
 173   0.0000       0.335358         9.1256 
 174   0.0000       0.336183         9.1480 
 175   0.0000       0.338064         9.1992 
 176   0.0000       0.341974         9.3056 
 177   0.0000       0.344183         9.3657 
 178   0.0000       0.349790         9.5183 
 179   0.0000       0.355097         9.6627 
 180   0.0000       0.357220         9.7204 
 181   0.0000       0.362150         9.8546 
 182   0.0000       0.366836         9.9821 
 183   0.0000       0.369547        10.0559 
 184   0.0000       0.372297        10.1307 
 185   0.0000       0.373266        10.1571 
 186   0.0000       0.376020        10.2320 
 187   0.0000       0.377698        10.2777 
 188   0.0000       0.382434        10.4066 
 189   0.0000       0.392717        10.6864 
 190   0.0000       0.395553        10.7635 
 191   0.0000       0.399881        10.8813 
 192   0.0000       0.401595        10.9280 
 193   0.0000       0.405970        11.0470 
 194   0.0000       0.406700        11.0669 
 195   0.0000       0.414879        11.2894 
 196   0.0000       0.418598        11.3906 
 197   0.0000       0.420493        11.4422 
 198   0.0000       0.423565        11.5258 
 199   0.0000       0.427202        11.6248 
 200   0.0000       0.431726        11.7479 
 201   0.0000       0.441136        12.0039 
 202   0.0000       0.442417        12.0388 
 203   0.0000       0.444110        12.0849 
 204   0.0000       0.444766        12.1027 
 205   0.0000       0.449693        12.2368 
 206   0.0000       0.452128        12.3030 
 207   0.0000       0.453327        12.3356 
 208   0.0000       0.456970        12.4348 
 209   0.0000       0.463990        12.6258 
 210   0.0000       0.466161        12.6849 
 211   0.0000       0.472463        12.8564 
 212   0.0000       0.473821        12.8933 
 213   0.0000       0.475900        12.9499 
 214   0.0000       0.479845        13.0572 
 215   0.0000       0.482796        13.1375 
 216   0.0000       0.487233        13.2583 
 217   0.0000       0.488701        13.2982 
 218   0.0000       0.492226        13.3942 
 219   0.0000       0.493349        13.4247 
 220   0.0000       0.495937        13.4951 
 221   0.0000       0.499183        13.5835 
 222   0.0000       0.502753        13.6806 
 223   0.0000       0.505754        13.7623 
 224   0.0000       0.508061        13.8250 
 225   0.0000       0.509803        13.8724 
 226   0.0000       0.513854        13.9827 
 227   0.0000       0.518960        14.1216 
 228   0.0000       0.520260        14.1570 
 229   0.0000       0.525273        14.2934 
 230   0.0000       0.527067        14.3422 
 231   0.0000       0.528141        14.3714 
 232   0.0000       0.530800        14.4438 
 233   0.0000       0.538741        14.6599 
 234   0.0000       0.540729        14.7140 
 235   0.0000       0.544958        14.8291 
 236   0.0000       0.547458        14.8971 
 237   0.0000       0.553664        15.0660 
 238   0.0000       0.556027        15.1303 
 239   0.0000       0.558275        15.1914 
 240   0.0000       0.560915        15.2633 
 241   0.0000       0.563239        15.3265 
 242   0.0000       0.567319        15.4375 
 243   0.0000       0.568817        15.4783 
 244   0.0000       0.570028        15.5113 
 245   0.0000       0.575835        15.6693 
 246   0.0000       0.581143        15.8137 
 247   0.0000       0.583703        15.8834 
 248   0.0000       0.586466        15.9586 
 249   0.0000       0.590299        16.0629 
 250   0.0000       0.591060        16.0836 
 251   0.0000       0.594313        16.1721 
 252   0.0000       0.595395        16.2015 
 253   0.0000       0.598582        16.2882 
 254   0.0000       0.601663        16.3721 
 255   0.0000       0.611721        16.6458 
 256   0.0000       0.619762        16.8646 
 257   0.0000       0.623272        16.9601 
 258   0.0000       0.630937        17.1687 
 259   0.0000       0.637544        17.3485 
 260   0.0000       0.641429        17.4542 
 261   0.0000       0.642822        17.4921 
 262   0.0000       0.648095        17.6356 
 263   0.0000       0.651097        17.7173 
 264   0.0000       0.656302        17.8589 
 265   0.0000       0.667542        18.1647 
 266   0.0000       0.672726        18.3058 
 267   0.0000       0.677401        18.4330 
 268   0.0000       0.679852        18.4997 
 269   0.0000       0.684200        18.6180 
 270   0.0000       0.689596        18.7649 
 271   0.0000       0.695485        18.9251 
 272   0.0000       0.696970        18.9655 
 273   0.0000       0.705390        19.1946 
 274   0.0000       0.706547        19.2261 
 275   0.0000       0.709270        19.3002 
 276   0.0000       0.717313        19.5191 
 277   0.0000       0.718814        19.5599 
 278   0.0000       0.723005        19.6740 
 279   0.0000       0.724851        19.7242 
 280   0.0000       0.728428        19.8215 
 281   0.0000       0.738178        20.0868 
 282   0.0000       0.740525        20.1507 
 283   0.0000       0.742731        20.2107 
 284   0.0000       0.747912        20.3517 
 285   0.0000       0.752015        20.4634 
 286   0.0000       0.755247        20.5513 
 287   0.0000       0.758371        20.6363 
 288   0.0000       0.761203        20.7134 
 289   0.0000       0.766530        20.8584 
 290   0.0000       0.770471        20.9656 
 291   0.0000       0.772467        21.0199 
 292   0.0000       0.779003        21.1977 
 293   0.0000       0.781699        21.2711 
 294   0.0000       0.785439        21.3729 
 295   0.0000       0.793225        21.5847 
 296   0.0000       0.798533        21.7292 
 297   0.0000       0.801965        21.8226 
 298   0.0000       0.806913        21.9572 
 299   0.0000       0.809792        22.0356 
 300   0.0000       0.811353        22.0780 
 301   0.0000       0.816053        22.2059 
 302   0.0000       0.820512        22.3273 
 303   0.0000       0.824594        22.4383 
 304   0.0000       0.829430        22.5699 
 305   0.0000       0.830424        22.5970 
 306   0.0000       0.839065        22.8321 
 307   0.0000       0.841178        22.8896 
 308   0.0000       0.842691        22.9308 
 309   0.0000       0.847042        23.0492 
 310   0.0000       0.849120        23.1057 
 311   0.0000       0.852228        23.1903 
 312   0.0000       0.854375        23.2487 
 313   0.0000       0.858896        23.3717 
 314   0.0000       0.859755        23.3951 
 315   0.0000       0.865906        23.5625 
 316   0.0000       0.868827        23.6420 
 317   0.0000       0.872745        23.7486 
 318   0.0000       0.883208        24.0333 
 319   0.0000       0.887382        24.1469 
 320   0.0000       0.894530        24.3414 
 321   0.0000       0.898615        24.4526 
 322   0.0000       0.905782        24.6476 
 323   0.0000       0.909884        24.7592 
 324   0.0000       0.911619        24.8064 
 325   0.0000       0.916155        24.9298 
 326   0.0000       0.923517        25.1302 
 327   0.0000       0.928723        25.2718 
 328   0.0000       0.930081        25.3088 
 329   0.0000       0.939789        25.5729 
 330   0.0000       0.949362        25.8334 
 331   0.0000       0.953877        25.9563 
 332   0.0000       0.957093        26.0438 
 333   0.0000       0.959225        26.1018 
 334   0.0000       0.962555        26.1924 
 335   0.0000       0.966058        26.2878 
 336   0.0000       0.974044        26.5051 
 337   0.0000       0.975791        26.5526 
 338   0.0000       0.982151        26.7257 
 339   0.0000       0.984891        26.8002 
 340   0.0000       0.987719        26.8772 
 341   0.0000       0.993318        27.0296 
 342   0.0000       0.998319        27.1656 
 343   0.0000       0.999319        27.1929 
 344   0.0000       1.003055        27.2945 
 345   0.0000       1.006511        27.3886 
 346   0.0000       1.008908        27.4538 
 347   0.0000       1.015699        27.6386 
 348   0.0000       1.028589        27.9893 
 349   0.0000       1.034891        28.1608 
 350   0.0000       1.041303        28.3353 
 351   0.0000       1.046317        28.4717 
 352   0.0000       1.048204        28.5231 
 353   0.0000       1.060399        28.8549 
 354   0.0000       1.061270        28.8786 
 355   0.0000       1.067104        29.0374 
 356   0.0000       1.070774        29.1372 
 357   0.0000       1.080726        29.4080 
 358   0.0000       1.085782        29.5456 
 359   0.0000       1.094069        29.7711 
 360   0.0000       1.096787        29.8451 
 361   0.0000       1.103699        30.0332 
 362   0.0000       1.108143        30.1541 
 363   0.0000       1.112119        30.2623 
 364   0.0000       1.133023        30.8311 
 365   0.0000       1.141457        31.0606 
 366   0.0000       1.147942        31.2371 
 367   0.0000       1.152426        31.3591 
 368   0.0000       1.154199        31.4074 
 369   0.0000       1.161307        31.6008 
 370   0.0000       1.167666        31.7738 
 371   0.0000       1.170430        31.8490 
 372   0.0000       1.171537        31.8791 
 373   0.0000       1.183090        32.1935 
 374   0.0000       1.186454        32.2851 
 375   0.0000       1.189450        32.3666 
 376   0.0000       1.201460        32.6934 
 377   0.0000       1.203298        32.7434 
 378   0.0000       1.208189        32.8765 
 379   0.0000       1.218432        33.1552 
 380   0.0000       1.223201        33.2850 
 381   0.0000       1.228792        33.4371 
 382   0.0000       1.230270        33.4774 
 383   0.0000       1.244553        33.8660 
 384   0.0000       1.247340        33.9418 
 385   0.0000       1.247836        33.9553 
 386   0.0000       1.261792        34.3351 
 387   0.0000       1.271309        34.5941 
 388   0.0000       1.273612        34.6567 
 389   0.0000       1.290538        35.1173 
 390   0.0000       1.294420        35.2230 
 391   0.0000       1.297232        35.2995 
 392   0.0000       1.311154        35.6783 
 393   0.0000       1.314141        35.7596 
 394   0.0000       1.321919        35.9712 
 395   0.0000       1.327464        36.1221 
 396   0.0000       1.332943        36.2712 
 397   0.0000       1.337986        36.4085 
 398   0.0000       1.344405        36.5831 
 399   0.0000       1.353521        36.8312 
 400   0.0000       1.355359        36.8812 
 401   0.0000       1.365725        37.1633 
 402   0.0000       1.366706        37.1900 
 403   0.0000       1.372438        37.3459 
 404   0.0000       1.374149        37.3925 
 405   0.0000       1.377516        37.4841 
 406   0.0000       1.388969        37.7958 
 407   0.0000       1.393921        37.9305 
 408   0.0000       1.397955        38.0403 
 409   0.0000       1.403126        38.1810 
 410   0.0000       1.409146        38.3448 
 411   0.0000       1.413126        38.4531 
 412   0.0000       1.413948        38.4755 
 413   0.0000       1.421952        38.6933 
 414   0.0000       1.423727        38.7416 
 415   0.0000       1.427144        38.8346 
 416   0.0000       1.435732        39.0682 
 417   0.0000       1.437236        39.1092 
 418   0.0000       1.441634        39.2289 
 419   0.0000       1.444553        39.3083 
 420   0.0000       1.453982        39.5649 
 421   0.0000       1.463165        39.8148 
 422   0.0000       1.473651        40.1001 
 423   0.0000       1.474512        40.1235 
 424   0.0000       1.484075        40.3837 
 425   0.0000       1.493156        40.6308 
 426   0.0000       1.496220        40.7142 
 427   0.0000       1.509916        41.0869 
 428   0.0000       1.521807        41.4105 
 429   0.0000       1.534298        41.7504 
 430   0.0000       1.535340        41.7787 
 431   0.0000       1.536757        41.8173 
 432   0.0000       1.545294        42.0496 
 433   0.0000       1.551195        42.2101 
 434   0.0000       1.563458        42.5439 
 435   0.0000       1.574073        42.8327 
 436   0.0000       1.578223        42.9456 
 437   0.0000       1.585363        43.1399 
 438   0.0000       1.586370        43.1673 
 439   0.0000       1.598177        43.4886 
 440   0.0000       1.600044        43.5394 
 441   0.0000       1.609423        43.7946 
 442   0.0000       1.616715        43.9931 
 443   0.0000       1.622297        44.1450 
 444   0.0000       1.623314        44.1726 
 445   0.0000       1.633160        44.4405 
 446   0.0000       1.640022        44.6273 
 447   0.0000       1.644738        44.7556 
 448   0.0000       1.650392        44.9095 
 449   0.0000       1.653469        44.9932 
 450   0.0000       1.656653        45.0798 
 451   0.0000       1.659810        45.1657 
 452   0.0000       1.666918        45.3591 
 453   0.0000       1.671017        45.4707 
 454   0.0000       1.674976        45.5784 
 455   0.0000       1.682957        45.7956 
 456   0.0000       1.688641        45.9502 
 457   0.0000       1.691135        46.0181 
 458   0.0000       1.694274        46.1035 
 459   0.0000       1.699271        46.2395 
 460   0.0000       1.705040        46.3965 
 461   0.0000       1.706634        46.4399 
 462   0.0000       1.714006        46.6405 
 463   0.0000       1.719275        46.7838 
 464   0.0000       1.721011        46.8311 
 465   0.0000       1.723414        46.8965 
 466   0.0000       1.727055        46.9955 
 467   0.0000       1.731623        47.1199 
 468   0.0000       1.732591        47.1462 
 469   0.0000       1.737166        47.2707 
 470   0.0000       1.741548        47.3899 
 471   0.0000       1.745701        47.5029 
 472   0.0000       1.757352        47.8200 
 473   0.0000       1.761086        47.9216 
 474   0.0000       1.765631        48.0453 
 475   0.0000       1.769188        48.1421 
 476   0.0000       1.772266        48.2258 
 477   0.0000       1.776904        48.3520 
 478   0.0000       1.787997        48.6539 
 479   0.0000       1.793462        48.8026 
 480   0.0000       1.799863        48.9768 
 481   0.0000       1.806775        49.1649 
 482   0.0000       1.808325        49.2070 
 483   0.0000       1.809586        49.2413 
 484   0.0000       1.816908        49.4406 
 485   0.0000       1.823320        49.6150 
 486   0.0000       1.829164        49.7741 
 487   0.0000       1.836432        49.9719 
 488   0.0000       1.843173        50.1553 
 489   0.0000       1.848777        50.3078 
 490   0.0000       1.856191        50.5095 
 491   0.0000       1.857936        50.5570 
 492   0.0000       1.860176        50.6180 
 493   0.0000       1.867734        50.8236 
 494   0.0000       1.871353        50.9221 
 495   0.0000       1.874950        51.0200 
 496   0.0000       1.881602        51.2010 
 497   0.0000       1.890925        51.4547 
 498   0.0000       1.891622        51.4736 
 499   0.0000       1.895005        51.5657 
 500   0.0000       1.900123        51.7050 
 501   0.0000       1.901183        51.7338 
 502   0.0000       1.911320        52.0097 
 503   0.0000       1.914977        52.1092 
 504   0.0000       1.920857        52.2692 
 505   0.0000       1.922461        52.3128 
 506   0.0000       1.927809        52.4584 
 507   0.0000       1.937791        52.7300 
 508   0.0000       1.937990        52.7354 
 509   0.0000       1.951756        53.1100 
 510   0.0000       1.953129        53.1473 
 511   0.0000       1.960156        53.3385 
 512   0.0000       1.965358        53.4801 
 513   0.0000       1.977171        53.8016 
 514   0.0000       1.986316        54.0504 
 515   0.0000       1.989523        54.1377 
 516   0.0000       2.003950        54.5302 
 517   0.0000       2.010555        54.7100 
 518   0.0000       2.015796        54.8526 
 519   0.0000       2.020596        54.9832 
 520   0.0000       2.033480        55.3338 
[...]
   103a -> 108a  :     0.014144 
   104a -> 109a  :     0.015821 
   105a -> 107a  :     0.014820 
   105a -> 109a  :     0.658321 
   105a -> 112a  :     0.106646 

STATE 15:  E=   0.198814 au      5.410 eV    43634.7 cm**-1 <S**2> =   0.000000
    98a -> 106a  :     0.278780 
    99a -> 107a  :     0.119848 
   100a -> 107a  :     0.039499 
   101a -> 109a  :     0.019657 
   101a -> 112a  :     0.026498 
   102a -> 108a  :     0.034885 
   103a -> 107a  :     0.147458 
   103a -> 109a  :     0.061319 
   105a -> 106a  :     0.013465 
   105a -> 108a  :     0.090154 
   105a -> 113a  :     0.016094 
   105a -> 118a  :     0.018124 

STATE 16:  E=   0.214960 au      5.849 eV    47178.3 cm**-1 <S**2> =   0.000000
    92a -> 106a  :     0.014176 
    93a -> 106a  :     0.026840 
    95a -> 106a  :     0.020025 
    98a -> 106a  :     0.155099 
    99a -> 107a  :     0.110708 
   100a -> 112a  :     0.011433 
   101a -> 107a  :     0.261671 
   101a -> 112a  :     0.012058 
   102a -> 107a  :     0.063470 
   103a -> 107a  :     0.038284 
   103a -> 109a  :     0.044040 
   103a -> 110a  :     0.033870 
   105a -> 108a  :     0.072672 
   105a -> 118a  :     0.020098 

STATE 17:  E=   0.212993 au      5.796 eV    46746.6 cm**-1 <S**2> =   0.000000
    98a -> 106a  :     0.089168 
    99a -> 107a  :     0.042937 
   100a -> 107a  :     0.033534 
   101a -> 107a  :     0.015825 
   101a -> 108a  :     0.019582 
   102a -> 107a  :     0.011825 
   102a -> 108a  :     0.097526 
   103a -> 107a  :     0.192590 
   103a -> 109a  :     0.062980 
   104a -> 107a  :     0.013228 
   105a -> 108a  :     0.243895 
   105a -> 113a  :     0.068942 

STATE 18:  E=   0.196420 au      5.345 eV    43109.2 cm**-1 <S**2> =   0.000000
    96a -> 107a  :     0.011906 
   100a -> 111a  :     0.023255 
   104a -> 107a  :     0.735028 
   104a -> 109a  :     0.091395 
   104a -> 110a  :     0.050430 
   105a -> 107a  :     0.011961 

STATE 19:  E=   0.209786 au      5.709 eV    46042.7 cm**-1 <S**2> =   0.000000
    91a -> 106a  :     0.364800 
    92a -> 106a  :     0.011239 
    97a -> 106a  :     0.376669 
    97a -> 108a  :     0.013714 
   102a -> 109a  :     0.015008 
   102a -> 110a  :     0.021540 
   103a -> 108a  :     0.030070 
   105a -> 110a  :     0.011903 

STATE 20:  E=   0.231913 au      6.311 eV    50899.0 cm**-1 <S**2> =   0.000000
    98a -> 106a  :     0.015087 
    99a -> 112a  :     0.021881 
   100a -> 107a  :     0.158499 
   100a -> 109a  :     0.048106 
   100a -> 110a  :     0.085527 
   101a -> 107a  :     0.022099 
   101a -> 108a  :     0.013980 
   101a -> 109a  :     0.082542 
   101a -> 112a  :     0.010672 
   102a -> 108a  :     0.021918 
   102a -> 109a  :     0.034557 
   103a -> 109a  :     0.083123 
   103a -> 110a  :     0.060597 
   103a -> 112a  :     0.011572 
   104a -> 111a  :     0.124034 
   105a -> 108a  :     0.054977 
   105a -> 110a  :     0.013624 
   105a -> 113a  :     0.027388 

STATE 21:  E=   0.229330 au      6.240 eV    50332.1 cm**-1 <S**2> =   0.000000
    91a -> 106a  :     0.071717 
    97a -> 106a  :     0.036351 
   100a -> 107a  :     0.011789 
   100a -> 108a  :     0.028240 
   101a -> 108a  :     0.031500 
   101a -> 109a  :     0.053196 
   101a -> 110a  :     0.017354 
   102a -> 107a  :     0.078165 
   102a -> 109a  :     0.120755 
   102a -> 110a  :     0.102366 
   102a -> 112a  :     0.020892 
   103a -> 108a  :     0.118013 
   105a -> 107a  :     0.016861 
   105a -> 110a  :     0.144743 
   105a -> 111a  :     0.010938 
   105a -> 112a  :     0.013912 

STATE 22:  E=   0.232023 au      6.314 eV    50923.1 cm**-1 <S**2> =   0.000000
    92a -> 106a  :     0.027649 
    93a -> 106a  :     0.034846 
    95a -> 106a  :     0.038290 
    99a -> 107a  :     0.037802 
    99a -> 109a  :     0.030232 
   100a -> 107a  :     0.021812 
   100a -> 109a  :     0.135779 
   100a -> 112a  :     0.025915 
   101a -> 109a  :     0.021111 
   101a -> 110a  :     0.066038 
   101a -> 112a  :     0.019969 
   103a -> 107a  :     0.028390 
   103a -> 110a  :     0.042898 
   103a -> 112a  :     0.025307 
   104a -> 111a  :     0.055347 
   105a -> 108a  :     0.091834 
   105a -> 111a  :     0.014920 
   105a -> 113a  :     0.162446 

STATE 23:  E=   0.225159 au      6.127 eV    49416.8 cm**-1 <S**2> =   0.000000
    98a -> 107a  :     0.019181 
    98a -> 109a  :     0.027891 
   100a -> 108a  :     0.024586 
   100a -> 113a  :     0.019472 
   101a -> 107a  :     0.016492 
   101a -> 108a  :     0.106058 
   101a -> 113a  :     0.070150 
   102a -> 107a  :     0.088705 
   102a -> 108a  :     0.038942 
   102a -> 110a  :     0.040880 
   102a -> 113a  :     0.024212 
   103a -> 108a  :     0.166850 
   103a -> 113a  :     0.095666 
   105a -> 107a  :     0.025804 
   105a -> 109a  :     0.034926 
   105a -> 110a  :     0.019354 
   105a -> 111a  :     0.047173 
   105a -> 112a  :     0.044828 

STATE 24:  E=   0.224955 au      6.121 eV    49371.9 cm**-1 <S**2> =   0.000000
    95a -> 111a  :     0.011408 
   100a -> 108a  :     0.016573 
   101a -> 107a  :     0.010138 
   101a -> 108a  :     0.020313 
   102a -> 107a  :     0.031740 
   103a -> 108a  :     0.014846 
   103a -> 113a  :     0.012886 
   104a -> 110a  :     0.010377 
   104a -> 111a  :     0.027904 
   105a -> 110a  :     0.199750 
   105a -> 111a  :     0.514905 

STATE 25:  E=   0.238049 au      6.478 eV    52245.7 cm**-1 <S**2> =   0.000000
    99a -> 111a  :     0.043049 
   100a -> 110a  :     0.027551 
   100a -> 111a  :     0.422994 
   100a -> 112a  :     0.014168 
   101a -> 111a  :     0.148763 
   102a -> 111a  :     0.016512 
   104a -> 109a  :     0.217277 
   104a -> 110a  :     0.020314 

STATE 26:  E=   0.232489 au      6.326 eV    51025.4 cm**-1 <S**2> =   0.000000
    89a -> 106a  :     0.014875 
    92a -> 106a  :     0.015612 
    98a -> 106a  :     0.047321 
    98a -> 108a  :     0.012649 
    99a -> 109a  :     0.018639 
   100a -> 109a  :     0.067989 
   101a -> 107a  :     0.066167 
   101a -> 108a  :     0.024595 
   101a -> 109a  :     0.014863 
   101a -> 110a  :     0.019312 
   102a -> 107a  :     0.016682 
   102a -> 108a  :     0.127881 
   103a -> 110a  :     0.049887 
   103a -> 112a  :     0.034720 
   104a -> 111a  :     0.017861 
   105a -> 108a  :     0.035847 
   105a -> 113a  :     0.309877 

STATE 27:  E=   0.224981 au      6.122 eV    49377.6 cm**-1 <S**2> =   0.000000
   100a -> 108a  :     0.044027 
   101a -> 107a  :     0.087472 
   101a -> 108a  :     0.090856 
   102a -> 107a  :     0.475482 
   102a -> 108a  :     0.022830 
   102a -> 110a  :     0.029878 
   103a -> 108a  :     0.057567 
   105a -> 109a  :     0.012992 
   105a -> 110a  :     0.063706 
   105a -> 111a  :     0.016512 

STATE 28:  E=   0.229654 au      6.249 eV    50403.2 cm**-1 <S**2> =   0.000000
    99a -> 108a  :     0.024155 
    99a -> 113a  :     0.011754 
   100a -> 108a  :     0.032899 
   101a -> 108a  :     0.017066 
   102a -> 110a  :     0.015288 
   103a -> 108a  :     0.011337 
   105a -> 109a  :     0.058295 
   105a -> 110a  :     0.163851 
   105a -> 111a  :     0.229992 
   105a -> 112a  :     0.297132 

STATE 29:  E=   0.228618 au      6.221 eV    50175.9 cm**-1 <S**2> =   0.000000
    64a -> 106a  :     0.014068 
    75a -> 106a  :     0.012137 
    87a -> 106a  :     0.051388 
    88a -> 106a  :     0.051875 
    89a -> 106a  :     0.586234 
    90a -> 106a  :     0.024295 
    92a -> 106a  :     0.043325 
    93a -> 106a  :     0.021340 
    96a -> 106a  :     0.049748 

STATE 30:  E=   0.226129 au      6.153 eV    49629.6 cm**-1 <S**2> =   0.000000
    85a -> 106a  :     0.010594 
    88a -> 106a  :     0.014299 
    89a -> 106a  :     0.013399 
    90a -> 106a  :     0.059281 
    93a -> 106a  :     0.033229 
    95a -> 106a  :     0.026344 
   100a -> 107a  :     0.011125 
   101a -> 107a  :     0.061246 
   101a -> 109a  :     0.054519 
   102a -> 109a  :     0.017297 
   103a -> 107a  :     0.188790 
   103a -> 109a  :     0.122439 
   103a -> 110a  :     0.028268 
   103a -> 112a  :     0.012587 
   104a -> 108a  :     0.164342 
   104a -> 113a  :     0.047965 
   105a -> 113a  :     0.010289 


-------------------------
TD-DFT-EXCITATION SPECTRA
-------------------------

Center of mass = (  0.0850, -0.0018,  0.0100)
Calculating the Dipole integrals                  ... done
Transforming integrals                            ... done
Calculating the Linear Momentum integrals         ... done
Transforming integrals                            ... done
Calculating angular momentum integrals            ... done
Transforming integrals                            ... done

-----------------------------------------------------------------------------
         ABSORPTION SPECTRUM VIA TRANSITION ELECTRIC DIPOLE MOMENTS
-----------------------------------------------------------------------------
State   Energy    Wavelength  fosc         T2        TX        TY        TZ  
        (cm-1)      (nm)                 (au**2)    (au)      (au)      (au) 
-----------------------------------------------------------------------------
   1   23808.1    420.0   0.262231402   3.62607   1.90405   0.00617  -0.02538
   2   29830.7    335.2   0.351580322   3.88005  -0.00530   1.96741  -0.09662
   3   26162.7    382.2   0.000853560   0.01074   0.05666  -0.08664  -0.00500
   4   31032.9    322.2   0.134058064   1.42215  -1.19006  -0.07677   0.00484
   5   31567.4    316.8   0.034108712   0.35571   0.18582  -0.56445  -0.05084
   6   32581.4    306.9   0.026897755   0.27178   0.01646   0.38691  -0.34902
   7   35194.3    284.1   0.127561210   1.19322   0.00703   1.08984  -0.07362
   8   39209.3    255.0   0.063569483   0.53375   0.07462  -0.45698   0.56511
   9   39364.9    254.0   1.011496401   8.45924  -0.02068   2.90474  -0.14593
  10   40450.9    247.2   0.121936478   0.99239   0.09084   0.96870   0.21393
  11   44864.1    222.9   0.141586573   1.03896   1.01902  -0.02365  -0.00225
  12   46948.9    213.0   0.074671002   0.52360   0.70081  -0.01379   0.17965
  13   46818.7    213.6   0.035664311   0.25078   0.49721   0.00270  -0.05960
  14   44625.4    224.1   0.053601176   0.39543   0.00746  -0.59055  -0.21593
  15   43634.7    229.2   0.000454516   0.00343  -0.05070   0.00654  -0.02857
  16   47178.3    212.0   0.013940593   0.09728   0.31189   0.00051   0.00120
  17   46746.6    213.9   0.820596180   5.77903   2.40384   0.01679  -0.01729
  18   43109.2    232.0   0.043960620   0.33571  -0.52055   0.05780   0.24780
  19   46042.7    217.2   0.028467778   0.20355   0.00502   0.16313   0.42061
  20   50899.0    196.5   1.841316169  11.90954   3.43981  -0.13210  -0.24453
  21   50332.1    198.7   0.313566341   2.05097   0.76496   0.63601   1.03019
  22   50923.1    196.4   0.005350366   0.03459   0.17080  -0.02591  -0.06888
  23   49416.8    202.4   0.053896962   0.35906  -0.04538  -0.48818   0.34450
  24   49371.9    202.5   0.014477836   0.09654   0.15445  -0.26181   0.06431
  25   52245.7    191.4   0.405178762   2.55312   0.11669   0.01958   1.59346
  26   51025.4    196.0   0.000618118   0.00399  -0.06063   0.01419   0.01051
  27   49377.6    202.5   0.118790838   0.79201  -0.02242   0.87650   0.15246
  28   50403.2    198.4   0.018500246   0.12084   0.04661   0.26681   0.21789
  29   50175.9    199.3   0.000049587   0.00033  -0.00316   0.00819   0.01576
  30   49629.6    201.5   0.007002049   0.04645  -0.21129  -0.00924   0.04146

-----------------------------------------------------------------------------
         ABSORPTION SPECTRUM VIA TRANSITION VELOCITY DIPOLE MOMENTS
-----------------------------------------------------------------------------
State   Energy    Wavelength   fosc        P2         PX        PY        PZ  
        (cm-1)      (nm)                 (au**2)     (au)      (au)      (au) 
-----------------------------------------------------------------------------
   1   23808.1    420.0   0.353337044   0.05749  -0.23976  -0.00078   0.00322
   2   29830.7    335.2   0.418728072   0.08537   0.00078  -0.29183   0.01430
   3   26162.7    382.2   0.001544880   0.00028  -0.00905   0.01392   0.00081
   4   31032.9    322.2   0.177759164   0.03770   0.19374   0.01284  -0.00070
   5   31567.4    316.8   0.046173703   0.00996  -0.03057   0.09464   0.00841
   6   32581.4    306.9   0.037026151   0.00824  -0.00285  -0.06686   0.06137
   7   35194.3    284.1   0.191779634   0.04613  -0.00156  -0.21429   0.01438
   8   39209.3    255.0   0.080558832   0.02159  -0.01673   0.09096  -0.11417
   9   39364.9    254.0   1.288557753   0.34667   0.00398  -0.58804   0.02947
  10   40450.9    247.2   0.150715743   0.04167  -0.01881  -0.19837  -0.04432
  11   44864.1    222.9   0.150294352   0.04608  -0.21462   0.00486   0.00027
  12   46948.9    213.0   0.076776716   0.02464  -0.15196   0.00299  -0.03918
  13   46818.7    213.6   0.039539632   0.01265  -0.11168  -0.00057   0.01336
  14   44625.4    224.1   0.067064248   0.02045  -0.00176   0.13447   0.04866
  15   43634.7    229.2   0.000459962   0.00014   0.00956  -0.00147   0.00661
  16   47178.3    212.0   0.016644411   0.00537  -0.07326  -0.00014  -0.00038
  17   46746.6    213.9   1.031312379   0.32949  -0.57398  -0.00404   0.00434
  18   43109.2    232.0   0.065106254   0.01918   0.12521  -0.01373  -0.05758
  19   46042.7    217.2   0.037765490   0.01188  -0.00124  -0.03997  -0.10141
  20   50899.0    196.5   2.107785498   0.73323  -0.85350   0.03289   0.06080
  21   50332.1    198.7   0.370874051   0.12758  -0.19014  -0.15878  -0.25732
  22   50923.1    196.4   0.006406082   0.00223  -0.04349   0.00656   0.01717
  23   49416.8    202.4   0.068808900   0.02324   0.01154   0.12391  -0.08805
  24   49371.9    202.5   0.019093738   0.00644  -0.03982   0.06763  -0.01684
  25   52245.7    191.4   0.470641767   0.16805  -0.03130  -0.00536  -0.40871
  26   51025.4    196.0   0.000649550   0.00023   0.01433  -0.00378  -0.00264
  27   49377.6    202.5   0.160491752   0.05416   0.00588  -0.22907  -0.04067
  28   50403.2    198.4   0.024311798   0.00837  -0.01214  -0.07107  -0.05636
  29   50175.9    199.3   0.000066248   0.00002   0.00097  -0.00224  -0.00409
  30   49629.6    201.5   0.009666490   0.00328   0.05612   0.00259  -0.01108

-------------------------------------------------------------------
                             CD SPECTRUM
-------------------------------------------------------------------
State  Energy     Wavelength     R         MX        MY        MZ   
       (cm-1)       (nm)     (1e40*cgs)   (au)      (au)      (au)  
-------------------------------------------------------------------
   1   23808.1    420.0    -33.96885  -0.03791   0.01951  -0.00041
   2   29830.7    335.2     -4.72788  -0.00769   0.00658   0.23824
   3   26162.7    382.2      0.59066   0.03010   0.00180   0.05933
   4   31032.9    322.2    -29.14063   0.05135   0.01407   0.07726
   5   31567.4    316.8    -43.18730   0.00427   0.11583   0.53141
   6   32581.4    306.9     97.39235  -0.01177   0.22059  -0.34790
   7   35194.3    284.1     21.06941  -0.01381   0.03228  -0.13057
   8   39209.3    255.0    -50.59430   0.00334   0.30716   0.05804
   9   39364.9    254.0    135.60126  -0.03050   0.08796  -0.21576
  10   40450.9    247.2    -52.32088  -0.00875  -0.13254   0.08510
  11   44864.1    222.9    -23.16061  -0.04732   0.03828  -0.00005
  12   46948.9    213.0     -3.84027  -0.00850   0.23490   0.00585
  13   46818.7    213.6     -5.78673  -0.02436  -0.04311   0.00078
  14   44625.4    224.1     90.20714  -0.01625   0.13190  -1.24739
  15   43634.7    229.2      0.75353  -0.04000  -0.02893   0.00841
  16   47178.3    212.0      0.90375   0.00612   0.00887   0.00179
  17   46746.6    213.9     27.69815   0.02413   0.04950   0.00423
  18   43109.2    232.0      7.47584  -0.00019   0.19487   0.01814
  19   46042.7    217.2     14.80819   0.00746  -0.40277   0.23080
  20   50899.0    196.5    -109.94496  -0.06083   0.39879  -0.11740
  21   50332.1    198.7    -104.08375   0.01257  -1.22527   0.53280
  22   50923.1    196.4      1.85241   0.02523   0.06882  -0.02036
  23   49416.8    202.4    162.06281  -0.03377  -0.17771   0.74155
  24   49371.9    202.5    -14.23077   0.20703   0.32053   0.33830
  25   52245.7    191.4     -7.46330  -0.01830   1.70992  -0.02960
  26   51025.4    196.0      0.43684  -0.02137  -0.02639   0.00049
  27   49377.6    202.5    -100.25014  -0.02297  -0.26284   0.11297
  28   50403.2    198.4    -55.46013   0.10136  -0.26011  -0.24307
  29   50175.9    199.3      0.13368  -0.12150   0.00352  -0.00817
  30   49629.6    201.5      9.92637  -0.09851   0.03556   0.01375

Total run time:    44325.604 sec

           *** ORCA-CIS/TD-DFT FINISHED WITHOUT ERROR ***

Maximum memory used throughout the entire CIS-calculation: 5480.1 MB

-----------------------
CIS/TD-DFT TOTAL ENERGY
-----------------------

    E(SCF)  =  -1305.742638408 Eh
    DE(CIS) =      0.108477489 Eh (Root  1)
    ----------------------------- ---------
    E(tot)  =  -1305.634160919 Eh


-------------------------   --------------------
FINAL SINGLE POINT ENERGY     -1305.634160919151
-------------------------   --------------------


                            ***************************************
                            *     ORCA property calculations      *
                            ***************************************


  WARNING: The energy has been calculated at the MP2 level but the densities
           used in the property calculations are still SCF densities
           MP2 response densities have not been calculated 
           use %mp2 Density relaxed end
           or  %mp2 Density unrelaxed end

                                    ---------------------
                                    Active property flags
                                    ---------------------
   (+) Dipole Moment


------------------------------------------------------------------------------
                       ORCA ELECTRIC PROPERTIES CALCULATION
------------------------------------------------------------------------------

Dipole Moment Calculation                       ... on
Quadrupole Moment Calculation                   ... off
Polarizability Calculation                      ... off
GBWName                                         ... BOH-Acr_p_M06L_def2TZVP_coords.gbw
Electron density                                ... BOH-Acr_p_M06L_def2TZVP_coords.scfp
The origin for moment calculation is the CENTER OF MASS  = ( 0.084974, -0.001836  0.009978)

-------------
DIPOLE MOMENT
-------------
                                X             Y             Z
Electronic contribution:     16.29098      -0.05090       2.16380
Nuclear contribution   :    -18.09944       0.39115      -2.12544
                        -----------------------------------------
Total Dipole Moment    :     -1.80846       0.34025       0.03836
                        -----------------------------------------
Magnitude (a.u.)       :      1.84059
Magnitude (Debye)      :      4.67841



--------------------
Rotational spectrum 
--------------------
 
Rotational constants in cm-1:     0.012596     0.002183     0.001953 
Rotational constants in MHz :   377.610801    65.449689    58.549588 

 Dipole components along the rotational axes: 
x,y,z [a.u.] :    -1.808690    -0.339605     0.032818 
x,y,z [Debye]:    -4.597324    -0.863207     0.083417 

 

Timings for individual modules:

Sum of individual times         ...    46379.404 sec (= 772.990 min)
GTO integral calculation        ...        4.130 sec (=   0.069 min)   0.0 %
SCF iterations                  ...      757.137 sec (=  12.619 min)   1.6 %
MP2 module                      ...     1290.091 sec (=  21.502 min)   2.8 %
CIS module                      ...    44328.046 sec (= 738.801 min)  95.6 %
                             ****ORCA TERMINATED NORMALLY****
TOTAL RUN TIME: 0 days 12 hours 53 minutes 10 seconds 977 msec
