
                                 *****************
                                 * O   R   C   A *
                                 *****************

                                            #,                                       
                                            ###                                      
                                            ####                                     
                                            #####                                    
                                            ######                                   
                                           ########,                                 
                                     ,,################,,,,,                         
                               ,,#################################,,                 
                          ,,##########################################,,             
                       ,#########################################, ''#####,          
                    ,#############################################,,   '####,        
                  ,##################################################,,,,####,       
                ,###########''''           ''''###############################       
              ,#####''   ,,,,##########,,,,          '''####'''          '####       
            ,##' ,,,,###########################,,,                        '##       
           ' ,,###''''                  '''############,,,                           
         ,,##''                                '''############,,,,        ,,,,,,###''
      ,#''                                            '''#######################'''  
     '                                                          ''''####''''         
             ,#######,   #######,   ,#######,      ##                                
            ,#'     '#,  ##    ##  ,#'     '#,    #''#        ######   ,####,        
            ##       ##  ##   ,#'  ##            #'  '#       #        #'  '#        
            ##       ##  #######   ##           ,######,      #####,   #    #        
            '#,     ,#'  ##    ##  '#,     ,#' ,#      #,         ##   #,  ,#        
             '#######'   ##     ##  '#######'  #'      '#     #####' # '####'        



                  #######################################################
                  #                        -***-                        #
                  #          Department of theory and spectroscopy      #
                  #    Directorship and core code : Frank Neese         #
                  #        Max Planck Institute fuer Kohlenforschung    #
                  #                Kaiser Wilhelm Platz 1               #
                  #                 D-45470 Muelheim/Ruhr               #
                  #                      Germany                        #
                  #                                                     #
                  #                  All rights reserved                #
                  #                        -***-                        #
                  #######################################################


                         Program Version 5.0.2 -  RELEASE  -


 With contributions from (in alphabetic order):
   Daniel Aravena         : Magnetic Suceptibility
   Michael Atanasov       : Ab Initio Ligand Field Theory (pilot matlab implementation)
   Alexander A. Auer      : GIAO ZORA, VPT2 properties, NMR spectrum
   Ute Becker             : Parallelization
   Giovanni Bistoni       : ED, misc. LED, open-shell LED, HFLD
   Martin Brehm           : Molecular dynamics
   Dmytro Bykov           : SCF Hessian
   Vijay G. Chilkuri      : MRCI spin determinant printing, contributions to CSF-ICE
   Dipayan Datta          : RHF DLPNO-CCSD density
   Achintya Kumar Dutta   : EOM-CC, STEOM-CC
   Dmitry Ganyushin       : Spin-Orbit,Spin-Spin,Magnetic field MRCI
   Miquel Garcia          : C-PCM and meta-GGA Hessian, CC/C-PCM, Gaussian charge scheme
   Yang Guo               : DLPNO-NEVPT2, F12-NEVPT2, CIM, IAO-localization
   Andreas Hansen         : Spin unrestricted coupled pair/coupled cluster methods
   Benjamin Helmich-Paris : MC-RPA, TRAH-SCF, COSX integrals
   Lee Huntington         : MR-EOM, pCC
   Robert Izsak           : Overlap fitted RIJCOSX, COSX-SCS-MP3, EOM
   Marcus Kettner         : VPT2
   Christian Kollmar      : KDIIS, OOCD, Brueckner-CCSD(T), CCSD density, CASPT2, CASPT2-K
   Simone Kossmann        : Meta GGA functionals, TD-DFT gradient, OOMP2, MP2 Hessian
   Martin Krupicka        : Initial AUTO-CI
   Lucas Lang             : DCDCAS
   Marvin Lechner         : AUTO-CI (C++ implementation), FIC-MRCC
   Dagmar Lenk            : GEPOL surface, SMD
   Dimitrios Liakos       : Extrapolation schemes; Compound Job, initial MDCI parallelization
   Dimitrios Manganas     : Further ROCIS development; embedding schemes
   Dimitrios Pantazis     : SARC Basis sets
   Anastasios Papadopoulos: AUTO-CI, single reference methods and gradients
   Taras Petrenko         : DFT Hessian,TD-DFT gradient, ASA, ECA, R-Raman, ABS, FL, XAS/XES, NRVS
   Peter Pinski           : DLPNO-MP2, DLPNO-MP2 Gradient
   Christoph Reimann      : Effective Core Potentials
   Marius Retegan         : Local ZFS, SOC
   Christoph Riplinger    : Optimizer, TS searches, QM/MM, DLPNO-CCSD(T), (RO)-DLPNO pert. Triples
   Tobias Risthaus        : Range-separated hybrids, TD-DFT gradient, RPA, STAB
   Michael Roemelt        : Original ROCIS implementation
   Masaaki Saitow         : Open-shell DLPNO-CCSD energy and density
   Barbara Sandhoefer     : DKH picture change effects
   Avijit Sen             : IP-ROCIS
   Kantharuban Sivalingam : CASSCF convergence, NEVPT2, FIC-MRCI
   Bernardo de Souza      : ESD, SOC TD-DFT
   Georgi Stoychev        : AutoAux, RI-MP2 NMR, DLPNO-MP2 response
   Willem Van den Heuvel  : Paramagnetic NMR
   Boris Wezisla          : Elementary symmetry handling
   Frank Wennmohs         : Technical directorship


 We gratefully acknowledge several colleagues who have allowed us to
 interface, adapt or use parts of their codes:
   Stefan Grimme, W. Hujo, H. Kruse, P. Pracht,  : VdW corrections, initial TS optimization,
                  C. Bannwarth, S. Ehlert          DFT functionals, gCP, sTDA/sTD-DF
   Ed Valeev, F. Pavosevic, A. Kumar             : LibInt (2-el integral package), F12 methods
   Garnet Chan, S. Sharma, J. Yang, R. Olivares  : DMRG
   Ulf Ekstrom                                   : XCFun DFT Library
   Mihaly Kallay                                 : mrcc  (arbitrary order and MRCC methods)
   Jiri Pittner, Ondrej Demel                    : Mk-CCSD
   Frank Weinhold                                : gennbo (NPA and NBO analysis)
   Christopher J. Cramer and Donald G. Truhlar   : smd solvation model
   Lars Goerigk                                  : TD-DFT with DH, B97 family of functionals
   V. Asgeirsson, H. Jonsson                     : NEB implementation
   FAccTs GmbH                                   : IRC, NEB, NEB-TS, DLPNO-Multilevel, CI-OPT
                                                   MM, QMMM, 2- and 3-layer-ONIOM, Crystal-QMMM,
                                                   LR-CPCM, SF, NACMEs, symmetry and pop. for TD-DFT,
                                                   nearIR, NL-DFT gradient (VV10), updates on ESD,
                                                   ML-optimized integration grids
   S Lehtola, MJT Oliveira, MAL Marques          : LibXC Library
   Liviu Ungur et al                             : ANISO software


 Your calculation uses the libint2 library for the computation of 2-el integrals
 For citations please refer to: http://libint.valeyev.net

 Your ORCA version has been built with support for libXC version: 5.1.0
 For citations please refer to: https://tddft.org/programs/libxc/

 This ORCA versions uses:
   CBLAS   interface :  Fast vector & matrix operations
   LAPACKE interface :  Fast linear algebra routines
   SCALAPACK package :  Parallel linear algebra routines
   Shared memory     :  Shared parallel matrices
   BLAS/LAPACK       :  OpenBLAS 0.3.15  USE64BITINT DYNAMIC_ARCH NO_AFFINITY Zen SINGLE_THREADED
        Core in use  :  Zen
   Copyright (c) 2011-2014, The OpenBLAS Project


Your calculation utilizes the SMD solvation module
Please cite in your paper:
A.V. Marenich, C.J. Cramer, D.G. Truhlar J. Phys. Chem. B, 113, (2009), 6378 

================================================================================

----- Orbital basis set information -----
Your calculation utilizes the basis: def2-TZVP
   F. Weigend and R. Ahlrichs, Phys. Chem. Chem. Phys. 7, 3297 (2005).

----- AuxJ basis set information -----
Your calculation utilizes the auxiliary basis: def2/J
   F. Weigend, Phys. Chem. Chem. Phys. 8, 1057 (2006).

----- AuxC basis set information -----
Your calculation utilizes the auxiliary basis: def2-TZVP/C
  H-La, Hf-Rn : A. Hellweg, C. Hattig, S. Hofener and W. Klopper, Theor. Chem. Acc. 117, 587 (2007).
        Ce-Lu : J. Chmela and M. E. Harding, Mol. Phys. (2018).

================================================================================
                                        WARNINGS
                       Please study these warnings very carefully!
================================================================================


WARNING: Post HF methods need fully converged wavefunctions
  ===> : Setting SCFConvForced true
         You can overwrite this default with %scf ConvForced false 


WARNING: MDCI localization with Augmented Hessian Foster-Boys
  ===> : Switching off randomization!

INFO   : the flag for use of the SHARK integral package has been found!

================================================================================
                                       INPUT FILE
================================================================================
NAME = BOH-Acr_p_STEOM-DLPNO-CCSD_DEF2-TZVP_RIJCOSX_SMD.inp
|  1> %maxcore 60000
|  2> %pal
|  3>  nprocs= 4
|  4> end
|  5> !STEOM-DLPNO-CCSD DEF2-TZVP DEF2-TZVP/C def2/J TightSCF TightPNO CPCM
|  6> %MDCI
|  7>    Dorootwise true
|  8>    OTHRESH 0.005
|  9>    VTHRESH 0.005
| 10>    TCutPNOSingles 1e-11
| 11>    DTol 1e-5
| 12>    NROOTS  25
| 13>    DOSOLV  TRUE
| 14>    MAXITER 500
| 15> END
| 16> %CPCM
| 17>    SMD          TRUE
| 18>    SMDsolvent   "ACETONITRILE"
| 19> END
| 20> 
| 21> 
| 22> * xyz 1 1
| 23> C                  -0.99815600   -3.59492200    0.24638100
| 24> C                  -1.67788100   -2.40979500    0.17633400
| 25> C                  -0.96971200   -1.19623700    0.12146300
| 26> C                   0.45725200   -1.20773700    0.11133000
| 27> C                   1.11251800   -2.46141800    0.21572500
| 28> C                   0.40645600   -3.62559900    0.27957300
| 29> C                   1.16289900    0.00657700    0.02600200
| 30> C                   0.44603300    1.21608400   -0.02810600
| 31> C                  -0.97992300    1.19540200    0.02317300
| 32> C                  -1.69757800    2.40447500    0.00145200
| 33> H                  -2.77527400    2.38913800    0.05955700
| 34> C                  -1.02900200    3.59407800   -0.09559500
| 35> C                   0.37259700    3.63375600   -0.19007200
| 36> C                   1.08807000    2.47405500   -0.15897900
| 37> H                  -1.55633400   -4.52108300    0.28830500
| 38> H                  -2.75720700   -2.40121200    0.16548000
| 39> H                   2.19194000   -2.47972300    0.25387900
| 40> H                   0.92335900   -4.57190200    0.36113100
| 41> H                  -1.59429400    4.51673400   -0.11106000
| 42> H                   0.87938100    4.58347900   -0.29275400
| 43> H                   2.16461600    2.49898500   -0.24432400
| 44> N                  -1.63780300   -0.00275000    0.08515800
| 45> C                   2.63708300    0.01059200   -0.00613700
| 46> C                   3.32575700   -0.60525700   -1.05285100
| 47> C                   3.36658900    0.62850000    1.01037300
| 48> C                   4.70822600   -0.59090000   -1.08002000
| 49> C                   4.74961300    0.61413500    0.98144300
| 50> C                   5.45609800    0.01064800   -0.06250800
| 51> H                   5.22392100   -1.06167700   -1.90834200
| 52> H                   5.27930300    1.09415300    1.79808800
| 53> H                   2.76772500   -1.08182200   -1.84966000
| 54> H                   2.84234400    1.10538600    1.82941400
| 55> C                  -3.08481100   -0.00716300    0.11213200
| 56> C                  -3.78865400    0.00084400   -1.07706800
| 57> C                  -3.74597100   -0.01701900    1.33251500
| 58> C                  -5.17489700   -0.00000500   -1.05937300
| 59> H                  -3.25448900    0.00878600   -2.01882500
| 60> C                  -5.12446300   -0.01807800    1.35656000
| 61> H                  -3.17810500   -0.02360900    2.25417100
| 62> C                  -5.84899100   -0.00891000    0.16146500
| 63> H                  -5.71859800    0.00631500   -1.99286200
| 64> H                  -5.66148600   -0.02492100    2.29574700
| 65> O                  -7.19054800   -0.00914000    0.28675300
| 66> C                  -7.96491700    0.00239400   -0.90361400
| 67> H                  -9.00420200    0.00215400   -0.58782900
| 68> H                  -7.76999600    0.89748800   -1.49802800
| 69> H                  -7.77408300   -0.88356300   -1.51286000
| 70> B                   7.01824700   -0.00761200   -0.11345300
| 71> O                   7.82596900    0.50635800    0.86212300
| 72> H                   7.34866700    0.88524900    1.60754600
| 73> O                   7.61392700   -0.57547400   -1.20247400
| 74> H                   8.57600500   -0.54598500   -1.14644000
| 75> *
| 76> 
| 77> 
| 78>                          ****END OF INPUT****
================================================================================

                       ****************************
                       * Single Point Calculation *
                       ****************************

---------------------------------
CARTESIAN COORDINATES (ANGSTROEM)
---------------------------------
  C     -0.998156   -3.594922    0.246381
  C     -1.677881   -2.409795    0.176334
  C     -0.969712   -1.196237    0.121463
  C      0.457252   -1.207737    0.111330
  C      1.112518   -2.461418    0.215725
  C      0.406456   -3.625599    0.279573
  C      1.162899    0.006577    0.026002
  C      0.446033    1.216084   -0.028106
  C     -0.979923    1.195402    0.023173
  C     -1.697578    2.404475    0.001452
  H     -2.775274    2.389138    0.059557
  C     -1.029002    3.594078   -0.095595
  C      0.372597    3.633756   -0.190072
  C      1.088070    2.474055   -0.158979
  H     -1.556334   -4.521083    0.288305
  H     -2.757207   -2.401212    0.165480
  H      2.191940   -2.479723    0.253879
  H      0.923359   -4.571902    0.361131
  H     -1.594294    4.516734   -0.111060
  H      0.879381    4.583479   -0.292754
  H      2.164616    2.498985   -0.244324
  N     -1.637803   -0.002750    0.085158
  C      2.637083    0.010592   -0.006137
  C      3.325757   -0.605257   -1.052851
  C      3.366589    0.628500    1.010373
  C      4.708226   -0.590900   -1.080020
  C      4.749613    0.614135    0.981443
  C      5.456098    0.010648   -0.062508
  H      5.223921   -1.061677   -1.908342
  H      5.279303    1.094153    1.798088
  H      2.767725   -1.081822   -1.849660
  H      2.842344    1.105386    1.829414
  C     -3.084811   -0.007163    0.112132
  C     -3.788654    0.000844   -1.077068
  C     -3.745971   -0.017019    1.332515
  C     -5.174897   -0.000005   -1.059373
  H     -3.254489    0.008786   -2.018825
  C     -5.124463   -0.018078    1.356560
  H     -3.178105   -0.023609    2.254171
  C     -5.848991   -0.008910    0.161465
  H     -5.718598    0.006315   -1.992862
  H     -5.661486   -0.024921    2.295747
  O     -7.190548   -0.009140    0.286753
  C     -7.964917    0.002394   -0.903614
  H     -9.004202    0.002154   -0.587829
  H     -7.769996    0.897488   -1.498028
  H     -7.774083   -0.883563   -1.512860
  B      7.018247   -0.007612   -0.113453
  O      7.825969    0.506358    0.862123
  H      7.348667    0.885249    1.607546
  O      7.613927   -0.575474   -1.202474
  H      8.576005   -0.545985   -1.146440

----------------------------
CARTESIAN COORDINATES (A.U.)
----------------------------
  NO LB      ZA    FRAG     MASS         X           Y           Z
   0 C     6.0000    0    12.011   -1.886241   -6.793418    0.465593
   1 C     6.0000    0    12.011   -3.170736   -4.553853    0.333223
   2 C     6.0000    0    12.011   -1.832490   -2.260560    0.229532
   3 C     6.0000    0    12.011    0.864081   -2.282292    0.210383
   4 C     6.0000    0    12.011    2.102354   -4.651406    0.407661
   5 C     6.0000    0    12.011    0.768091   -6.851389    0.528316
   6 C     6.0000    0    12.011    2.197561    0.012429    0.049137
   7 C     6.0000    0    12.011    0.842880    2.298066   -0.053113
   8 C     6.0000    0    12.011   -1.851786    2.258982    0.043791
   9 C     6.0000    0    12.011   -3.207958    4.543799    0.002744
  10 H     1.0000    0     1.008   -5.244508    4.514817    0.112546
  11 C     6.0000    0    12.011   -1.944532    6.791823   -0.180648
  12 C     6.0000    0    12.011    0.704106    6.866804   -0.359184
  13 C     6.0000    0    12.011    2.056154    4.675286   -0.300427
  14 H     1.0000    0     1.008   -2.941045   -8.543609    0.544817
  15 H     1.0000    0     1.008   -5.210366   -4.537633    0.312712
  16 H     1.0000    0     1.008    4.142166   -4.685997    0.479762
  17 H     1.0000    0     1.008    1.744896   -8.639643    0.682439
  18 H     1.0000    0     1.008   -3.012779    8.535390   -0.209873
  19 H     1.0000    0     1.008    1.661789    8.661520   -0.553225
  20 H     1.0000    0     1.008    4.090531    4.722397   -0.461705
  21 N     7.0000    0    14.007   -3.094999   -0.005197    0.160925
  22 C     6.0000    0    12.011    4.983365    0.020016   -0.011597
  23 C     6.0000    0    12.011    6.284770   -1.143770   -1.989600
  24 C     6.0000    0    12.011    6.361931    1.187693    1.909328
  25 C     6.0000    0    12.011    8.897258   -1.116639   -2.040942
  26 C     6.0000    0    12.011    8.975468    1.160547    1.854658
  27 C     6.0000    0    12.011   10.310531    0.020122   -0.118123
  28 H     1.0000    0     1.008    9.871780   -2.006279   -3.606244
  29 H     1.0000    0     1.008    9.976437    2.067650    3.397894
  30 H     1.0000    0     1.008    5.230242   -2.044347   -3.495351
  31 H     1.0000    0     1.008    5.371252    2.088877    3.457091
  32 C     6.0000    0    12.011   -5.829448   -0.013536    0.211899
  33 C     6.0000    0    12.011   -7.159518    0.001595   -2.035364
  34 C     6.0000    0    12.011   -7.078859   -0.032161    2.518088
  35 C     6.0000    0    12.011   -9.779138   -0.000009   -2.001925
  36 H     1.0000    0     1.008   -6.150093    0.016603   -3.815026
  37 C     6.0000    0    12.011   -9.683832   -0.034162    2.563527
  38 H     1.0000    0     1.008   -6.005748   -0.044615    4.259766
  39 C     6.0000    0    12.011  -11.052991   -0.016837    0.305125
  40 H     1.0000    0     1.008  -10.806584    0.011934   -3.765963
  41 H     1.0000    0     1.008  -10.698658   -0.047094    4.338333
  42 O     8.0000    0    15.999  -13.588166   -0.017272    0.541885
  43 C     6.0000    0    12.011  -15.051512    0.004524   -1.707583
  44 H     1.0000    0     1.008  -17.015476    0.004070   -1.110836
  45 H     1.0000    0     1.008  -14.683165    1.696007   -2.830863
  46 H     1.0000    0     1.008  -14.690888   -1.669692   -2.858891
  47 B     5.0000    0    10.810   13.262565   -0.014385   -0.214395
  48 O     8.0000    0    15.999   14.788938    0.956878    1.629176
  49 H     1.0000    0     1.008   13.886968    1.672878    3.037822
  50 O     8.0000    0    15.999   14.388237   -1.087488   -2.272347
  51 H     1.0000    0     1.008   16.206301   -1.031762   -2.166458

--------------------------------
INTERNAL COORDINATES (ANGSTROEM)
--------------------------------
 C      0   0   0     0.000000000000     0.00000000     0.00000000
 C      1   0   0     1.368012669518     0.00000000     0.00000000
 C      2   1   0     1.406142659393   119.96194231     0.00000000
 C      3   2   1     1.427046314940   119.79633296     1.28739369
 C      4   3   2     1.418445591675   117.93917083   357.34875448
 C      5   4   3     1.363054480096   121.26777424     2.12441186
 C      4   3   2     1.407045502743   119.66689092   178.57432752
 C      7   4   3     1.407029395808   119.25443905     0.93368601
 C      8   7   4     1.427027608318   119.68729565     0.87968740
 C      9   8   7     1.406185627929   119.79881436   178.48592485
 H     10   9   8     1.079370225182   119.76971555   181.18244853
 C     10   9   8     1.368052369463   119.95702472     1.30434079
 C     12  10   9     1.405339817985   121.11285658     0.72703965
 C     13  12  10     1.363002126843   119.86585238   358.69869991
 H      1   2   3     1.082171196891   119.15161434   179.98423898
 H      2   1   3     1.079414698566   120.28044758   180.15656024
 H      5   4   3     1.080251199872   118.63200916   182.70870483
 H      6   5   4     1.081355531998   120.22182658   180.13436591
 H     12  10   9     1.082168335253   119.15108148   180.00842262
 H     13  12  10     1.081363672642   119.90646247   178.35532973
 H     14  13  12     1.080211351561   120.11282612   179.19709491
 N      3   2   1     1.368237865459   120.52641999   181.65261572
 C      7   4   3     1.474539759180   120.33536317   180.92652671
 C     23   7   4     1.396120362602   120.55052204    62.38178911
 C     23   7   4     1.395450422122   120.52917059   242.47302157
 C     24  23   7     1.382810476519   120.21894774   179.63745628
 C     25  23   7     1.383401128632   120.18546364   179.22398539
 C     27  25  23     1.397551896995   121.70078782     1.14402581
 H     26  24  23     1.083369582570   119.10444622   180.89295226
 H     27  25  23     1.085310016746   117.87816269   180.83087462
 H     24  23   7     1.083244429817   119.43513814     0.48579958
 H     25  23   7     1.083088748304   119.52386488     0.18240498
 C     22   3   2     1.447266120418   119.01537686     0.36560105
 C     33  22   3     1.381902934615   119.54990308   267.18422182
 C     33  22   3     1.388007331762   119.51565234    87.29627660
 C     34  33  22     1.386356191199   119.88758463   180.15776942
 H     34  33  22     1.082728760881   119.81974223     0.09490686
 C     35  33  22     1.378702098921   119.44609686   179.85042535
 H     35  33  22     1.082573325180   119.91541696   359.86126578
 C     36  34  33     1.394606554590   119.63649468     0.00000000
 H     36  34  33     1.080302010052   119.48609674   179.99816422
 H     38  35  33     1.081902375516   120.75967103   180.04682873
 O     40  36  34     1.347394641556   124.24024005   179.93059289
 C     43  40  36     1.420124633969   117.70873486   359.90513212
 H     44  43  40     1.086201424714   106.14322435   180.10757915
 H     44  43  40     1.092023565896   111.44364178   298.91760221
 H     44  43  40     1.092024775324   111.45464119    61.29103473
 B     28  27  25     1.563086152081   122.31703958   179.67920022
 O     48  28  27     1.366868143590   124.25795511     2.66227539
 H     49  48  28     0.962824510497   114.05436913     0.46050536
 O     48  28  27     1.365015989608   117.83917367   182.57255823
 H     51  48  28     0.964159472474   112.10829731   180.28987537

---------------------------
INTERNAL COORDINATES (A.U.)
---------------------------
 C      0   0   0     0.000000000000     0.00000000     0.00000000
 C      1   0   0     2.585169293124     0.00000000     0.00000000
 C      2   1   0     2.657224531477   119.96194231     0.00000000
 C      3   2   1     2.696726715659   119.79633296     1.28739369
 C      4   3   2     2.680473704133   117.93917083   357.34875448
 C      5   4   3     2.575799672995   121.26777424     2.12441186
 C      4   3   2     2.658930658150   119.66689092   178.57432752
 C      7   4   3     2.658900220455   119.25443905     0.93368601
 C      8   7   4     2.696691365265   119.68729565     0.87968740
 C      9   8   7     2.657305730243   119.79881436   178.48592485
 H     10   9   8     2.039714122703   119.76971555   181.18244853
 C     10   9   8     2.585244315148   119.95702472     1.30434079
 C     12  10   9     2.655707381086   121.11285658     0.72703965
 C     13  12  10     2.575700739686   119.86585238   358.69869991
 H      1   2   3     2.045007192142   119.15161434   179.98423898
 H      2   1   3     2.039798165219   120.28044758   180.15656024
 H      5   4   3     2.041378923598   118.63200916   182.70870483
 H      6   5   4     2.043465808876   120.22182658   180.13436591
 H     12  10   9     2.045001784430   119.15108148   180.00842262
 H     13  12  10     2.043481192464   119.90646247   178.35532973
 H     14  13  12     2.041303621203   120.11282612   179.19709491
 N      3   2   1     2.585594851778   120.52641999   181.65261572
 C      7   4   3     2.786476318428   120.33536317   180.92652671
 C     23   7   4     2.638285135309   120.55052204    62.38178911
 C     23   7   4     2.637019131275   120.52917059   242.47302157
 C     24  23   7     2.613133095738   120.21894774   179.63745628
 C     25  23   7     2.614249266473   120.18546364   179.22398539
 C     27  25  23     2.640990343263   121.70078782     1.14402581
 H     26  24  23     2.047271812878   119.10444622   180.89295226
 H     27  25  23     2.050938702051   117.87816269   180.83087462
 H     24  23   7     2.047035308450   119.43513814     0.48579958
 H     25  23   7     2.046741113025   119.52386488     0.18240498
 C     22   3   2     2.734936610492   119.01537686     0.36560105
 C     33  22   3     2.611418090085   119.54990308   267.18422182
 C     33  22   3     2.622953728905   119.51565234    87.29627660
 C     34  33  22     2.619833525432   119.88758463   180.15776942
 H     34  33  22     2.046060835384   119.81974223     0.09490686
 C     35  33  22     2.605369387224   119.44609686   179.85042535
 H     35  33  22     2.045767104479   119.91541696   359.86126578
 C     36  34  33     2.635424452746   119.63649468     0.00000000
 H     36  34  33     2.041474940923   119.48609674   179.99816422
 H     38  35  33     2.044499193364   120.75967103   180.04682873
 O     40  36  34     2.546206866853   124.24024005   179.93059289
 C     43  40  36     2.683646634237   117.70873486   359.90513212
 H     44  43  40     2.052623218984   106.14322435   180.10757915
 H     44  43  40     2.063625471332   111.44364178   298.91760221
 H     44  43  40     2.063627756819   111.45464119    61.29103473
 B     28  27  25     2.953804751157   122.31703958   179.67920022
 O     48  28  27     2.583006452566   124.25795511     2.66227539
 H     49  48  28     1.819474639866   114.05436913     0.46050536
 O     48  28  27     2.579506388782   117.83917367   182.57255823
 H     51  48  28     1.821997352402   112.10829731   180.28987537

---------------------
BASIS SET INFORMATION
---------------------
There are 5 groups of distinct atoms

 Group   1 Type C   : 11s6p2d1f contracted to 5s3p2d1f pattern {62111/411/11/1}
 Group   2 Type H   : 5s1p contracted to 3s1p pattern {311/1}
 Group   3 Type N   : 11s6p2d1f contracted to 5s3p2d1f pattern {62111/411/11/1}
 Group   4 Type O   : 11s6p2d1f contracted to 5s3p2d1f pattern {62111/411/11/1}
 Group   5 Type B   : 11s6p2d1f contracted to 5s3p2d1f pattern {62111/411/11/1}

Atom   0C    basis set group =>   1
Atom   1C    basis set group =>   1
Atom   2C    basis set group =>   1
Atom   3C    basis set group =>   1
Atom   4C    basis set group =>   1
Atom   5C    basis set group =>   1
Atom   6C    basis set group =>   1
Atom   7C    basis set group =>   1
Atom   8C    basis set group =>   1
Atom   9C    basis set group =>   1
Atom  10H    basis set group =>   2
Atom  11C    basis set group =>   1
Atom  12C    basis set group =>   1
Atom  13C    basis set group =>   1
Atom  14H    basis set group =>   2
Atom  15H    basis set group =>   2
Atom  16H    basis set group =>   2
Atom  17H    basis set group =>   2
Atom  18H    basis set group =>   2
Atom  19H    basis set group =>   2
Atom  20H    basis set group =>   2
Atom  21N    basis set group =>   3
Atom  22C    basis set group =>   1
Atom  23C    basis set group =>   1
Atom  24C    basis set group =>   1
Atom  25C    basis set group =>   1
Atom  26C    basis set group =>   1
Atom  27C    basis set group =>   1
Atom  28H    basis set group =>   2
Atom  29H    basis set group =>   2
Atom  30H    basis set group =>   2
Atom  31H    basis set group =>   2
Atom  32C    basis set group =>   1
Atom  33C    basis set group =>   1
Atom  34C    basis set group =>   1
Atom  35C    basis set group =>   1
Atom  36H    basis set group =>   2
Atom  37C    basis set group =>   1
Atom  38H    basis set group =>   2
Atom  39C    basis set group =>   1
Atom  40H    basis set group =>   2
Atom  41H    basis set group =>   2
Atom  42O    basis set group =>   4
Atom  43C    basis set group =>   1
Atom  44H    basis set group =>   2
Atom  45H    basis set group =>   2
Atom  46H    basis set group =>   2
Atom  47B    basis set group =>   5
Atom  48O    basis set group =>   4
Atom  49H    basis set group =>   2
Atom  50O    basis set group =>   4
Atom  51H    basis set group =>   2
---------------------------------
AUXILIARY/J BASIS SET INFORMATION
---------------------------------
There are 5 groups of distinct atoms

 Group   1 Type C   : 12s5p4d2f1g contracted to 6s4p3d1f1g pattern {711111/2111/211/2/1}
 Group   2 Type H   : 5s2p1d contracted to 3s1p1d pattern {311/2/1}
 Group   3 Type N   : 12s5p4d2f1g contracted to 6s4p3d1f1g pattern {711111/2111/211/2/1}
 Group   4 Type O   : 12s5p4d2f1g contracted to 6s4p3d1f1g pattern {711111/2111/211/2/1}
 Group   5 Type B   : 12s5p4d2f1g contracted to 6s4p3d1f1g pattern {711111/2111/211/2/1}

Atom   0C    basis set group =>   1
Atom   1C    basis set group =>   1
Atom   2C    basis set group =>   1
Atom   3C    basis set group =>   1
Atom   4C    basis set group =>   1
Atom   5C    basis set group =>   1
Atom   6C    basis set group =>   1
Atom   7C    basis set group =>   1
Atom   8C    basis set group =>   1
Atom   9C    basis set group =>   1
Atom  10H    basis set group =>   2
Atom  11C    basis set group =>   1
Atom  12C    basis set group =>   1
Atom  13C    basis set group =>   1
Atom  14H    basis set group =>   2
Atom  15H    basis set group =>   2
Atom  16H    basis set group =>   2
Atom  17H    basis set group =>   2
Atom  18H    basis set group =>   2
Atom  19H    basis set group =>   2
Atom  20H    basis set group =>   2
Atom  21N    basis set group =>   3
Atom  22C    basis set group =>   1
Atom  23C    basis set group =>   1
Atom  24C    basis set group =>   1
Atom  25C    basis set group =>   1
Atom  26C    basis set group =>   1
Atom  27C    basis set group =>   1
Atom  28H    basis set group =>   2
Atom  29H    basis set group =>   2
Atom  30H    basis set group =>   2
Atom  31H    basis set group =>   2
Atom  32C    basis set group =>   1
Atom  33C    basis set group =>   1
Atom  34C    basis set group =>   1
Atom  35C    basis set group =>   1
Atom  36H    basis set group =>   2
Atom  37C    basis set group =>   1
Atom  38H    basis set group =>   2
Atom  39C    basis set group =>   1
Atom  40H    basis set group =>   2
Atom  41H    basis set group =>   2
Atom  42O    basis set group =>   4
Atom  43C    basis set group =>   1
Atom  44H    basis set group =>   2
Atom  45H    basis set group =>   2
Atom  46H    basis set group =>   2
Atom  47B    basis set group =>   5
Atom  48O    basis set group =>   4
Atom  49H    basis set group =>   2
Atom  50O    basis set group =>   4
Atom  51H    basis set group =>   2
---------------------------------
AUXILIARY/C BASIS SET INFORMATION
---------------------------------
There are 5 groups of distinct atoms

 Group   1 Type C   : 8s6p5d3f1g contracted to 8s6p4d3f1g pattern {11111111/111111/2111/111/1}
 Group   2 Type H   : 4s3p2d contracted to 4s2p1d pattern {1111/21/2}
 Group   3 Type N   : 8s6p5d3f1g contracted to 8s6p4d3f1g pattern {11111111/111111/2111/111/1}
 Group   4 Type O   : 8s6p5d3f1g contracted to 8s6p4d3f1g pattern {11111111/111111/2111/111/1}
 Group   5 Type B   : 8s6p5d3f1g contracted to 8s6p4d3f1g pattern {11111111/111111/2111/111/1}

Atom   0C    basis set group =>   1
Atom   1C    basis set group =>   1
Atom   2C    basis set group =>   1
Atom   3C    basis set group =>   1
Atom   4C    basis set group =>   1
Atom   5C    basis set group =>   1
Atom   6C    basis set group =>   1
Atom   7C    basis set group =>   1
Atom   8C    basis set group =>   1
Atom   9C    basis set group =>   1
Atom  10H    basis set group =>   2
Atom  11C    basis set group =>   1
Atom  12C    basis set group =>   1
Atom  13C    basis set group =>   1
Atom  14H    basis set group =>   2
Atom  15H    basis set group =>   2
Atom  16H    basis set group =>   2
Atom  17H    basis set group =>   2
Atom  18H    basis set group =>   2
Atom  19H    basis set group =>   2
Atom  20H    basis set group =>   2
Atom  21N    basis set group =>   3
Atom  22C    basis set group =>   1
Atom  23C    basis set group =>   1
Atom  24C    basis set group =>   1
Atom  25C    basis set group =>   1
Atom  26C    basis set group =>   1
Atom  27C    basis set group =>   1
Atom  28H    basis set group =>   2
Atom  29H    basis set group =>   2
Atom  30H    basis set group =>   2
Atom  31H    basis set group =>   2
Atom  32C    basis set group =>   1
Atom  33C    basis set group =>   1
Atom  34C    basis set group =>   1
Atom  35C    basis set group =>   1
Atom  36H    basis set group =>   2
Atom  37C    basis set group =>   1
Atom  38H    basis set group =>   2
Atom  39C    basis set group =>   1
Atom  40H    basis set group =>   2
Atom  41H    basis set group =>   2
Atom  42O    basis set group =>   4
Atom  43C    basis set group =>   1
Atom  44H    basis set group =>   2
Atom  45H    basis set group =>   2
Atom  46H    basis set group =>   2
Atom  47B    basis set group =>   5
Atom  48O    basis set group =>   4
Atom  49H    basis set group =>   2
Atom  50O    basis set group =>   4
Atom  51H    basis set group =>   2


           ************************************************************
           *        Program running with 4 parallel MPI-processes     *
           *              working on a common directory               *
           ************************************************************
------------------------------------------------------------------------------
                           ORCA GTO INTEGRAL CALCULATION
------------------------------------------------------------------------------
------------------------------------------------------------------------------
                   ___                                                        
                  /   \      - P O W E R E D   B Y -                         
                 /     \                                                     
                 |  |  |   _    _      __       _____    __    __             
                 |  |  |  | |  | |    /  \     |  _  \  |  |  /  |          
                  \  \/   | |  | |   /    \    | | | |  |  | /  /          
                 / \  \   | |__| |  /  /\  \   | |_| |  |  |/  /          
                |  |  |   |  __  | /  /__\  \  |    /   |      \           
                |  |  |   | |  | | |   __   |  |    \   |  |\   \          
                \     /   | |  | | |  |  |  |  | |\  \  |  | \   \       
                 \___/    |_|  |_| |__|  |__|  |_| \__\ |__|  \__/        
                                                                              
                      - O R C A' S   B I G   F R I E N D -                    
                                      &                                       
                       - I N T E G R A L  F E E D E R -                       
                                                                              
 v1 FN, 2020, v2 2021                                                         
------------------------------------------------------------------------------


Reading SHARK input file BOH-Acr_p_STEOM-DLPNO-CCSD_DEF2-TZVP_RIJCOSX_SMD.SHARKINP.tmp ... ok
----------------------
SHARK INTEGRAL PACKAGE
----------------------

Number of atoms                             ...     52
Number of basis functions                   ...   1087
Number of shells                            ...    425
Maximum angular momentum                    ...      3
Integral batch strategy                     ... SHARK/LIBINT Hybrid
RI-J (if used) integral strategy            ... SPLIT-RIJ (Revised 2003 algorithm where possible)
Printlevel                                  ...      1
Contraction scheme used                     ... SEGMENTED contraction
Coulomb Range Separation                    ... NOT USED
Exchange Range Separation                   ... NOT USED
Finite Nucleus Model                        ... NOT USED
Auxiliary Coulomb fitting basis             ... AVAILABLE
   # of basis functions in Aux-J            ...   1750
   # of shells in Aux-J                     ...    570
   Maximum angular momentum in Aux-J        ...      4
Auxiliary J/K fitting basis                 ... NOT available
Auxiliary Correlation fitting basis         ... AVAILABLE
   # of basis functions in Aux-C            ...   2671
   # of shells in Aux-C                     ...    829
   Maximum angular momentum in Aux-C        ...      4
Auxiliary 'external' fitting basis          ... NOT available
Integral threshold                          ...     2.500000e-11
Primitive cut-off                           ...     2.500000e-12
Primitive pair pre-selection threshold      ...     2.500000e-12

Calculating pre-screening integrals         ... done (  0.1 sec) Dimension = 425
Organizing shell pair data                  ... done (  0.8 sec)
Shell pair information
Total number of shell pairs                 ...     90525
Shell pairs after pre-screening             ...     54364
Total number of primitive shell pairs       ...    279376
Primitive shell pairs kept                  ...    108846
          la=0 lb=0:  13631 shell pairs
          la=1 lb=0:  15734 shell pairs
          la=1 lb=1:   4532 shell pairs
          la=2 lb=0:   7743 shell pairs
          la=2 lb=1:   4527 shell pairs
          la=2 lb=2:   1147 shell pairs
          la=3 lb=0:   3609 shell pairs
          la=3 lb=1:   2146 shell pairs
          la=3 lb=2:   1037 shell pairs
          la=3 lb=3:    258 shell pairs

Calculating one electron integrals          ... done (  0.1 sec)
Calculating RI/J V-Matrix + Cholesky decomp.... done (  0.1 sec)
Calculating RI/C V-Matrix + Cholesky decomp.... done (  0.3 sec)
Calculating Nuclear repulsion               ... done (  0.0 sec) ENN=   2763.417078813940 Eh

SHARK setup successfully completed in   1.9 seconds

Maximum memory used throughout the entire GTOINT-calculation: 111.7 MB


           ************************************************************
           *        Program running with 4 parallel MPI-processes     *
           *              working on a common directory               *
           ************************************************************
-------------------------------------------------------------------------------
                                 ORCA SCF
-------------------------------------------------------------------------------

------------
SCF SETTINGS
------------
Hamiltonian:
 Ab initio Hamiltonian  Method          .... Hartree-Fock(GTOs)


General Settings:
 Integral files         IntName         .... BOH-Acr_p_STEOM-DLPNO-CCSD_DEF2-TZVP_RIJCOSX_SMD
 Hartree-Fock type      HFTyp           .... RHF
 Total Charge           Charge          ....    1
 Multiplicity           Mult            ....    1
 Number of Electrons    NEL             ....  212
 Basis Dimension        Dim             .... 1087
 Nuclear Repulsion      ENuc            ....   2763.4170788139 Eh

Convergence Acceleration:
 DIIS                   CNVDIIS         .... on
   Start iteration      DIISMaxIt       ....    12
   Startup error        DIISStart       ....  0.200000
   # of expansion vecs  DIISMaxEq       ....     5
   Bias factor          DIISBfac        ....   1.050
   Max. coefficient     DIISMaxC        ....  10.000
 Trust-Rad. Augm. Hess. CNVTRAH         .... auto
   Auto Start mean grad. ratio tolernc. ....  1.125000
   Auto Start start iteration           ....    20
   Auto Start num. interpolation iter.  ....    10
   Max. Number of Micro iterations      ....    16
   Max. Number of Macro iterations      .... Maxiter - #DIIS iter
   Number of Davidson start vectors     ....     2
   Converg. threshold I  (grad. norm)   ....   1.000e-05
   Converg. threshold II (energy diff.) ....   1.000e-08
   Grad. Scal. Fac. for Micro threshold ....   0.100
   Minimum threshold for Micro iter.    ....   0.010
   NR start threshold (gradient norm)   ....   0.001
   Initial trust radius                 ....   0.400
   Minimum AH scaling param. (alpha)    ....   1.000
   Maximum AH scaling param. (alpha)    .... 1000.000
   Orbital update algorithm             .... Taylor
   White noise on init. David. guess    .... on
   Maximum white noise                  ....   0.010
   Quad. conv. algorithm                .... NR
 SOSCF                  CNVSOSCF        .... on
   Start iteration      SOSCFMaxIt      ....   150
   Startup grad/error   SOSCFStart      ....  0.003300
 Level Shifting         CNVShift        .... on
   Level shift para.    LevelShift      ....    0.2500
   Turn off err/grad.   ShiftErr        ....    0.0010
 Zerner damping         CNVZerner       .... off
 Static damping         CNVDamp         .... on
   Fraction old density DampFac         ....    0.7000
   Max. Damping (<1)    DampMax         ....    0.9800
   Min. Damping (>=0)   DampMin         ....    0.0000
   Turn off err/grad.   DampErr         ....    0.1000
 Fernandez-Rico         CNVRico         .... off

SCF Procedure:
 Maximum # iterations   MaxIter         ....   125
 SCF integral mode      SCFMode         .... Direct
   Integral package                     .... SHARK and LIBINT hybrid scheme
 Reset frequency        DirectResetFreq ....    20
 Integral Threshold     Thresh          ....  2.500e-11 Eh
 Primitive CutOff       TCut            ....  2.500e-12 Eh

Convergence Tolerance:
 Convergence Check Mode ConvCheckMode   .... Total+1el-Energy
 Convergence forced     ConvForced      .... 1
 Energy Change          TolE            ....  1.000e-08 Eh
 1-El. energy change                    ....  1.000e-05 Eh
 Orbital Gradient       TolG            ....  1.000e-05
 Orbital Rotation angle TolX            ....  1.000e-05
 DIIS Error             TolErr          ....  5.000e-07


Diagonalization of the overlap matrix:
Smallest eigenvalue                        ... 4.755e-06
Time for diagonalization                   ...    0.124 sec
Threshold for overlap eigenvalues          ... 1.000e-08
Number of eigenvalues below threshold      ... 0
Time for construction of square roots      ...    0.088 sec
Total time needed                          ...    0.216 sec

Time for model grid setup =    0.534 sec

------------------------------
INITIAL GUESS: MODEL POTENTIAL
------------------------------
Loading Hartree-Fock densities                     ... done
Calculating cut-offs                               ... done
Initializing the effective Hamiltonian             ... done
Setting up the integral package (SHARK)            ... done
Starting the Coulomb interaction                   ... done (   1.5 sec)
Reading the grid                                   ... done
Mapping shells                                     ... done
Starting the XC term evaluation                    ... done (   0.4 sec)
Transforming the Hamiltonian                       ... done (   0.1 sec)
Diagonalizing the Hamiltonian                      ... done (   0.1 sec)
Back transforming the eigenvectors                 ... done (   0.0 sec)
Now organizing SCF variables                       ... done
                      ------------------
                      INITIAL GUESS DONE (   2.6 sec)
                      ------------------

--------------------
CPCM SOLVATION MODEL
--------------------
CPCM parameters:
  Epsilon                                         ...      35.6880
  Refrac                                          ...       1.3442
  Rsolv                                           ...       1.3000
  Surface type                                    ... GAUSSIAN VDW
  Epsilon function type                           ...         CPCM
Solvent:                                     ... ACETONITRILE
SMD-CDS solvent descriptors:
  Soln                                       ...    1.3442
  Soln25                                     ...    1.3416
  Sola                                       ...    0.0700
  Solb                                       ...    0.3200
  Solg                                       ...   41.2500
  Solc                                       ...    0.0000
  Solh                                       ...    0.0000
Radii:
 Radius for C  used is    3.4960 Bohr (=   1.8500 Ang.)
 Radius for H  used is    2.2677 Bohr (=   1.2000 Ang.)
 Radius for N  used is    3.5716 Bohr (=   1.8900 Ang.)
 Radius for O  used is    4.0969 Bohr (=   2.1680 Ang.)
 Radius for B  used is    3.6283 Bohr (=   1.9200 Ang.)
Calculating surface                               ...        done! (  0.0s)
GEPOL surface points                              ...         2758
GEPOL Volume                                      ...    2959.6642
GEPOL Surface-area                                ...    1554.4650
Calculating surface distance matrix               ...        done! (  0.0s)
Performing Cholesky decomposition & store         ...        done! (  0.2s)
Overall time for CPCM initialization              ...                 0.2s
--------------
SCF ITERATIONS
--------------
ITER       Energy         Delta-E        Max-DP      RMS-DP      [F,P]     Damp
               ***  Starting incremental Fock matrix formation  ***
  0  -1299.9230278799   0.000000000000 0.03785621  0.00062164  0.3001487 0.7000
  1  -1300.2859343430  -0.362906463084 0.03500325  0.00050535  0.2200951 0.7000
                               ***Turning on DIIS***
  2  -1300.5163387923  -0.230404449259 0.02832257  0.00037954  0.1624243 0.7000
  3  -1303.3998101188  -2.883471326514 0.03362407  0.00030342  0.1202438 0.7000
  4  -1303.1780756503   0.221734468421 0.09399469  0.00078703  0.0846082 0.0000
  5  -1301.1031993241   2.074876326286 0.01017856  0.00008725  0.0056565 0.0000
                      *** Initiating the SOSCF procedure ***
                           *** Shutting down DIIS ***
                      *** Re-Reading the Fockian *** 
                      *** Removing any level shift *** 
ITER      Energy       Delta-E        Grad      Rot      Max-DP    RMS-DP
  6  -1301.01395551   0.0892438134  0.003043  0.003043  0.005330  0.000044
               *** Restarting incremental Fock matrix formation ***
  7  -1301.01836456  -0.0044090497  0.002374  0.007682  0.002505  0.000028
  8  -1301.01854709  -0.0001825323  0.001305  0.013963  0.004941  0.000048
  9  -1301.01867989  -0.0001327950  0.000531  0.000976  0.001036  0.000013
 10  -1301.01869414  -0.0000142560  0.000194  0.000591  0.000447  0.000008
 11  -1301.01869801  -0.0000038663  0.000092  0.000755  0.000325  0.000004
 12  -1301.01869898  -0.0000009711  0.000034  0.000202  0.000113  0.000001
 13  -1301.01869909  -0.0000001081  0.000022  0.000092  0.000118  0.000001
 14  -1301.01869911  -0.0000000241  0.000007  0.000025  0.000026  0.000000
 15  -1301.01869912  -0.0000000101  0.000003  0.000008  0.000022  0.000000
                  ***Gradient check signals convergence***
              ***Rediagonalizing the Fockian in SOSCF/NRSCF***

               *****************************************************
               *                     SUCCESS                       *
               *           SCF CONVERGED AFTER  16 CYCLES          *
               *****************************************************


SMD CDS free energy correction energy :                -5.66055     Kcal/mol
Total Energy after SMD CDS correction =             -1301.027719770 Eh

----------------
TOTAL SCF ENERGY
----------------

Total Energy       :        -1301.02771977 Eh          -35402.76410 eV

Components:
Nuclear Repulsion  :         2763.41707881 Eh           75196.40163 eV
Electronic Energy  :        -4064.44479858 Eh         -110599.16572 eV
One Electron Energy:        -7240.89761391 Eh         -197034.84113 eV
Two Electron Energy:         3176.45281533 Eh           86435.67541 eV
CPCM Dielectric    :           -0.08629515 Eh              -2.34821 eV
SMD CDS (Gcds)     :           -0.00902065 Eh              -0.24546 eV

Virial components:
Potential Energy   :        -2600.95531249 Eh          -70775.59221 eV
Kinetic Energy     :         1299.92759272 Eh           35372.82812 eV
Virial Ratio       :            2.00084630

CPCM Solvation Model Properties:
Surface-charge          :           -1.05025587
Charge-correction       :            0.00489368 Eh               0.13316 eV
Free-energy (cav+disp)  :           -0.00902065 Eh              -0.24546 eV

---------------
SCF CONVERGENCE
---------------

  Last Energy change         ...    7.2309e-09  Tolerance :   1.0000e-08
  Last MAX-Density change    ...    2.5065e-05  Tolerance :   1.0000e-07
  Last RMS-Density change    ...    3.1310e-07  Tolerance :   5.0000e-09
  Last Orbital Gradient      ...    1.5914e-06  Tolerance :   1.0000e-05
  Last Orbital Rotation      ...    5.5344e-06  Tolerance :   1.0000e-05

             **** THE GBW FILE WAS UPDATED (BOH-Acr_p_STEOM-DLPNO-CCSD_DEF2-TZVP_RIJCOSX_SMD.gbw) ****
             **** DENSITY BOH-Acr_p_STEOM-DLPNO-CCSD_DEF2-TZVP_RIJCOSX_SMD.scfp WAS UPDATED ****
             **** ENERGY FILE WAS UPDATED (BOH-Acr_p_STEOM-DLPNO-CCSD_DEF2-TZVP_RIJCOSX_SMD.en.tmp) ****
             **** THE GBW FILE WAS UPDATED (BOH-Acr_p_STEOM-DLPNO-CCSD_DEF2-TZVP_RIJCOSX_SMD.gbw) ****
             **** DENSITY BOH-Acr_p_STEOM-DLPNO-CCSD_DEF2-TZVP_RIJCOSX_SMD.scfp WAS UPDATED ****
----------------
ORBITAL ENERGIES
----------------

  NO   OCC          E(Eh)            E(eV) 
   0   2.0000     -20.588683      -560.2466 
   1   2.0000     -20.567463      -559.6691 
   2   2.0000     -20.562149      -559.5245 
   3   2.0000     -15.661401      -426.1684 
   4   2.0000     -11.330771      -308.3260 
   5   2.0000     -11.330728      -308.3248 
   6   2.0000     -11.320798      -308.0546 
   7   2.0000     -11.310566      -307.7762 
   8   2.0000     -11.278461      -306.9025 
   9   2.0000     -11.273116      -306.7571 
  10   2.0000     -11.273090      -306.7564 
  11   2.0000     -11.271785      -306.7209 
  12   2.0000     -11.264432      -306.5208 
  13   2.0000     -11.264201      -306.5145 
  14   2.0000     -11.264180      -306.5139 
  15   2.0000     -11.259152      -306.3771 
  16   2.0000     -11.259137      -306.3767 
  17   2.0000     -11.250826      -306.1505 
  18   2.0000     -11.249849      -306.1239 
  19   2.0000     -11.245446      -306.0042 
  20   2.0000     -11.245258      -305.9990 
  21   2.0000     -11.245245      -305.9987 
  22   2.0000     -11.244496      -305.9783 
  23   2.0000     -11.243969      -305.9640 
  24   2.0000     -11.241807      -305.9051 
  25   2.0000     -11.241796      -305.9048 
  26   2.0000     -11.241086      -305.8855 
  27   2.0000     -11.236038      -305.7481 
  28   2.0000     -11.234792      -305.7142 
  29   2.0000     -11.224234      -305.4269 
  30   2.0000      -7.638811      -207.8626 
  31   2.0000      -1.420041       -38.6413 
  32   2.0000      -1.383686       -37.6520 
  33   2.0000      -1.353090       -36.8194 
  34   2.0000      -1.342968       -36.5440 
  35   2.0000      -1.206112       -32.8200 
  36   2.0000      -1.186204       -32.2782 
  37   2.0000      -1.170433       -31.8491 
  38   2.0000      -1.154926       -31.4271 
  39   2.0000      -1.119625       -30.4665 
  40   2.0000      -1.062928       -28.9237 
  41   2.0000      -1.047593       -28.5065 
  42   2.0000      -1.045544       -28.4507 
  43   2.0000      -1.037004       -28.2183 
  44   2.0000      -1.029325       -28.0094 
  45   2.0000      -1.027661       -27.9641 
  46   2.0000      -1.007282       -27.4095 
  47   2.0000      -0.949039       -25.8247 
  48   2.0000      -0.928813       -25.2743 
  49   2.0000      -0.896200       -24.3868 
  50   2.0000      -0.883449       -24.0399 
  51   2.0000      -0.854162       -23.2429 
  52   2.0000      -0.843217       -22.9451 
  53   2.0000      -0.837329       -22.7849 
  54   2.0000      -0.833938       -22.6926 
  55   2.0000      -0.799911       -21.7667 
  56   2.0000      -0.778070       -21.1724 
  57   2.0000      -0.770954       -20.9787 
  58   2.0000      -0.764349       -20.7990 
  59   2.0000      -0.744028       -20.2460 
  60   2.0000      -0.739775       -20.1303 
  61   2.0000      -0.720034       -19.5931 
  62   2.0000      -0.705812       -19.2061 
  63   2.0000      -0.693185       -18.8625 
  64   2.0000      -0.687181       -18.6991 
  65   2.0000      -0.669333       -18.2135 
  66   2.0000      -0.664797       -18.0900 
  67   2.0000      -0.659326       -17.9412 
  68   2.0000      -0.656319       -17.8594 
  69   2.0000      -0.641418       -17.4539 
  70   2.0000      -0.632780       -17.2188 
  71   2.0000      -0.628412       -17.1000 
  72   2.0000      -0.626560       -17.0496 
  73   2.0000      -0.620539       -16.8857 
  74   2.0000      -0.619967       -16.8702 
  75   2.0000      -0.613774       -16.7016 
  76   2.0000      -0.606998       -16.5172 
  77   2.0000      -0.602703       -16.4004 
  78   2.0000      -0.595702       -16.2099 
  79   2.0000      -0.577279       -15.7086 
  80   2.0000      -0.576855       -15.6970 
  81   2.0000      -0.566953       -15.4276 
  82   2.0000      -0.564350       -15.3568 
  83   2.0000      -0.561903       -15.2901 
  84   2.0000      -0.556805       -15.1514 
  85   2.0000      -0.537698       -14.6315 
  86   2.0000      -0.529186       -14.3999 
  87   2.0000      -0.527245       -14.3471 
  88   2.0000      -0.526490       -14.3265 
  89   2.0000      -0.521612       -14.1938 
  90   2.0000      -0.509271       -13.8580 
  91   2.0000      -0.506684       -13.7876 
  92   2.0000      -0.502881       -13.6841 
  93   2.0000      -0.498712       -13.5706 
  94   2.0000      -0.493734       -13.4352 
  95   2.0000      -0.480091       -13.0639 
  96   2.0000      -0.478999       -13.0342 
  97   2.0000      -0.477154       -12.9840 
  98   2.0000      -0.430857       -11.7242 
  99   2.0000      -0.376078       -10.2336 
 100   2.0000      -0.355025        -9.6607 
 101   2.0000      -0.352056        -9.5799 
 102   2.0000      -0.349509        -9.5106 
 103   2.0000      -0.342402        -9.3172 
 104   2.0000      -0.328136        -8.9290 
 105   2.0000      -0.313386        -8.5277 
 106   0.0000      -0.001833        -0.0499 
 107   0.0000       0.078797         2.1442 
 108   0.0000       0.083146         2.2625 
 109   0.0000       0.099225         2.7000 
 110   0.0000       0.117121         3.1870 
 111   0.0000       0.122794         3.3414 
 112   0.0000       0.124467         3.3869 
 113   0.0000       0.133459         3.6316 
 114   0.0000       0.138886         3.7793 
 115   0.0000       0.146221         3.9789 
 116   0.0000       0.153473         4.1762 
 117   0.0000       0.156942         4.2706 
 118   0.0000       0.164609         4.4792 
 119   0.0000       0.168409         4.5826 
 120   0.0000       0.170115         4.6291 
 121   0.0000       0.176254         4.7961 
 122   0.0000       0.176938         4.8147 
 123   0.0000       0.180755         4.9186 
 124   0.0000       0.186542         5.0761 
 125   0.0000       0.190161         5.1745 
 126   0.0000       0.192980         5.2512 
 127   0.0000       0.196482         5.3466 
 128   0.0000       0.200566         5.4577 
 129   0.0000       0.205351         5.5879 
 130   0.0000       0.211380         5.7519 
 131   0.0000       0.212861         5.7922 
 132   0.0000       0.222392         6.0516 
 133   0.0000       0.226822         6.1721 
 134   0.0000       0.228038         6.2052 
 135   0.0000       0.234096         6.3701 
 136   0.0000       0.237540         6.4638 
 137   0.0000       0.238512         6.4902 
 138   0.0000       0.246500         6.7076 
 139   0.0000       0.253319         6.8932 
 140   0.0000       0.256127         6.9696 
 141   0.0000       0.257873         7.0171 
 142   0.0000       0.270584         7.3630 
 143   0.0000       0.274835         7.4786 
 144   0.0000       0.280113         7.6223 
 145   0.0000       0.286996         7.8096 
 146   0.0000       0.293008         7.9731 
 147   0.0000       0.297092         8.0843 
 148   0.0000       0.303585         8.2610 
 149   0.0000       0.304872         8.2960 
 150   0.0000       0.315585         8.5875 
 151   0.0000       0.318542         8.6680 
 152   0.0000       0.322403         8.7730 
 153   0.0000       0.324771         8.8375 
 154   0.0000       0.331489         9.0203 
 155   0.0000       0.332825         9.0566 
 156   0.0000       0.334968         9.1149 
 157   0.0000       0.341365         9.2890 
 158   0.0000       0.344544         9.3755 
 159   0.0000       0.349999         9.5240 
 160   0.0000       0.351543         9.5660 
 161   0.0000       0.353764         9.6264 
 162   0.0000       0.356892         9.7115 
 163   0.0000       0.365167         9.9367 
 164   0.0000       0.366397         9.9702 
 165   0.0000       0.369549        10.0559 
 166   0.0000       0.373914        10.1747 
 167   0.0000       0.374603        10.1935 
 168   0.0000       0.378641        10.3033 
 169   0.0000       0.383582        10.4378 
 170   0.0000       0.386766        10.5244 
 171   0.0000       0.390183        10.6174 
 172   0.0000       0.397542        10.8177 
 173   0.0000       0.402577        10.9547 
 174   0.0000       0.406219        11.0538 
 175   0.0000       0.408540        11.1169 
 176   0.0000       0.409842        11.1524 
 177   0.0000       0.414555        11.2806 
 178   0.0000       0.420092        11.4313 
 179   0.0000       0.422688        11.5019 
 180   0.0000       0.424537        11.5522 
 181   0.0000       0.427957        11.6453 
 182   0.0000       0.435204        11.8425 
 183   0.0000       0.437662        11.9094 
 184   0.0000       0.440980        11.9997 
 185   0.0000       0.444889        12.1060 
 186   0.0000       0.445715        12.1285 
 187   0.0000       0.446564        12.1516 
 188   0.0000       0.450731        12.2650 
 189   0.0000       0.461235        12.5508 
 190   0.0000       0.465720        12.6729 
 191   0.0000       0.471966        12.8429 
 192   0.0000       0.478234        13.0134 
 193   0.0000       0.481515        13.1027 
 194   0.0000       0.483235        13.1495 
 195   0.0000       0.484551        13.1853 
 196   0.0000       0.489114        13.3095 
 197   0.0000       0.490243        13.3402 
 198   0.0000       0.495357        13.4794 
 199   0.0000       0.498180        13.5562 
 200   0.0000       0.506138        13.7727 
 201   0.0000       0.512146        13.9362 
 202   0.0000       0.516934        14.0665 
 203   0.0000       0.517568        14.0837 
 204   0.0000       0.520139        14.1537 
 205   0.0000       0.521647        14.1947 
 206   0.0000       0.525546        14.3008 
 207   0.0000       0.527810        14.3624 
 208   0.0000       0.532458        14.4889 
 209   0.0000       0.534872        14.5546 
 210   0.0000       0.542563        14.7639 
 211   0.0000       0.547327        14.8935 
 212   0.0000       0.549471        14.9519 
 213   0.0000       0.550520        14.9804 
 214   0.0000       0.554735        15.0951 
 215   0.0000       0.555328        15.1112 
 216   0.0000       0.561835        15.2883 
 217   0.0000       0.562121        15.2961 
 218   0.0000       0.564932        15.3726 
 219   0.0000       0.565665        15.3925 
 220   0.0000       0.568576        15.4717 
 221   0.0000       0.571149        15.5417 
 222   0.0000       0.574159        15.6237 
 223   0.0000       0.575098        15.6492 
 224   0.0000       0.580466        15.7953 
 225   0.0000       0.582795        15.8587 
 226   0.0000       0.587188        15.9782 
 227   0.0000       0.589323        16.0363 
 228   0.0000       0.593751        16.1568 
 229   0.0000       0.601148        16.3581 
 230   0.0000       0.601869        16.3777 
 231   0.0000       0.603911        16.4332 
 232   0.0000       0.609371        16.5818 
 233   0.0000       0.614065        16.7096 
 234   0.0000       0.617414        16.8007 
 235   0.0000       0.619128        16.8473 
 236   0.0000       0.625403        17.0181 
 237   0.0000       0.626426        17.0459 
 238   0.0000       0.631841        17.1933 
 239   0.0000       0.636118        17.3097 
 240   0.0000       0.638357        17.3706 
 241   0.0000       0.640094        17.4178 
 242   0.0000       0.644358        17.5339 
 243   0.0000       0.647150        17.6099 
 244   0.0000       0.648534        17.6475 
 245   0.0000       0.654784        17.8176 
 246   0.0000       0.659616        17.9491 
 247   0.0000       0.662211        18.0197 
 248   0.0000       0.664849        18.0915 
 249   0.0000       0.668153        18.1814 
 250   0.0000       0.671460        18.2714 
 251   0.0000       0.674382        18.3509 
 252   0.0000       0.676669        18.4131 
 253   0.0000       0.679961        18.5027 
 254   0.0000       0.684072        18.6145 
 255   0.0000       0.693769        18.8784 
 256   0.0000       0.701010        19.0755 
 257   0.0000       0.701808        19.0972 
 258   0.0000       0.710889        19.3443 
 259   0.0000       0.716564        19.4987 
 260   0.0000       0.720367        19.6022 
 261   0.0000       0.722866        19.6702 
 262   0.0000       0.729397        19.8479 
 263   0.0000       0.732818        19.9410 
 264   0.0000       0.737950        20.0806 
 265   0.0000       0.750741        20.4287 
 266   0.0000       0.756878        20.5957 
 267   0.0000       0.759629        20.6706 
 268   0.0000       0.762065        20.7368 
 269   0.0000       0.765929        20.8420 
 270   0.0000       0.769607        20.9421 
 271   0.0000       0.776403        21.1270 
 272   0.0000       0.781987        21.2790 
 273   0.0000       0.785467        21.3736 
 274   0.0000       0.788893        21.4669 
 275   0.0000       0.791569        21.5397 
 276   0.0000       0.797067        21.6893 
 277   0.0000       0.800129        21.7726 
 278   0.0000       0.804650        21.8957 
 279   0.0000       0.808119        21.9900 
 280   0.0000       0.812955        22.1216 
 281   0.0000       0.818948        22.2847 
 282   0.0000       0.822100        22.3705 
 283   0.0000       0.825373        22.4595 
 284   0.0000       0.832932        22.6652 
 285   0.0000       0.836561        22.7640 
 286   0.0000       0.840665        22.8757 
 287   0.0000       0.845843        23.0166 
 288   0.0000       0.848585        23.0912 
 289   0.0000       0.852679        23.2026 
 290   0.0000       0.854054        23.2400 
 291   0.0000       0.856794        23.3145 
 292   0.0000       0.860214        23.4076 
 293   0.0000       0.871495        23.7146 
 294   0.0000       0.875191        23.8152 
 295   0.0000       0.877289        23.8722 
 296   0.0000       0.880798        23.9677 
 297   0.0000       0.888561        24.1790 
 298   0.0000       0.891118        24.2485 
 299   0.0000       0.892135        24.2762 
 300   0.0000       0.898977        24.4624 
 301   0.0000       0.907492        24.6941 
 302   0.0000       0.909071        24.7371 
 303   0.0000       0.916739        24.9457 
 304   0.0000       0.921678        25.0801 
 305   0.0000       0.924801        25.1651 
 306   0.0000       0.927498        25.2385 
 307   0.0000       0.931102        25.3366 
 308   0.0000       0.935419        25.4540 
 309   0.0000       0.936148        25.4739 
 310   0.0000       0.940885        25.6028 
 311   0.0000       0.944675        25.7059 
 312   0.0000       0.946691        25.7608 
 313   0.0000       0.952787        25.9267 
 314   0.0000       0.955417        25.9982 
 315   0.0000       0.958832        26.0911 
 316   0.0000       0.962323        26.1861 
 317   0.0000       0.967079        26.3156 
 318   0.0000       0.972150        26.4536 
 319   0.0000       0.977774        26.6066 
 320   0.0000       0.982859        26.7450 
 321   0.0000       0.986742        26.8506 
 322   0.0000       0.991760        26.9871 
 323   0.0000       0.998521        27.1711 
 324   0.0000       1.000624        27.2284 
 325   0.0000       1.004729        27.3401 
 326   0.0000       1.015172        27.6242 
 327   0.0000       1.021133        27.7864 
 328   0.0000       1.026381        27.9292 
 329   0.0000       1.031728        28.0748 
 330   0.0000       1.037991        28.2452 
 331   0.0000       1.044061        28.4103 
 332   0.0000       1.050789        28.5934 
 333   0.0000       1.054410        28.6920 
 334   0.0000       1.056754        28.7557 
 335   0.0000       1.060556        28.8592 
 336   0.0000       1.064903        28.9775 
 337   0.0000       1.072035        29.1716 
 338   0.0000       1.075193        29.2575 
 339   0.0000       1.081193        29.4207 
 340   0.0000       1.083632        29.4871 
 341   0.0000       1.089703        29.6523 
 342   0.0000       1.093487        29.7553 
 343   0.0000       1.096058        29.8253 
 344   0.0000       1.097928        29.8761 
 345   0.0000       1.102547        30.0018 
 346   0.0000       1.109500        30.1910 
 347   0.0000       1.110013        30.2050 
 348   0.0000       1.124359        30.5954 
 349   0.0000       1.125105        30.6157 
 350   0.0000       1.134675        30.8761 
 351   0.0000       1.138872        30.9903 
 352   0.0000       1.147104        31.2143 
 353   0.0000       1.150472        31.3059 
 354   0.0000       1.154601        31.4183 
 355   0.0000       1.164166        31.6786 
 356   0.0000       1.168310        31.7913 
 357   0.0000       1.173363        31.9288 
 358   0.0000       1.179210        32.0879 
 359   0.0000       1.187079        32.3021 
 360   0.0000       1.193725        32.4829 
 361   0.0000       1.197904        32.5966 
 362   0.0000       1.202878        32.7320 
 363   0.0000       1.209457        32.9110 
 364   0.0000       1.228716        33.4351 
 365   0.0000       1.240483        33.7553 
 366   0.0000       1.243705        33.8429 
 367   0.0000       1.247868        33.9562 
 368   0.0000       1.249706        34.0062 
 369   0.0000       1.259507        34.2729 
 370   0.0000       1.263407        34.3791 
 371   0.0000       1.266421        34.4611 
 372   0.0000       1.267407        34.4879 
 373   0.0000       1.278004        34.7763 
 374   0.0000       1.282373        34.8951 
 375   0.0000       1.288984        35.0750 
 376   0.0000       1.304741        35.5038 
 377   0.0000       1.306368        35.5481 
 378   0.0000       1.309829        35.6422 
 379   0.0000       1.322648        35.9911 
 380   0.0000       1.327848        36.1326 
 381   0.0000       1.332342        36.2549 
 382   0.0000       1.334914        36.3249 
 383   0.0000       1.345946        36.6250 
 384   0.0000       1.348524        36.6952 
 385   0.0000       1.353894        36.8413 
 386   0.0000       1.367733        37.2179 
 387   0.0000       1.377533        37.4846 
 388   0.0000       1.377629        37.4872 
 389   0.0000       1.394697        37.9516 
 390   0.0000       1.399554        38.0838 
 391   0.0000       1.406201        38.2647 
 392   0.0000       1.418974        38.6123 
 393   0.0000       1.420289        38.6480 
 394   0.0000       1.426914        38.8283 
 395   0.0000       1.433604        39.0103 
 396   0.0000       1.438496        39.1435 
 397   0.0000       1.442255        39.2457 
 398   0.0000       1.447808        39.3969 
 399   0.0000       1.457654        39.6648 
 400   0.0000       1.464083        39.8397 
 401   0.0000       1.471624        40.0449 
 402   0.0000       1.474095        40.1122 
 403   0.0000       1.480326        40.2817 
 404   0.0000       1.483029        40.3553 
 405   0.0000       1.485107        40.4118 
 406   0.0000       1.494679        40.6723 
 407   0.0000       1.500462        40.8296 
 408   0.0000       1.504783        40.9472 
 409   0.0000       1.508298        41.0429 
 410   0.0000       1.515411        41.2364 
 411   0.0000       1.521188        41.3936 
 412   0.0000       1.525394        41.5081 
 413   0.0000       1.530281        41.6411 
 414   0.0000       1.533411        41.7262 
 415   0.0000       1.536915        41.8216 
 416   0.0000       1.540044        41.9067 
 417   0.0000       1.546864        42.0923 
 418   0.0000       1.547708        42.1153 
 419   0.0000       1.554352        42.2961 
 420   0.0000       1.565010        42.5861 
 421   0.0000       1.574186        42.8358 
 422   0.0000       1.582639        43.0658 
 423   0.0000       1.586271        43.1646 
 424   0.0000       1.593265        43.3550 
 425   0.0000       1.604025        43.6477 
 426   0.0000       1.608643        43.7734 
 427   0.0000       1.622971        44.1633 
 428   0.0000       1.642296        44.6892 
 429   0.0000       1.650114        44.9019 
 430   0.0000       1.651819        44.9483 
 431   0.0000       1.655889        45.0590 
 432   0.0000       1.661283        45.2058 
 433   0.0000       1.668108        45.3915 
 434   0.0000       1.681830        45.7649 
 435   0.0000       1.689804        45.9819 
 436   0.0000       1.704487        46.3815 
 437   0.0000       1.709047        46.5055 
 438   0.0000       1.714527        46.6547 
 439   0.0000       1.721771        46.8518 
 440   0.0000       1.725027        46.9404 
 441   0.0000       1.727999        47.0212 
 442   0.0000       1.738987        47.3202 
 443   0.0000       1.743071        47.4314 
 444   0.0000       1.746022        47.5117 
 445   0.0000       1.750466        47.6326 
 446   0.0000       1.756256        47.7902 
 447   0.0000       1.766538        48.0700 
 448   0.0000       1.770812        48.1862 
 449   0.0000       1.774192        48.2782 
 450   0.0000       1.777947        48.3804 
 451   0.0000       1.783560        48.5331 
 452   0.0000       1.790626        48.7254 
 453   0.0000       1.795740        48.8646 
 454   0.0000       1.798883        48.9501 
 455   0.0000       1.807107        49.1739 
 456   0.0000       1.812415        49.3183 
 457   0.0000       1.814835        49.3842 
 458   0.0000       1.820352        49.5343 
 459   0.0000       1.823305        49.6147 
 460   0.0000       1.827339        49.7244 
 461   0.0000       1.838215        50.0204 
 462   0.0000       1.839564        50.0571 
 463   0.0000       1.842410        50.1345 
 464   0.0000       1.846425        50.2438 
 465   0.0000       1.852877        50.4194 
 466   0.0000       1.855512        50.4911 
 467   0.0000       1.857239        50.5380 
 468   0.0000       1.858811        50.5808 
 469   0.0000       1.865385        50.7597 
 470   0.0000       1.867273        50.8111 
 471   0.0000       1.868697        50.8498 
 472   0.0000       1.880083        51.1597 
 473   0.0000       1.888931        51.4004 
 474   0.0000       1.889842        51.4252 
 475   0.0000       1.893194        51.5164 
 476   0.0000       1.896169        51.5974 
 477   0.0000       1.899744        51.6947 
 478   0.0000       1.914409        52.0937 
 479   0.0000       1.921696        52.2920 
 480   0.0000       1.927758        52.4570 
 481   0.0000       1.932395        52.5831 
 482   0.0000       1.935687        52.6727 
 483   0.0000       1.937746        52.7287 
 484   0.0000       1.944284        52.9067 
 485   0.0000       1.949682        53.0535 
 486   0.0000       1.959677        53.3255 
 487   0.0000       1.965582        53.4862 
 488   0.0000       1.972705        53.6800 
 489   0.0000       1.977736        53.8169 
 490   0.0000       1.984634        54.0046 
 491   0.0000       1.990304        54.1589 
 492   0.0000       1.995058        54.2883 
 493   0.0000       1.997127        54.3446 
 494   0.0000       2.003213        54.5102 
 495   0.0000       2.008605        54.6569 
 496   0.0000       2.011986        54.7489 
 497   0.0000       2.021354        55.0038 
 498   0.0000       2.022871        55.0451 
 499   0.0000       2.024399        55.0867 
 500   0.0000       2.033812        55.3428 
 501   0.0000       2.036831        55.4250 
 502   0.0000       2.042465        55.5783 
 503   0.0000       2.045396        55.6581 
 504   0.0000       2.052745        55.8580 
 505   0.0000       2.054966        55.9185 
 506   0.0000       2.059968        56.0546 
 507   0.0000       2.066747        56.2390 
 508   0.0000       2.074188        56.4415 
 509   0.0000       2.078850        56.5684 
 510   0.0000       2.081405        56.6379 
 511   0.0000       2.086664        56.7810 
 512   0.0000       2.095588        57.0239 
 513   0.0000       2.106723        57.3269 
 514   0.0000       2.117825        57.6289 
 515   0.0000       2.120216        57.6940 
 516   0.0000       2.134958        58.0952 
 517   0.0000       2.140482        58.2455 
 518   0.0000       2.146670        58.4139 
 519   0.0000       2.150910        58.5292 
 520   0.0000       2.166246        58.9466 
 521   0.0000       2.168608        59.0108 
 522   0.0000       2.172462        59.1157 
 523   0.0000       2.174822        59.1799 
 524   0.0000       2.178081        59.2686 
 525   0.0000       2.183525        59.4167 
 526   0.0000       2.186119        59.4873 
 527   0.0000       2.196399        59.7670 
 528   0.0000       2.202467        59.9322 
 529   0.0000       2.202898        59.9439 
 530   0.0000       2.211245        60.1710 
 531   0.0000       2.233826        60.7855 
 532   0.0000       2.238070        60.9010 
 533   0.0000       2.240967        60.9798 
 534   0.0000       2.243313        61.0436 
 535   0.0000       2.244660        61.0803 
 536   0.0000       2.251077        61.2549 
 537   0.0000       2.266872        61.6847 
 538   0.0000       2.282466        62.1090 
 539   0.0000       2.294524        62.4372 
 540   0.0000       2.295439        62.4621 
 541   0.0000       2.303257        62.6748 
 542   0.0000       2.307462        62.7892 
 543   0.0000       2.316045        63.0228 
 544   0.0000       2.332723        63.4766 
 545   0.0000       2.336440        63.5778 
 546   0.0000       2.338342        63.6295 
 547   0.0000       2.347617        63.8819 
 548   0.0000       2.350839        63.9696 
 549   0.0000       2.354817        64.0778 
 550   0.0000       2.358841        64.1873 
 551   0.0000       2.364285        64.3355 
 552   0.0000       2.376885        64.6783 
 553   0.0000       2.379587        64.7519 
 554   0.0000       2.382406        64.8286 
 555   0.0000       2.396028        65.1992 
 556   0.0000       2.403769        65.4099 
 557   0.0000       2.406670        65.4888 
 558   0.0000       2.415039        65.7165 
 559   0.0000       2.430913        66.1485 
 560   0.0000       2.434549        66.2474 
 561   0.0000       2.453127        66.7530 
 562   0.0000       2.456935        66.8566 
 563   0.0000       2.465478        67.0891 
 564   0.0000       2.469847        67.2080 
 565   0.0000       2.474367        67.3309 
 566   0.0000       2.475061        67.3498 
 567   0.0000       2.484081        67.5953 
 568   0.0000       2.494967        67.8915 
 569   0.0000       2.498933        67.9994 
 570   0.0000       2.501745        68.0759 
 571   0.0000       2.508828        68.2687 
 572   0.0000       2.524914        68.7064 
 573   0.0000       2.529725        68.8373 
 574   0.0000       2.533187        68.9315 
 575   0.0000       2.542676        69.1897 
 576   0.0000       2.545359        69.2627 
 577   0.0000       2.551942        69.4419 
 578   0.0000       2.562236        69.7220 
 579   0.0000       2.572627        70.0047 
 580   0.0000       2.578516        70.1650 
 581   0.0000       2.586567        70.3841 
 582   0.0000       2.593630        70.5763 
 583   0.0000       2.599112        70.7254 
 584   0.0000       2.601194        70.7821 
 585   0.0000       2.606223        70.9189 
 586   0.0000       2.608928        70.9926 
 587   0.0000       2.618048        71.2407 
 588   0.0000       2.625553        71.4449 
 589   0.0000       2.630199        71.5714 
 590   0.0000       2.631636        71.6104 
 591   0.0000       2.639549        71.8258 
 592   0.0000       2.650289        72.1180 
 593   0.0000       2.652147        72.1686 
 594   0.0000       2.658550        72.3428 
 595   0.0000       2.661620        72.4264 
 596   0.0000       2.683458        73.0206 
 597   0.0000       2.691897        73.2502 
 598   0.0000       2.700727        73.4905 
 599   0.0000       2.709735        73.7356 
 600   0.0000       2.715906        73.9036 
 601   0.0000       2.718902        73.9851 
 602   0.0000       2.727328        74.2144 
 603   0.0000       2.728629        74.2498 
 604   0.0000       2.732691        74.3603 
 605   0.0000       2.737573        74.4932 
 606   0.0000       2.742599        74.6299 
 607   0.0000       2.758383        75.0594 
 608   0.0000       2.760597        75.1197 
 609   0.0000       2.765898        75.2639 
 610   0.0000       2.786727        75.8307 
 611   0.0000       2.794539        76.0433 
 612   0.0000       2.795731        76.0757 
 613   0.0000       2.804741        76.3209 
 614   0.0000       2.811973        76.5177 
 615   0.0000       2.821396        76.7741 
 616   0.0000       2.824997        76.8721 
 617   0.0000       2.841050        77.3089 
 618   0.0000       2.844810        77.4112 
 619   0.0000       2.848314        77.5066 
 620   0.0000       2.857025        77.7436 
 621   0.0000       2.862940        77.9046 
 622   0.0000       2.867062        78.0167 
 623   0.0000       2.876658        78.2778 
 624   0.0000       2.880897        78.3932 
 625   0.0000       2.883152        78.4546 
 626   0.0000       2.895553        78.7920 
 627   0.0000       2.907679        79.1220 
 628   0.0000       2.909762        79.1786 
 629   0.0000       2.917677        79.3940 
 630   0.0000       2.926708        79.6398 
 631   0.0000       2.928072        79.6769 
 632   0.0000       2.933793        79.8326 
 633   0.0000       2.936281        79.9003 
 634   0.0000       2.940456        80.0139 
 635   0.0000       2.944111        80.1133 
 636   0.0000       2.948575        80.2348 
 637   0.0000       2.959151        80.5226 
 638   0.0000       2.963047        80.6286 
 639   0.0000       2.967663        80.7542 
 640   0.0000       2.981307        81.1255 
 641   0.0000       2.982223        81.1504 
 642   0.0000       2.983741        81.1917 
 643   0.0000       2.991157        81.3935 
 644   0.0000       2.993930        81.4690 
 645   0.0000       2.995210        81.5038 
 646   0.0000       3.000576        81.6498 
[...]

  Amplitude    Excitation in Canonical Basis
   0.469437   100 -> 107
  -0.175495   100 -> 109
   0.322675   100 -> 111
   0.149571   102 -> 107
  -0.102029   102 -> 109
   0.120420   102 -> 111
  -0.169985   103 -> 109
   0.101687   104 -> 107
  -0.520763   104 -> 109
   0.397515   104 -> 113

IROOT= 24:  0.267227 au     7.272 eV   58649.6 cm**-1
  Amplitude    Excitation
  -0.140671    96 -> 115
   0.119606    99 -> 108
  -0.111735   101 -> 112
   0.167758   102 -> 108
  -0.141012   103 -> 108
  -0.158403   103 -> 113
   0.804572   104 -> 115
   0.128338   104 -> 117
   0.267096   104 -> 118
  -0.139551   104 -> 124
   0.103691   105 -> 115
  Ground state amplitude: -0.000091

Percentage Active Character     83.03

Warning:: the state may have not converged with respect to active space 
-------------------- Handle with Care -------------------- 

  Amplitude    Excitation in Canonical Basis
   0.118009    99 -> 108
   0.107137   101 -> 113
  -0.166594   102 -> 108
   0.142224   103 -> 108
   0.156878   103 -> 114
  -0.400887   104 -> 115
   0.671974   104 -> 116
  -0.115879   104 -> 117
  -0.256189   104 -> 119
   0.177249   104 -> 124
  -0.132787   104 -> 129

IROOT= 25:  0.285521 au     7.769 eV   62664.6 cm**-1
  Amplitude    Excitation
  -0.223104    99 -> 109
  -0.198113   100 -> 109
  -0.174225   100 -> 112
  -0.256360   100 -> 114
   0.217466   101 -> 113
   0.130835   102 -> 109
   0.620705   102 -> 114
  -0.148783   102 -> 118
  -0.150330   103 -> 110
  -0.106569   103 -> 111
   0.220248   103 -> 112
   0.360374   103 -> 114
   0.149774   105 -> 116
  Ground state amplitude: -0.004531

Percentage Active Character     92.15

Warning:: the state may have not converged with respect to active space 
-------------------- Handle with Care -------------------- 

  Amplitude    Excitation in Canonical Basis
  -0.221275    99 -> 109
   0.196615   100 -> 109
   0.256637   100 -> 112
  -0.171439   100 -> 113
  -0.103484   101 -> 112
   0.205212   101 -> 114
  -0.125500   102 -> 109
  -0.619373   102 -> 112
  -0.110147   102 -> 117
   0.171771   103 -> 110
  -0.134139   103 -> 111
  -0.330459   103 -> 112
   0.222538   103 -> 113
  -0.116725   105 -> 126



-------------------
CPCM SOLVENT SHIFT
-------------------

Reading the CPCM data                  ... done
Making difference densities            ... done
Computing the potentials               ... done
Calculating charges                    ... done

---------------------------------
     CALCULATED SOLVENT SHIFTS   
            CPCM  MODEL          
---------------------------------

Contributions of the 'fast' term to the solvent shift

 State Shift(Eh) Shift(eV) Shift(cm**-1) Shift(nm) Esteom(eV)  Esteom+SHIFT(eV)
-------------------------------------------------------------------------------
   0: -0.0015748 -0.043     -345.6        6.1      2.963          2.921
   1: -0.0005932 -0.016     -130.2        1.7      3.436          3.420
   2: -0.0267169 -0.727    -5863.7       79.4      3.752          3.025
   3: -0.0057478 -0.156    -1261.5       12.8      3.975          3.819
   4: -0.0089511 -0.244    -1964.6       20.2      3.992          3.748
   5: -0.0043646 -0.119     -957.9        8.5      4.230          4.111
   6: -0.0007052 -0.019     -154.8        1.1      4.568          4.549
   7: -0.0029918 -0.081     -656.6        4.4      4.849          4.768
   8: -0.0232803 -0.633    -5109.4       37.1      4.930          4.297
   9: -0.0017650 -0.048     -387.4        2.2      5.174          5.126
  10: -0.0002471 -0.007      -54.2        0.3      5.310          5.303
  11: -0.0106023 -0.289    -2326.9       12.2      5.554          5.265
  12: -0.0003474 -0.009      -76.2        0.4      5.572          5.563
  13: -0.0004969 -0.014     -109.1        0.5      5.782          5.768
  14: -0.0010363 -0.028     -227.4        1.0      5.842          5.813
  15: -0.0225260 -0.613    -4943.9       24.8      5.847          5.234
  16: -0.0003978 -0.011      -87.3        0.4      5.888          5.877
  17: -0.0002344 -0.006      -51.5        0.2      6.091          6.085
  18: -0.0008131 -0.022     -178.5        0.7      6.260          6.238
  19: -0.0040100 -0.109     -880.1        3.5      6.305          6.196
  20: -0.0015945 -0.043     -349.9        1.3      6.523          6.479
  21: -0.0059091 -0.161    -1296.9        4.5      6.715          6.555
  22: -0.0090715 -0.247    -1991.0        7.0      6.759          6.512
  23: -0.0016057 -0.044     -352.4        1.0      7.272          7.228
  24: -0.0048721 -0.133    -1069.3        2.8      7.769          7.637

-------------------
CPCM SOLVENT SHIFT
-------------------

Reading the CPCM data                  ... done
Making difference densities            ... done
Computing the potentials               ... done
Calculating charges                    ... done

R0 correction
 State Shift(Eh) Shift(eV)
--------------------------
   0: -0.0017593 -0.048
   1: -0.0005933 -0.016
   2: -0.0267182 -0.727
   3: -0.0057586 -0.157
   4: -0.0089886 -0.245
   5: -0.0043645 -0.119
   6: -0.0007043 -0.019
   7: -0.0029918 -0.081
   8: -0.0232803 -0.633
   9: -0.0017650 -0.048
  10: -0.0002472 -0.007
  11: -0.0106022 -0.289
  12: -0.0003610 -0.010
  13: -0.0004969 -0.014
  14: -0.0010290 -0.028
  15: -0.0225255 -0.613
  16: -0.0004127 -0.011
  17: -0.0002368 -0.006
  18: -0.0007993 -0.022
  19: -0.0040101 -0.109
  20: -0.0015922 -0.043
  21: -0.0059881 -0.163
  22: -0.0091281 -0.248
  23: -0.0016057 -0.044
  24: -0.0048706 -0.133

STEOM-CCSD done (31411.3 sec)
Calculating the Dipole integrals                  ... done
Transforming integrals                            ... done
Calculating the Linear Momentum integrals         ... done
Transforming integrals                            ... done
Calculating angular momentum integrals            ... done
Transforming integrals                            ... done

--------------------------------------------------------------------
               UNRELAXED EXCITED STATE DIPOLE MOMENTS
--------------------------------------------------------------------
               E(eV)     DX(au)      DY(au)      DZ(au)      |D|(D)
IROOT=  0:     0.000   -1.945160    0.335496    0.043234    5.018409
IROOT=  1:     2.921   -2.564622    0.319691    0.055139    6.570697
IROOT=  2:     3.420   -2.170246    0.330421    0.042168    5.580924
IROOT=  3:     3.025   -9.948445    0.322539   -0.035462   25.300383
IROOT=  4:     3.819    0.400223   -0.093459    0.049343    1.052157
IROOT=  5:     3.748    1.455147    0.850832   -0.094094    4.291215
IROOT=  6:     4.111   -0.308920    0.313244    0.007774    1.118432
IROOT=  7:     4.549   -1.315728    0.338524   -0.279013    3.525307
IROOT=  8:     4.768   -0.752272    0.359120    0.014102    2.119133
IROOT=  9:     4.297   -8.331768    0.327131    0.140248   21.196986
IROOT= 10:     5.126   -2.992217    0.336305    0.055220    7.654785
IROOT= 11:     5.303   -2.230356    0.340684    0.042572    5.735891
IROOT= 12:     5.265    3.057320    0.357678   -0.023196    7.824311
IROOT= 13:     5.563   -3.324876    0.360930    0.063927    8.502365
IROOT= 14:     5.768   -0.617414    0.304479    0.007715    1.749906
IROOT= 15:     5.813   -1.827761    0.348603   -0.116100    4.738741
IROOT= 16:     5.234   -8.822929    0.334988   -0.063360   22.442841
IROOT= 17:     5.877   -3.037150    0.355502    0.057927    7.773921
IROOT= 18:     6.085   -3.176358    0.354490    0.058344    8.125137
IROOT= 19:     6.238   -2.919295    0.373070    0.054383    7.481880
IROOT= 20:     6.196    1.941537    0.343150   -0.025414    5.011898
IROOT= 21:     6.479   -4.299359    0.389799    0.080377   10.974828
IROOT= 22:     6.555   -4.818510    1.518920    0.012780   12.841822
IROOT= 23:     6.512   -5.857518    0.088891   -0.189785   14.898154
IROOT= 24:     7.228   -1.994052    0.335877    0.302690    5.197139
IROOT= 25:     7.637   -3.438471    0.206650   -0.469550    8.836638
--------------------------------------------------------------------

-----------------------------------------------------------------------------
         ABSORPTION SPECTRUM VIA TRANSITION ELECTRIC DIPOLE MOMENTS
-----------------------------------------------------------------------------
State   Energy  Wavelength   fosc         T2         TX        TY        TZ  
        (cm-1)    (nm)                  (au**2)     (au)      (au)      (au) 
-----------------------------------------------------------------------------
   1   23556.2    424.5   0.218117189   3.04832   1.74562   0.01114   0.02924
   2   27584.9    362.5   0.128170270   1.52965   0.01299   1.23502   0.05994
   3   24400.2    409.8   0.000126183   0.00170   0.01525   0.03201   0.00684
   4   30798.9    324.7   0.054095258   0.57823   0.52817   0.54358   0.02937
   5   30232.9    330.8   0.074441031   0.81060   0.81668   0.37499   0.03255
   6   33157.8    301.6   0.035141517   0.34891   0.04001   0.54648   0.22034
   7   36687.3    272.6   0.012355965   0.11088   0.01951   0.05010   0.32811
   8   38455.2    260.0   0.002125909   0.01820   0.04116   0.10922   0.06702
   9   34655.7    288.6   0.126883419   1.20533   0.00322   1.09165   0.11601
  10   41345.1    241.9   1.034994421   8.24118   0.01046   2.86437   0.19080
  11   42771.8    233.8   0.007201087   0.05543   0.23500   0.00739   0.00704
  12   42465.7    235.5   0.000522236   0.00405   0.02021   0.01737   0.03474
  13   44868.8    222.9   0.257121887   1.88656   1.37254   0.04222   0.00383
  14   46523.4    214.9   0.179343084   1.26908   0.00270   1.12426   0.07111
  15   46887.8    213.3   0.209640302   1.47194   1.19503   0.00811   0.20375
  16   42218.7    236.9   0.004725591   0.03685   0.07539   0.13522   0.09224
  17   47404.5    211.0   0.000274971   0.00191   0.00975   0.00968   0.01438
  18   49076.4    203.8   0.142364666   0.95500   0.97706   0.00362   0.01788
  19   50311.4    198.8   0.580510363   3.79856   1.94714   0.01421   0.08068
  20   49976.0    200.1   0.038130667   0.25118   0.01464   0.49939   0.03837
  21   52258.6    191.4   0.345006077   2.17342   1.47400   0.01949   0.01799
  22   52866.5    189.2   0.545265474   3.39549   1.79307   0.09589   0.41328
  23   52520.1    190.4   0.327198689   2.05098   1.34346   0.12127   0.48101
  24   58297.2    171.5   0.004950806   0.02796   0.01208   0.15326   0.06405
  25   61595.3    162.4   0.027216043   0.14546   0.37946   0.03011   0.02375

-------------------------------------------------------------------
                             CD SPECTRUM
-------------------------------------------------------------------
State   Energy Wavelength       R         MX        MY        MZ   
        (cm-1)   (nm)       (1e40*cgs)   (au)      (au)      (au)  
-------------------------------------------------------------------
   1     424.5   23556.2     -0.33624   0.02710  -0.02150  -0.00125
   2     362.5   27584.9     -1.91905  -0.01087  -0.03840  -0.48989
   3     409.8   24400.2     -0.04175   0.04237  -0.00948   0.03230
   4     324.7   30798.9      1.16403  -0.04585   0.07640  -0.24007
   5     330.8   30232.9     -2.44096   0.06090   0.02579  -0.14416
   6     301.6   33157.8     -3.12850  -0.00499  -0.11749  -0.06328
   7     272.6   36687.3     -0.50941  -0.00007  -0.50375   0.00179
   8     260.0   38455.2     -0.35988   0.00005  -0.03121   0.05543
   9     288.6   34655.7      0.81132  -0.00743   0.04088  -0.04271
  10     241.9   41345.1      2.70624   0.01168  -0.03337   0.17801
  11     233.8   42771.8     -0.46355  -0.03482  -0.00216  -0.00299
  12     235.5   42465.7      0.20528  -0.00062  -0.04088   0.05376
  13     222.9   44868.8    -10.56135   0.07562  -0.06347  -0.00293
  14     214.9   46523.4     -6.36196   0.00426   0.06966   0.80251
  15     213.3   46887.8     -0.52942   0.00380  -0.35166   0.00176
  16     236.9   42218.7      0.17694   0.00205   0.01892   0.12602
  17     211.0   47404.5     -0.39972  -0.05730  -0.02441  -0.00546
  18     203.8   49076.4      0.42764   0.00746   0.06485  -0.00629
  19     198.8   50311.4      2.17685  -0.02580  -0.02708  -0.01104
  20     200.1   49976.0      0.29290   0.00378  -0.02498   0.63657
  21     191.4   52258.6      0.34071   0.00580   0.04141   0.00639
  22     189.2   52866.5     -0.10997   0.00510  -0.23029  -0.01051
  23     190.4   52520.1     -0.42473  -0.00087   0.09921  -0.00052
  24     171.5   58297.2      0.60403   0.04631  -0.00857  -0.37789
  25     162.4   61595.3     13.41117  -0.38990   0.02365   0.02929

TDM done (31842.0 sec)
STEOM-CCSD done in (31842.5)


--------------------------------------------------------------------------------
                                    TIMINGS
--------------------------------------------------------------------------------


Total execution time                   ...    82070.160 sec

Localization of occupied MO's          ...        5.359 sec (  0.0%)
Fock Matrix Formation                  ...      369.961 sec (  0.5%)
Global overlap, Fock, MKN matrices     ...        1.766 sec (  0.0%)
Differential overlap integrals         ...        6.559 sec (  0.0%)
Organizing maps                        ...        0.130 sec (  0.0%)
RI 3-index integral generations        ...      130.105 sec (  0.2%)
RI-PNO integral transformation         ...     7924.382 sec (  9.7%)
Initial Guess                          ...     1195.649 sec (  1.5%)
DIIS Solver                            ...       12.601 sec (  0.0%)
State Vector Update                    ...        0.156 sec (  0.0%)
Sigma-vector construction              ...     6771.464 sec (  8.3%)
  <0|H|D>                              ...        0.009 sec (  0.0% of sigma)
  <D|H|D>(0-ext)                       ...      299.347 sec (  4.4% of sigma)
  <D|H|D>(2-ext Fock)                  ...        0.360 sec (  0.0% of sigma)
  <D|H|D>(2-ext)                       ...     1244.830 sec ( 18.4% of sigma)
  <D|H|D>(4-ext)                       ...      486.124 sec (  7.2% of sigma)
  <D|H|D>(4-ext-corr)                  ...     3092.436 sec ( 45.7% of sigma)
  CCSD doubles correction              ...        5.899 sec (  0.1% of sigma)
  <S|H|S>                              ...      238.537 sec (  3.5% of sigma)
  <S|H|D>(1-ext)                       ...       36.537 sec (  0.5% of sigma)
  <D|H|S>(1-ext)                       ...        0.329 sec (  0.0% of sigma)
  <S|H|D>(3-ext)                       ...        5.016 sec (  0.1% of sigma)
  CCSD singles correction              ...        0.007 sec (  0.0% of sigma)
  Fock-dressing                        ...      898.820 sec ( 13.3% of sigma)
  Singles amplitudes                   ...       23.003 sec (  0.3% of sigma)
  (ik|jl)-dressing                     ...      223.037 sec (  3.3% of sigma)
  (ij|ab),(ia|jb)-dressing             ...       50.411 sec (  0.7% of sigma)
  Pair energies                        ...        0.108 sec (  0.0% of sigma)
Total Time for computing EOM-CCSD      ...    26205.280 sec ( 31.9% of ALL)
  Dressing integrals                   ...      252.815 sec (  1.0% of (EOM))
  Initial EOM-Guess                    ...        0.011 sec (  0.0% of (EOM))
  EOM Singles                          ...      491.505 sec (  1.9% of (EOM))
  EOM Doubles                          ...    24516.652 sec ( 93.6% of (EOM))
  Build Hamiltonian                    ...       91.482 sec (  0.3% of (EOM))
  Diagonalize Hamiltonian              ...        9.214 sec (  0.0% of (EOM))
  Ritz vectors                         ...      191.348 sec (  0.7% of (EOM))
  Residual vectors                     ...      204.831 sec (  0.8% of (EOM))
One-particle density matrix            ...       16.240 sec (  0.0%)


Maximum memory used throughout the entire MDCI-calculation: 60503.1 MB

-------------------------   --------------------
FINAL SINGLE POINT ENERGY     -1305.975024319961
-------------------------   --------------------


                            ***************************************
                            *     ORCA property calculations      *
                            ***************************************

                                    ---------------------
                                    Active property flags
                                    ---------------------
   (+) Dipole Moment


------------------------------------------------------------------------------
                       ORCA ELECTRIC PROPERTIES CALCULATION
------------------------------------------------------------------------------

Dipole Moment Calculation                       ... on
Quadrupole Moment Calculation                   ... off
Polarizability Calculation                      ... off
GBWName                                         ... BOH-Acr_p_STEOM-DLPNO-CCSD_DEF2-TZVP_RIJCOSX_SMD.gbw
Electron density                                ... BOH-Acr_p_STEOM-DLPNO-CCSD_DEF2-TZVP_RIJCOSX_SMD.scfp
The origin for moment calculation is the CENTER OF MASS  = ( 0.084974, -0.001836  0.009978)

-------------
DIPOLE MOMENT
-------------
                                X             Y             Z
Electronic contribution:     16.46558      -0.04445       2.15409
Nuclear contribution   :    -18.09944       0.39115      -2.12544
                        -----------------------------------------
Total Dipole Moment    :     -1.63386       0.34670       0.02865
                        -----------------------------------------
Magnitude (a.u.)       :      1.67049
Magnitude (Debye)      :      4.24604



--------------------
Rotational spectrum 
--------------------
 
Rotational constants in cm-1:     0.012596     0.002183     0.001953 
Rotational constants in MHz :   377.610801    65.449689    58.549588 

 Dipole components along the rotational axes: 
x,y,z [a.u.] :    -1.634056    -0.346141     0.023802 
x,y,z [Debye]:    -4.153441    -0.879821     0.060500 

 

                           *** MDCI DENSITY ***

------------------------------------------------------------------------------
                       ORCA ELECTRIC PROPERTIES CALCULATION
------------------------------------------------------------------------------

Dipole Moment Calculation                       ... on
Quadrupole Moment Calculation                   ... off
Polarizability Calculation                      ... off
GBWName                                         ... BOH-Acr_p_STEOM-DLPNO-CCSD_DEF2-TZVP_RIJCOSX_SMD.gbw
Electron density                                ... BOH-Acr_p_STEOM-DLPNO-CCSD_DEF2-TZVP_RIJCOSX_SMD.mdcip
The origin for moment calculation is the CENTER OF MASS  = ( 0.084974, -0.001836  0.009978)

-------------
DIPOLE MOMENT
-------------
                                X             Y             Z
Electronic contribution:     16.13414      -0.05963       2.17146
Nuclear contribution   :    -18.09944       0.39115      -2.12544
                        -----------------------------------------
Total Dipole Moment    :     -1.96529       0.33152       0.04602
                        -----------------------------------------
Magnitude (a.u.)       :      1.99359
Magnitude (Debye)      :      5.06731



--------------------
Rotational spectrum 
--------------------
 
Rotational constants in cm-1:     0.012596     0.002183     0.001953 
Rotational constants in MHz :   377.610801    65.449689    58.549588 

 Dipole components along the rotational axes: 
x,y,z [a.u.] :    -1.965551    -0.330799     0.039849 
x,y,z [Debye]:    -4.996033    -0.840824     0.101289 

 

Timings for individual modules:

Sum of individual times         ...    84929.703 sec (=1415.495 min)
GTO integral calculation        ...        2.378 sec (=   0.040 min)   0.0 %
SCF iterations                  ...     2848.515 sec (=  47.475 min)   3.4 %
MDCI module                     ...    82078.811 sec (=1367.980 min)  96.6 %
                             ****ORCA TERMINATED NORMALLY****
TOTAL RUN TIME: 0 days 23 hours 35 minutes 33 seconds 836 msec
