 Entering Gaussian System, Link 0=g09
 Input=/home/png4rjv/fotokatalizis/benchmark/OPCs/BOH-Acr_p_B3LYP-D3_def2TZVP.gjf
 Output=/home/png4rjv/fotokatalizis/benchmark/OPCs/BOH-Acr_p_B3LYP-D3_def2TZVP.log
 Initial command:
 /opt/nce/packages/global/g09/l1.exe "/home/png4rjv/fotokatalizis/benchmark/OPCs/BOH-Acr_p_B3LYP-D3_def2TZVP/Gau-5437.inp" -scrdir="/home/png4rjv/fotokatalizis/benchmark/OPCs/BOH-Acr_p_B3LYP-D3_def2TZVP/"
 Default is to use a total of  12 processors:
                               12 via shared-memory
                                1 via Linda
 Entering Link 1 = /opt/nce/packages/global/g09/l1.exe PID=      5438.
  
 Copyright (c) 1988,1990,1992,1993,1995,1998,2003,2009,2015,
            Gaussian, Inc.  All Rights Reserved.
  
 This is part of the Gaussian(R) 09 program.  It is based on
 the Gaussian(R) 03 system (copyright 2003, Gaussian, Inc.),
 the Gaussian(R) 98 system (copyright 1998, Gaussian, Inc.),
 the Gaussian(R) 94 system (copyright 1995, Gaussian, Inc.),
 the Gaussian 92(TM) system (copyright 1992, Gaussian, Inc.),
 the Gaussian 90(TM) system (copyright 1990, Gaussian, Inc.),
 the Gaussian 88(TM) system (copyright 1988, Gaussian, Inc.),
 the Gaussian 86(TM) system (copyright 1986, Carnegie Mellon
 University), and the Gaussian 82(TM) system (copyright 1983,
 Carnegie Mellon University). Gaussian is a federally registered
 trademark of Gaussian, Inc.
  
 This software contains proprietary and confidential information,
 including trade secrets, belonging to Gaussian, Inc.
  
 This software is provided under written license and may be
 used, copied, transmitted, or stored only in accord with that
 written license.
  
 The following legend is applicable only to US Government
 contracts under FAR:
  
                    RESTRICTED RIGHTS LEGEND
  
 Use, reproduction and disclosure by the US Government is
 subject to restrictions as set forth in subparagraphs (a)
 and (c) of the Commercial Computer Software - Restricted
 Rights clause in FAR 52.227-19.
  
 Gaussian, Inc.
 340 Quinnipiac St., Bldg. 40, Wallingford CT 06492
  
  
 ---------------------------------------------------------------
 Warning -- This program may not be used in any manner that
 competes with the business of Gaussian, Inc. or will provide
 assistance to any competitor of Gaussian, Inc.  The licensee
 of this program is prohibited from giving any competitor of
 Gaussian, Inc. access to this program.  By using this program,
 the user acknowledges that Gaussian, Inc. is engaged in the
 business of creating and licensing software in the field of
 computational chemistry and represents and warrants to the
 licensee that it is not a competitor of Gaussian, Inc. and that
 it will not use this program in any manner prohibited above.
 ---------------------------------------------------------------
  

 Cite this work as:
 Gaussian 09, Revision E.01,
 M. J. Frisch, G. W. Trucks, H. B. Schlegel, G. E. Scuseria, 
 M. A. Robb, J. R. Cheeseman, G. Scalmani, V. Barone, B. Mennucci, 
 G. A. Petersson, H. Nakatsuji, M. Caricato, X. Li, H. P. Hratchian, 
 A. F. Izmaylov, J. Bloino, G. Zheng, J. L. Sonnenberg, M. Hada, 
 M. Ehara, K. Toyota, R. Fukuda, J. Hasegawa, M. Ishida, T. Nakajima, 
 Y. Honda, O. Kitao, H. Nakai, T. Vreven, J. A. Montgomery, Jr., 
 J. E. Peralta, F. Ogliaro, M. Bearpark, J. J. Heyd, E. Brothers, 
 K. N. Kudin, V. N. Staroverov, T. Keith, R. Kobayashi, J. Normand, 
 K. Raghavachari, A. Rendell, J. C. Burant, S. S. Iyengar, J. Tomasi, 
 M. Cossi, N. Rega, J. M. Millam, M. Klene, J. E. Knox, J. B. Cross, 
 V. Bakken, C. Adamo, J. Jaramillo, R. Gomperts, R. E. Stratmann, 
 O. Yazyev, A. J. Austin, R. Cammi, C. Pomelli, J. W. Ochterski, 
 R. L. Martin, K. Morokuma, V. G. Zakrzewski, G. A. Voth, 
 P. Salvador, J. J. Dannenberg, S. Dapprich, A. D. Daniels, 
 O. Farkas, J. B. Foresman, J. V. Ortiz, J. Cioslowski, 
 and D. J. Fox, Gaussian, Inc., Wallingford CT, 2013.
 
 ******************************************
 Gaussian 09:  ES64L-G09RevE.01 30-Nov-2015
                13-Feb-2021 
 ******************************************
 %chk=cp.chk
 Default route:  MaxDisk=500GB
 ----------------------------------------------------------------------
 #p b3lyp/def2TZVP opt freq=noraman nosymm int=ultrafine scrf=(SMD,solv
 ent=Acetonitrile) EmpiricalDispersion=GD3BJ
 ----------------------------------------------------------------------
 1/14=-1,18=20,19=15,26=4,38=1/1,3;
 2/9=110,12=2,15=1,17=6,18=5,40=1/2;
 3/5=44,7=101,11=2,16=1,25=1,30=1,70=32201,71=1,72=2,74=-5,75=-5,124=41/1,2,3;
 4//1;
 5/5=2,38=5,53=2/2;
 6/7=2,8=2,9=2,10=2,28=1/1;
 7/30=1/1,2,3,16;
 1/14=-1,18=20,19=15,26=4/3(2);
 2/9=110,15=1/2;
 99//99;
 2/9=110,15=1/2;
 3/5=44,7=101,11=2,16=1,25=1,30=1,70=32205,71=1,72=2,74=-5,75=-5,124=41/1,2,3;
 4/5=5,16=3,69=1/1;
 5/5=2,38=5,53=2/2;
 7/30=1/1,2,3,16;
 1/14=-1,18=20,19=15,26=4/3(-5);
 2/9=110,15=1/2;
 6/7=2,8=2,9=2,10=2,19=2,28=1/1;
 99/9=1/99;
 Leave Link    1 at Sat Feb 13 19:12:17 2021, MaxMem=           0 cpu:         2.2
 (Enter /opt/nce/packages/global/g09/l101.exe)
 -----
 Title
 -----
 Symbolic Z-matrix:
 Charge =  1 Multiplicity = 1
 C                     1.00842   3.61631   0.23015 
 C                     1.69392   2.42154   0.166 
 C                     0.97826   1.19972   0.11037 
 C                    -0.45798   1.21611   0.10147 
 C                    -1.12146   2.47891   0.19519 
 C                    -0.40812   3.65098   0.25457 
 C                    -1.17135  -0.00628   0.03053 
 C                    -0.45288  -1.22676  -0.01738 
 C                     0.98278  -1.20685   0.02307 
 C                     1.70278  -2.42711  -0.00475 
 H                     2.78949  -2.41261   0.03914 
 C                     1.0228   -3.62355  -0.09201 
 C                    -0.39177  -3.66148  -0.16927 
 C                    -1.10951  -2.49105  -0.13592 
 H                     1.57139   4.55115   0.27422 
 H                     2.78153   2.40958   0.16252 
 H                    -2.20973   2.4931    0.2267 
 H                    -0.92737   4.60792   0.32799 
 H                     1.58911  -4.55717  -0.11355 
 H                    -0.90563  -4.61958  -0.2628 
 H                    -2.19575  -2.5074   -0.20917 
 N                     1.64551  -0.00273   0.07695 
 C                    -2.65276  -0.00774   0.00493 
 C                    -3.3453    0.55343  -1.08244 
 C                    -3.38217  -0.57126   1.06515 
 C                    -4.73825   0.53811  -1.10711 
 C                    -4.77635  -0.55638   1.03545 
 C                    -5.4851   -0.0077   -0.04664 
 H                    -5.269     0.95659  -1.96454 
 H                    -5.31266  -0.99711   1.88131 
 H                    -2.78649   0.98271  -1.91713 
 H                    -2.85519  -1.00452   1.91805 
 C                     3.09427  -0.001     0.10391 
 C                     3.80809   0.02691  -1.09179 
 C                     3.76286  -0.02734   1.3339 
 C                     5.20431   0.02906  -1.07253 
 H                     3.27478   0.0473   -2.04438 
 C                     5.15003  -0.02579   1.35989 
 H                     3.19266  -0.04903   2.26473 
 C                     5.8874    0.00255   0.15754 
 H                     5.74786   0.05129  -2.01586 
 H                     5.69897  -0.04623   2.30238 
 O                     7.22101   0.00199   0.28561 
 C                     8.04101   0.02916  -0.87094 
 H                     9.0776    0.0225   -0.51341 
 H                     7.87032  -0.8573   -1.50515 
 H                     7.8679    0.94285  -1.46455 
 B                    -7.06559   0.01114  -0.11763 
 O                    -7.87849  -0.31799   0.92377 
 H                    -7.43763  -0.5283    1.75395 
 O                    -7.62106   0.38541  -1.29749 
 H                    -8.58785   0.38737  -1.27412 
 
 NAtoms=     52 NQM=       52 NQMF=       0 NMMI=      0 NMMIF=      0
                NMic=       0 NMicF=      0.
                    Isotopes and Nuclear Properties:
 (Nuclear quadrupole moments (NQMom) in fm**2, nuclear magnetic moments (NMagM)
  in nuclear magnetons)

  Atom         1           2           3           4           5           6           7           8           9          10
 IAtWgt=          12          12          12          12          12          12          12          12          12          12
 AtmWgt=  12.0000000  12.0000000  12.0000000  12.0000000  12.0000000  12.0000000  12.0000000  12.0000000  12.0000000  12.0000000
 NucSpn=           0           0           0           0           0           0           0           0           0           0
 AtZEff=   0.0000000   0.0000000   0.0000000   0.0000000   0.0000000   0.0000000   0.0000000   0.0000000   0.0000000   0.0000000
 NQMom=    0.0000000   0.0000000   0.0000000   0.0000000   0.0000000   0.0000000   0.0000000   0.0000000   0.0000000   0.0000000
 NMagM=    0.0000000   0.0000000   0.0000000   0.0000000   0.0000000   0.0000000   0.0000000   0.0000000   0.0000000   0.0000000
 AtZNuc=   6.0000000   6.0000000   6.0000000   6.0000000   6.0000000   6.0000000   6.0000000   6.0000000   6.0000000   6.0000000

  Atom        11          12          13          14          15          16          17          18          19          20
 IAtWgt=           1          12          12          12           1           1           1           1           1           1
 AtmWgt=   1.0078250  12.0000000  12.0000000  12.0000000   1.0078250   1.0078250   1.0078250   1.0078250   1.0078250   1.0078250
 NucSpn=           1           0           0           0           1           1           1           1           1           1
 AtZEff=   0.0000000   0.0000000   0.0000000   0.0000000   0.0000000   0.0000000   0.0000000   0.0000000   0.0000000   0.0000000
 NQMom=    0.0000000   0.0000000   0.0000000   0.0000000   0.0000000   0.0000000   0.0000000   0.0000000   0.0000000   0.0000000
 NMagM=    2.7928460   0.0000000   0.0000000   0.0000000   2.7928460   2.7928460   2.7928460   2.7928460   2.7928460   2.7928460
 AtZNuc=   1.0000000   6.0000000   6.0000000   6.0000000   1.0000000   1.0000000   1.0000000   1.0000000   1.0000000   1.0000000

  Atom        21          22          23          24          25          26          27          28          29          30
 IAtWgt=           1          14          12          12          12          12          12          12           1           1
 AtmWgt=   1.0078250  14.0030740  12.0000000  12.0000000  12.0000000  12.0000000  12.0000000  12.0000000   1.0078250   1.0078250
 NucSpn=           1           2           0           0           0           0           0           0           1           1
 AtZEff=   0.0000000   0.0000000   0.0000000   0.0000000   0.0000000   0.0000000   0.0000000   0.0000000   0.0000000   0.0000000
 NQMom=    0.0000000   2.0440000   0.0000000   0.0000000   0.0000000   0.0000000   0.0000000   0.0000000   0.0000000   0.0000000
 NMagM=    2.7928460   0.4037610   0.0000000   0.0000000   0.0000000   0.0000000   0.0000000   0.0000000   2.7928460   2.7928460
 AtZNuc=   1.0000000   7.0000000   6.0000000   6.0000000   6.0000000   6.0000000   6.0000000   6.0000000   1.0000000   1.0000000

  Atom        31          32          33          34          35          36          37          38          39          40
 IAtWgt=           1           1          12          12          12          12           1          12           1          12
 AtmWgt=   1.0078250   1.0078250  12.0000000  12.0000000  12.0000000  12.0000000   1.0078250  12.0000000   1.0078250  12.0000000
 NucSpn=           1           1           0           0           0           0           1           0           1           0
 AtZEff=   0.0000000   0.0000000   0.0000000   0.0000000   0.0000000   0.0000000   0.0000000   0.0000000   0.0000000   0.0000000
 NQMom=    0.0000000   0.0000000   0.0000000   0.0000000   0.0000000   0.0000000   0.0000000   0.0000000   0.0000000   0.0000000
 NMagM=    2.7928460   2.7928460   0.0000000   0.0000000   0.0000000   0.0000000   2.7928460   0.0000000   2.7928460   0.0000000
 AtZNuc=   1.0000000   1.0000000   6.0000000   6.0000000   6.0000000   6.0000000   1.0000000   6.0000000   1.0000000   6.0000000

  Atom        41          42          43          44          45          46          47          48          49          50
 IAtWgt=           1           1          16          12           1           1           1          11          16           1
 AtmWgt=   1.0078250   1.0078250  15.9949146  12.0000000   1.0078250   1.0078250   1.0078250  11.0093053  15.9949146   1.0078250
 NucSpn=           1           1           0           0           1           1           1           3           0           1
 AtZEff=   0.0000000   0.0000000   0.0000000   0.0000000   0.0000000   0.0000000   0.0000000   0.0000000   0.0000000   0.0000000
 NQMom=    0.0000000   0.0000000   0.0000000   0.0000000   0.0000000   0.0000000   0.0000000   4.0590000   0.0000000   0.0000000
 NMagM=    2.7928460   2.7928460   0.0000000   0.0000000   2.7928460   2.7928460   2.7928460   2.6886370   0.0000000   2.7928460
 AtZNuc=   1.0000000   1.0000000   8.0000000   6.0000000   1.0000000   1.0000000   1.0000000   5.0000000   8.0000000   1.0000000

  Atom        51          52
 IAtWgt=          16           1
 AtmWgt=  15.9949146   1.0078250
 NucSpn=           0           1
 AtZEff=   0.0000000   0.0000000
 NQMom=    0.0000000   0.0000000
 NMagM=    0.0000000   2.7928460
 AtZNuc=   8.0000000   1.0000000
 Leave Link  101 at Sat Feb 13 19:12:17 2021, MaxMem=  5242880000 cpu:         4.3
 (Enter /opt/nce/packages/global/g09/l103.exe)

 GradGradGradGradGradGradGradGradGradGradGradGradGradGradGradGradGradGrad
 Berny optimization.
 Initialization pass.
                           ----------------------------
                           !    Initial Parameters    !
                           ! (Angstroms and Degrees)  !
 --------------------------                            --------------------------
 ! Name  Definition              Value          Derivative Info.                !
 --------------------------------------------------------------------------------
 ! R1    R(1,2)                  1.3789         estimate D2E/DX2                !
 ! R2    R(1,6)                  1.4172         estimate D2E/DX2                !
 ! R3    R(1,15)                 1.0922         estimate D2E/DX2                !
 ! R4    R(2,3)                  1.4171         estimate D2E/DX2                !
 ! R5    R(2,16)                 1.0877         estimate D2E/DX2                !
 ! R6    R(3,4)                  1.4364         estimate D2E/DX2                !
 ! R7    R(3,22)                 1.3756         estimate D2E/DX2                !
 ! R8    R(4,5)                  1.4296         estimate D2E/DX2                !
 ! R9    R(4,7)                  1.4171         estimate D2E/DX2                !
 ! R10   R(5,6)                  1.3734         estimate D2E/DX2                !
 ! R11   R(5,17)                 1.0888         estimate D2E/DX2                !
 ! R12   R(6,18)                 1.0912         estimate D2E/DX2                !
 ! R13   R(7,8)                  1.4171         estimate D2E/DX2                !
 ! R14   R(7,23)                 1.4816         estimate D2E/DX2                !
 ! R15   R(8,9)                  1.4364         estimate D2E/DX2                !
 ! R16   R(8,14)                 1.4296         estimate D2E/DX2                !
 ! R17   R(9,10)                 1.4171         estimate D2E/DX2                !
 ! R18   R(9,22)                 1.3755         estimate D2E/DX2                !
 ! R19   R(10,11)                1.0877         estimate D2E/DX2                !
 ! R20   R(10,12)                1.3789         estimate D2E/DX2                !
 ! R21   R(12,13)                1.4172         estimate D2E/DX2                !
 ! R22   R(12,19)                1.0922         estimate D2E/DX2                !
 ! R23   R(13,14)                1.3734         estimate D2E/DX2                !
 ! R24   R(13,20)                1.0912         estimate D2E/DX2                !
 ! R25   R(14,21)                1.0888         estimate D2E/DX2                !
 ! R26   R(22,33)                1.449          estimate D2E/DX2                !
 ! R27   R(23,24)                1.406          estimate D2E/DX2                !
 ! R28   R(23,25)                1.4049         estimate D2E/DX2                !
 ! R29   R(24,26)                1.3933         estimate D2E/DX2                !
 ! R30   R(24,31)                1.0924         estimate D2E/DX2                !
 ! R31   R(25,27)                1.3946         estimate D2E/DX2                !
 ! R32   R(25,32)                1.0922         estimate D2E/DX2                !
 ! R33   R(26,28)                1.4072         estimate D2E/DX2                !
 ! R34   R(26,29)                1.0918         estimate D2E/DX2                !
 ! R35   R(27,28)                1.4051         estimate D2E/DX2                !
 ! R36   R(27,30)                1.0942         estimate D2E/DX2                !
 ! R37   R(28,48)                1.5822         estimate D2E/DX2                !
 ! R38   R(33,34)                1.3928         estimate D2E/DX2                !
 ! R39   R(33,35)                1.4002         estimate D2E/DX2                !
 ! R40   R(34,36)                1.3964         estimate D2E/DX2                !
 ! R41   R(34,37)                1.0919         estimate D2E/DX2                !
 ! R42   R(35,38)                1.3874         estimate D2E/DX2                !
 ! R43   R(35,39)                1.0918         estimate D2E/DX2                !
 ! R44   R(36,40)                1.4073         estimate D2E/DX2                !
 ! R45   R(36,41)                1.0889         estimate D2E/DX2                !
 ! R46   R(38,40)                1.4107         estimate D2E/DX2                !
 ! R47   R(38,42)                1.0909         estimate D2E/DX2                !
 ! R48   R(40,43)                1.3397         estimate D2E/DX2                !
 ! R49   R(43,44)                1.418          estimate D2E/DX2                !
 ! R50   R(44,45)                1.0965         estimate D2E/DX2                !
 ! R51   R(44,46)                1.1032         estimate D2E/DX2                !
 ! R52   R(44,47)                1.1033         estimate D2E/DX2                !
 ! R53   R(48,49)                1.3615         estimate D2E/DX2                !
 ! R54   R(48,51)                1.3567         estimate D2E/DX2                !
 ! R55   R(49,50)                0.9632         estimate D2E/DX2                !
 ! R56   R(51,52)                0.9671         estimate D2E/DX2                !
 ! A1    A(2,1,6)              121.2582         estimate D2E/DX2                !
 ! A2    A(2,1,15)             119.1608         estimate D2E/DX2                !
 ! A3    A(6,1,15)             119.5773         estimate D2E/DX2                !
 ! A4    A(1,2,3)              119.8559         estimate D2E/DX2                !
 ! A5    A(1,2,16)             120.4485         estimate D2E/DX2                !
 ! A6    A(3,2,16)             119.695          estimate D2E/DX2                !
 ! A7    A(2,3,4)              119.6956         estimate D2E/DX2                !
 ! A8    A(2,3,22)             120.6421         estimate D2E/DX2                !
 ! A9    A(4,3,22)             119.6597         estimate D2E/DX2                !
 ! A10   A(3,4,5)              118.2775         estimate D2E/DX2                !
 ! A11   A(3,4,7)              119.593          estimate D2E/DX2                !
 ! A12   A(5,4,7)              122.115          estimate D2E/DX2                !
 ! A13   A(4,5,6)              121.0408         estimate D2E/DX2                !
 ! A14   A(4,5,17)             118.5085         estimate D2E/DX2                !
 ! A15   A(6,5,17)             120.4489         estimate D2E/DX2                !
 ! A16   A(1,6,5)              119.8379         estimate D2E/DX2                !
 ! A17   A(1,6,18)             119.8843         estimate D2E/DX2                !
 ! A18   A(5,6,18)             120.2762         estimate D2E/DX2                !
 ! A19   A(4,7,8)              119.3005         estimate D2E/DX2                !
 ! A20   A(4,7,23)             120.3345         estimate D2E/DX2                !
 ! A21   A(8,7,23)             120.365          estimate D2E/DX2                !
 ! A22   A(7,8,9)              119.596          estimate D2E/DX2                !
 ! A23   A(7,8,14)             122.115          estimate D2E/DX2                !
 ! A24   A(9,8,14)             118.2738         estimate D2E/DX2                !
 ! A25   A(8,9,10)             119.6923         estimate D2E/DX2                !
 ! A26   A(8,9,22)             119.657          estimate D2E/DX2                !
 ! A27   A(10,9,22)            120.6483         estimate D2E/DX2                !
 ! A28   A(9,10,11)            119.6925         estimate D2E/DX2                !
 ! A29   A(9,10,12)            119.8563         estimate D2E/DX2                !
 ! A30   A(11,10,12)           120.4507         estimate D2E/DX2                !
 ! A31   A(10,12,13)           121.2569         estimate D2E/DX2                !
 ! A32   A(10,12,19)           119.1608         estimate D2E/DX2                !
 ! A33   A(13,12,19)           119.5783         estimate D2E/DX2                !
 ! A34   A(12,13,14)           119.8359         estimate D2E/DX2                !
 ! A35   A(12,13,20)           119.881          estimate D2E/DX2                !
 ! A36   A(14,13,20)           120.2815         estimate D2E/DX2                !
 ! A37   A(8,14,13)            121.0422         estimate D2E/DX2                !
 ! A38   A(8,14,21)            118.495          estimate D2E/DX2                !
 ! A39   A(13,14,21)           120.4604         estimate D2E/DX2                !
 ! A40   A(3,22,9)             122.1718         estimate D2E/DX2                !
 ! A41   A(3,22,33)            118.9135         estimate D2E/DX2                !
 ! A42   A(9,22,33)            118.9143         estimate D2E/DX2                !
 ! A43   A(7,23,24)            120.361          estimate D2E/DX2                !
 ! A44   A(7,23,25)            120.4295         estimate D2E/DX2                !
 ! A45   A(24,23,25)           119.2095         estimate D2E/DX2                !
 ! A46   A(23,24,26)           120.1156         estimate D2E/DX2                !
 ! A47   A(23,24,31)           119.7234         estimate D2E/DX2                !
 ! A48   A(26,24,31)           120.1488         estimate D2E/DX2                !
 ! A49   A(23,25,27)           119.9138         estimate D2E/DX2                !
 ! A50   A(23,25,32)           119.864          estimate D2E/DX2                !
 ! A51   A(27,25,32)           120.2141         estimate D2E/DX2                !
 ! A52   A(24,26,28)           121.4353         estimate D2E/DX2                !
 ! A53   A(24,26,29)           119.7161         estimate D2E/DX2                !
 ! A54   A(28,26,29)           118.8486         estimate D2E/DX2                !
 ! A55   A(25,27,28)           121.6577         estimate D2E/DX2                !
 ! A56   A(25,27,30)           117.9837         estimate D2E/DX2                !
 ! A57   A(28,27,30)           120.3556         estimate D2E/DX2                !
 ! A58   A(26,28,27)           117.652          estimate D2E/DX2                !
 ! A59   A(26,28,48)           119.4537         estimate D2E/DX2                !
 ! A60   A(27,28,48)           122.8935         estimate D2E/DX2                !
 ! A61   A(22,33,34)           119.7653         estimate D2E/DX2                !
 ! A62   A(22,33,35)           119.5863         estimate D2E/DX2                !
 ! A63   A(34,33,35)           120.6484         estimate D2E/DX2                !
 ! A64   A(33,34,36)           120.0421         estimate D2E/DX2                !
 ! A65   A(33,34,37)           119.9333         estimate D2E/DX2                !
 ! A66   A(36,34,37)           120.0246         estimate D2E/DX2                !
 ! A67   A(33,35,38)           119.5932         estimate D2E/DX2                !
 ! A68   A(33,35,39)           119.9945         estimate D2E/DX2                !
 ! A69   A(38,35,39)           120.4122         estimate D2E/DX2                !
 ! A70   A(34,36,40)           119.8269         estimate D2E/DX2                !
 ! A71   A(34,36,41)           119.1563         estimate D2E/DX2                !
 ! A72   A(40,36,41)           121.0169         estimate D2E/DX2                !
 ! A73   A(35,38,40)           120.4411         estimate D2E/DX2                !
 ! A74   A(35,38,42)           121.2836         estimate D2E/DX2                !
 ! A75   A(40,38,42)           118.2753         estimate D2E/DX2                !
 ! A76   A(36,40,38)           119.4483         estimate D2E/DX2                !
 ! A77   A(36,40,43)           124.5234         estimate D2E/DX2                !
 ! A78   A(38,40,43)           116.0282         estimate D2E/DX2                !
 ! A79   A(40,43,44)           119.8451         estimate D2E/DX2                !
 ! A80   A(43,44,45)           106.2971         estimate D2E/DX2                !
 ! A81   A(43,44,46)           111.346          estimate D2E/DX2                !
 ! A82   A(43,44,47)           111.3447         estimate D2E/DX2                !
 ! A83   A(45,44,46)           109.1964         estimate D2E/DX2                !
 ! A84   A(45,44,47)           109.1954         estimate D2E/DX2                !
 ! A85   A(46,44,47)           109.3815         estimate D2E/DX2                !
 ! A86   A(28,48,49)           124.0021         estimate D2E/DX2                !
 ! A87   A(28,48,51)           116.8259         estimate D2E/DX2                !
 ! A88   A(49,48,51)           119.1716         estimate D2E/DX2                !
 ! A89   A(48,49,50)           116.0243         estimate D2E/DX2                !
 ! A90   A(48,51,52)           112.8824         estimate D2E/DX2                !
 ! D1    D(6,1,2,3)              0.6014         estimate D2E/DX2                !
 ! D2    D(6,1,2,16)          -179.1077         estimate D2E/DX2                !
 ! D3    D(15,1,2,3)           179.9027         estimate D2E/DX2                !
 ! D4    D(15,1,2,16)            0.1936         estimate D2E/DX2                !
 ! D5    D(2,1,6,5)             -0.9047         estimate D2E/DX2                !
 ! D6    D(2,1,6,18)           178.6372         estimate D2E/DX2                !
 ! D7    D(15,1,6,5)           179.7968         estimate D2E/DX2                !
 ! D8    D(15,1,6,18)           -0.6612         estimate D2E/DX2                !
 ! D9    D(1,2,3,4)              0.909          estimate D2E/DX2                !
 ! D10   D(1,2,3,22)          -178.5021         estimate D2E/DX2                !
 ! D11   D(16,2,3,4)          -179.3797         estimate D2E/DX2                !
 ! D12   D(16,2,3,22)            1.2092         estimate D2E/DX2                !
 ! D13   D(2,3,4,5)             -2.0731         estimate D2E/DX2                !
 ! D14   D(2,3,4,7)            179.289          estimate D2E/DX2                !
 ! D15   D(22,3,4,5)           177.3438         estimate D2E/DX2                !
 ! D16   D(22,3,4,7)            -1.2941         estimate D2E/DX2                !
 ! D17   D(2,3,22,9)           179.9861         estimate D2E/DX2                !
 ! D18   D(2,3,22,33)            0.1976         estimate D2E/DX2                !
 ! D19   D(4,3,22,9)             0.5748         estimate D2E/DX2                !
 ! D20   D(4,3,22,33)         -179.2136         estimate D2E/DX2                !
 ! D21   D(3,4,5,6)              1.7977         estimate D2E/DX2                !
 ! D22   D(3,4,5,17)          -177.7241         estimate D2E/DX2                !
 ! D23   D(7,4,5,6)           -179.6007         estimate D2E/DX2                !
 ! D24   D(7,4,5,17)             0.8775         estimate D2E/DX2                !
 ! D25   D(3,4,7,8)              0.61           estimate D2E/DX2                !
 ! D26   D(3,4,7,23)          -179.3098         estimate D2E/DX2                !
 ! D27   D(5,4,7,8)           -177.9737         estimate D2E/DX2                !
 ! D28   D(5,4,7,23)             2.1064         estimate D2E/DX2                !
 ! D29   D(4,5,6,1)             -0.3349         estimate D2E/DX2                !
 ! D30   D(4,5,6,18)          -179.875          estimate D2E/DX2                !
 ! D31   D(17,5,6,1)           179.1778         estimate D2E/DX2                !
 ! D32   D(17,5,6,18)           -0.3624         estimate D2E/DX2                !
 ! D33   D(4,7,8,9)              0.7549         estimate D2E/DX2                !
 ! D34   D(4,7,8,14)          -177.8039         estimate D2E/DX2                !
 ! D35   D(23,7,8,9)          -179.3253         estimate D2E/DX2                !
 ! D36   D(23,7,8,14)            2.116          estimate D2E/DX2                !
 ! D37   D(4,7,23,24)           65.157          estimate D2E/DX2                !
 ! D38   D(4,7,23,25)         -114.939          estimate D2E/DX2                !
 ! D39   D(8,7,23,24)         -114.762          estimate D2E/DX2                !
 ! D40   D(8,7,23,25)           65.142          estimate D2E/DX2                !
 ! D41   D(7,8,9,10)           179.0692         estimate D2E/DX2                !
 ! D42   D(7,8,9,22)            -1.4821         estimate D2E/DX2                !
 ! D43   D(14,8,9,10)           -2.3169         estimate D2E/DX2                !
 ! D44   D(14,8,9,22)          177.1318         estimate D2E/DX2                !
 ! D45   D(7,8,14,13)         -179.4574         estimate D2E/DX2                !
 ! D46   D(7,8,14,21)            1.1162         estimate D2E/DX2                !
 ! D47   D(9,8,14,13)            1.9656         estimate D2E/DX2                !
 ! D48   D(9,8,14,21)         -177.4608         estimate D2E/DX2                !
 ! D49   D(8,9,10,11)         -179.1948         estimate D2E/DX2                !
 ! D50   D(8,9,10,12)            1.0377         estimate D2E/DX2                !
 ! D51   D(22,9,10,11)           1.3622         estimate D2E/DX2                !
 ! D52   D(22,9,10,12)        -178.4053         estimate D2E/DX2                !
 ! D53   D(8,9,22,3)             0.8123         estimate D2E/DX2                !
 ! D54   D(8,9,22,33)         -179.3993         estimate D2E/DX2                !
 ! D55   D(10,9,22,3)         -179.7445         estimate D2E/DX2                !
 ! D56   D(10,9,22,33)           0.044          estimate D2E/DX2                !
 ! D57   D(9,10,12,13)           0.6703         estimate D2E/DX2                !
 ! D58   D(9,10,12,19)         179.9444         estimate D2E/DX2                !
 ! D59   D(11,10,12,13)       -179.0954         estimate D2E/DX2                !
 ! D60   D(11,10,12,19)          0.1787         estimate D2E/DX2                !
 ! D61   D(10,12,13,14)         -1.0528         estimate D2E/DX2                !
 ! D62   D(10,12,13,20)        178.4715         estimate D2E/DX2                !
 ! D63   D(19,12,13,14)        179.6761         estimate D2E/DX2                !
 ! D64   D(19,12,13,20)         -0.7996         estimate D2E/DX2                !
 ! D65   D(12,13,14,8)          -0.31           estimate D2E/DX2                !
 ! D66   D(12,13,14,21)        179.1052         estimate D2E/DX2                !
 ! D67   D(20,13,14,8)        -179.8324         estimate D2E/DX2                !
 ! D68   D(20,13,14,21)         -0.4172         estimate D2E/DX2                !
 ! D69   D(3,22,33,34)         -90.8979         estimate D2E/DX2                !
 ! D70   D(3,22,33,35)          89.0969         estimate D2E/DX2                !
 ! D71   D(9,22,33,34)          89.3067         estimate D2E/DX2                !
 ! D72   D(9,22,33,35)         -90.6986         estimate D2E/DX2                !
 ! D73   D(7,23,24,26)         179.3991         estimate D2E/DX2                !
 ! D74   D(7,23,24,31)           0.6648         estimate D2E/DX2                !
 ! D75   D(25,23,24,26)         -0.5061         estimate D2E/DX2                !
 ! D76   D(25,23,24,31)       -179.2404         estimate D2E/DX2                !
 ! D77   D(7,23,25,27)         179.4412         estimate D2E/DX2                !
 ! D78   D(7,23,25,32)           0.4751         estimate D2E/DX2                !
 ! D79   D(24,23,25,27)         -0.6537         estimate D2E/DX2                !
 ! D80   D(24,23,25,32)       -179.6198         estimate D2E/DX2                !
 ! D81   D(23,24,26,28)          1.2846         estimate D2E/DX2                !
 ! D82   D(23,24,26,29)       -178.7001         estimate D2E/DX2                !
 ! D83   D(31,24,26,28)       -179.9865         estimate D2E/DX2                !
 ! D84   D(31,24,26,29)          0.0287         estimate D2E/DX2                !
 ! D85   D(23,25,27,28)          1.0801         estimate D2E/DX2                !
 ! D86   D(23,25,27,30)       -179.538          estimate D2E/DX2                !
 ! D87   D(32,25,27,28)       -179.9575         estimate D2E/DX2                !
 ! D88   D(32,25,27,30)         -0.5755         estimate D2E/DX2                !
 ! D89   D(24,26,28,27)         -0.8633         estimate D2E/DX2                !
 ! D90   D(24,26,28,48)        179.4535         estimate D2E/DX2                !
 ! D91   D(29,26,28,27)        179.1215         estimate D2E/DX2                !
 ! D92   D(29,26,28,48)         -0.5617         estimate D2E/DX2                !
 ! D93   D(25,27,28,26)         -0.3236         estimate D2E/DX2                !
 ! D94   D(25,27,28,48)        179.3479         estimate D2E/DX2                !
 ! D95   D(30,27,28,26)       -179.6911         estimate D2E/DX2                !
 ! D96   D(30,27,28,48)         -0.0196         estimate D2E/DX2                !
 ! D97   D(26,28,48,49)       -170.5528         estimate D2E/DX2                !
 ! D98   D(26,28,48,51)          9.2385         estimate D2E/DX2                !
 ! D99   D(27,28,48,49)          9.7814         estimate D2E/DX2                !
 ! D100  D(27,28,48,51)       -170.4273         estimate D2E/DX2                !
 ! D101  D(22,33,34,36)        179.9844         estimate D2E/DX2                !
 ! D102  D(22,33,34,37)         -0.0042         estimate D2E/DX2                !
 ! D103  D(35,33,34,36)         -0.0103         estimate D2E/DX2                !
 ! D104  D(35,33,34,37)       -179.9989         estimate D2E/DX2                !
 ! D105  D(22,33,35,38)        179.9953         estimate D2E/DX2                !
 ! D106  D(22,33,35,39)          0.0014         estimate D2E/DX2                !
 ! D107  D(34,33,35,38)         -0.01           estimate D2E/DX2                !
 ! D108  D(34,33,35,39)        179.9961         estimate D2E/DX2                !
 ! D109  D(33,34,36,40)          0.019          estimate D2E/DX2                !
 ! D110  D(33,34,36,41)       -179.9852         estimate D2E/DX2                !
 ! D111  D(37,34,36,40)       -179.9925         estimate D2E/DX2                !
 ! D112  D(37,34,36,41)          0.0034         estimate D2E/DX2                !
 ! D113  D(33,35,38,40)          0.0216         estimate D2E/DX2                !
 ! D114  D(33,35,38,42)       -179.9807         estimate D2E/DX2                !
 ! D115  D(39,35,38,40)       -179.9846         estimate D2E/DX2                !
 ! D116  D(39,35,38,42)          0.0131         estimate D2E/DX2                !
 ! D117  D(34,36,40,38)         -0.0075         estimate D2E/DX2                !
 ! D118  D(34,36,40,43)        179.9929         estimate D2E/DX2                !
 ! D119  D(41,36,40,38)        179.9967         estimate D2E/DX2                !
 ! D120  D(41,36,40,43)         -0.0028         estimate D2E/DX2                !
 ! D121  D(35,38,40,36)         -0.0129         estimate D2E/DX2                !
 ! D122  D(35,38,40,43)        179.9867         estimate D2E/DX2                !
 ! D123  D(42,38,40,36)        179.9893         estimate D2E/DX2                !
 ! D124  D(42,38,40,43)         -0.0111         estimate D2E/DX2                !
 ! D125  D(36,40,43,44)         -0.014          estimate D2E/DX2                !
 ! D126  D(38,40,43,44)        179.9865         estimate D2E/DX2                !
 ! D127  D(40,43,44,45)       -179.974          estimate D2E/DX2                !
 ! D128  D(40,43,44,46)        -61.1537         estimate D2E/DX2                !
 ! D129  D(40,43,44,47)         61.2078         estimate D2E/DX2                !
 ! D130  D(28,48,49,50)          3.1375         estimate D2E/DX2                !
 ! D131  D(51,48,49,50)       -176.6492         estimate D2E/DX2                !
 ! D132  D(28,48,51,52)       -179.2829         estimate D2E/DX2                !
 ! D133  D(49,48,51,52)          0.519          estimate D2E/DX2                !
 --------------------------------------------------------------------------------
 Trust Radius=3.00D-01 FncErr=1.00D-07 GrdErr=1.00D-06
 Number of steps in this run=    289 maximum allowed number of steps=    312.
 GradGradGradGradGradGradGradGradGradGradGradGradGradGradGradGradGradGrad

 Leave Link  103 at Sat Feb 13 19:12:17 2021, MaxMem=  5242880000 cpu:         0.2
 (Enter /opt/nce/packages/global/g09/l202.exe)
 Symmetry turned off by external request.
 Stoichiometry    C26H21BNO3(1+)
 Framework group  C1[X(C26H21BNO3)]
 Deg. of freedom   150
 Full point group                 C1      NOp   1
                          Input orientation:                          
 ---------------------------------------------------------------------
 Center     Atomic      Atomic             Coordinates (Angstroms)
 Number     Number       Type             X           Y           Z
 ---------------------------------------------------------------------
      1          6           0        1.008417    3.616309    0.230145
      2          6           0        1.693915    2.421541    0.165999
      3          6           0        0.978257    1.199724    0.110369
      4          6           0       -0.457982    1.216106    0.101470
      5          6           0       -1.121459    2.478905    0.195189
      6          6           0       -0.408122    3.650983    0.254565
      7          6           0       -1.171353   -0.006275    0.030527
      8          6           0       -0.452876   -1.226755   -0.017382
      9          6           0        0.982776   -1.206851    0.023066
     10          6           0        1.702782   -2.427113   -0.004753
     11          1           0        2.789488   -2.412610    0.039136
     12          6           0        1.022802   -3.623554   -0.092009
     13          6           0       -0.391773   -3.661476   -0.169265
     14          6           0       -1.109509   -2.491054   -0.135917
     15          1           0        1.571388    4.551151    0.274222
     16          1           0        2.781525    2.409578    0.162519
     17          1           0       -2.209729    2.493097    0.226696
     18          1           0       -0.927373    4.607923    0.327987
     19          1           0        1.589107   -4.557172   -0.113553
     20          1           0       -0.905629   -4.619577   -0.262796
     21          1           0       -2.195749   -2.507396   -0.209167
     22          7           0        1.645512   -0.002730    0.076946
     23          6           0       -2.652764   -0.007739    0.004929
     24          6           0       -3.345304    0.553433   -1.082441
     25          6           0       -3.382170   -0.571260    1.065152
     26          6           0       -4.738252    0.538107   -1.107107
     27          6           0       -4.776351   -0.556380    1.035448
     28          6           0       -5.485104   -0.007699   -0.046635
     29          1           0       -5.268996    0.956588   -1.964543
     30          1           0       -5.312659   -0.997111    1.881305
     31          1           0       -2.786491    0.982705   -1.917132
     32          1           0       -2.855189   -1.004520    1.918049
     33          6           0        3.094272   -0.001001    0.103913
     34          6           0        3.808090    0.026910   -1.091785
     35          6           0        3.762858   -0.027342    1.333904
     36          6           0        5.204306    0.029057   -1.072533
     37          1           0        3.274781    0.047303   -2.044376
     38          6           0        5.150035   -0.025790    1.359891
     39          1           0        3.192655   -0.049031    2.264732
     40          6           0        5.887402    0.002553    0.157543
     41          1           0        5.747859    0.051287   -2.015860
     42          1           0        5.698971   -0.046232    2.302379
     43          8           0        7.221008    0.001992    0.285608
     44          6           0        8.041008    0.029158   -0.870938
     45          1           0        9.077596    0.022498   -0.513414
     46          1           0        7.870320   -0.857297   -1.505146
     47          1           0        7.867901    0.942852   -1.464553
     48          5           0       -7.065593    0.011143   -0.117629
     49          8           0       -7.878494   -0.317985    0.923774
     50          1           0       -7.437626   -0.528303    1.753947
     51          8           0       -7.621056    0.385407   -1.297490
     52          1           0       -8.587848    0.387372   -1.274120
 ---------------------------------------------------------------------
 Rotational constants (GHZ):      0.3732122      0.0645964      0.0579064
 Leave Link  202 at Sat Feb 13 19:12:17 2021, MaxMem=  5242880000 cpu:         0.1
 (Enter /opt/nce/packages/global/g09/l301.exe)
 Standard basis: def2TZVP (5D, 7F)
 Ernie: Thresh=  0.10000D-02 Tol=  0.10000D-05 Strict=F.
  1087 basis functions,  1749 primitive gaussians,  1242 cartesian basis functions
   106 alpha electrons      106 beta electrons
       nuclear repulsion energy      2746.3167137600 Hartrees.
 IExCor=  402 DFT=T Ex+Corr=B3LYP ExCW=0 ScaHFX=  0.200000
 ScaDFX=  0.800000  0.720000  1.000000  0.810000 ScalE2=  1.000000  1.000000
 IRadAn=      5 IRanWt=     -1 IRanGd=            0 ICorTp=0 IEmpDi=141
 NAtoms=   52 NActive=   52 NUniq=   52 SFac= 1.00D+00 NAtFMM=   60 NAOKFM=F Big=F
 Integral buffers will be    131072 words long.
 Raffenetti 2 integral format.
 Two-electron integral symmetry is turned off.
 R6Disp:  Grimme-D3(BJ) Dispersion energy=       -0.1301035556 Hartrees.
 Nuclear repulsion after empirical dispersion term =     2746.1866102044 Hartrees.
 ------------------------------------------------------------------------------
 Polarizable Continuum Model (PCM)
 =================================
 Model                : PCM (using non-symmetric T matrix).
 Atomic radii         : SMD-Coulomb.
 Polarization charges : Total charges.
 Charge compensation  : None.
 Solution method      : On-the-fly selection.
 Cavity type          : VdW (van der Waals Surface) (Alpha=1.000).
 Cavity algorithm     : GePol (No added spheres)
                        Default sphere list used, NSphG=   52.
                        Lebedev-Laikov grids with approx.  5.0 points / Ang**2.
                        Smoothing algorithm: York/Karplus (Gamma=1.0000).
                        Polarization charges: spherical gaussians, with
                                              point-specific exponents (IZeta= 3).
                        Self-potential: point-specific (ISelfS= 7).
                        Self-field    : sphere-specific E.n sum rule (ISelfD= 2).
 1st derivatives      : Analytical E(r).r(x)/FMM algorithm (CHGder, D1EAlg=3).
                        Cavity 1st derivative terms included.
 Solvent              : Acetonitrile, Eps=  35.688000 Eps(inf)=   1.806874
 ------------------------------------------------------------------------------
 GePol: Number of generator spheres                  =      52
 GePol: Total number of spheres                      =      52
 GePol: Number of exposed spheres                    =      50 ( 96.15%)
 GePol: Number of points                             =    3872
 GePol: Average weight of points                     =       0.12
 GePol: Minimum weight of points                     =   0.75D-10
 GePol: Maximum weight of points                     =    0.21559
 GePol: Number of points with low weight             =     226
 GePol: Fraction of low-weight points (<1% of avg)   =       5.84%
 GePol: Cavity surface area                          =    447.070 Ang**2
 GePol: Cavity volume                                =    444.260 Ang**3
 ------------------------------------------------------------------------------
 Atomic radii for non-electrostatic terms: SMD-CDS.
 ------------------------------------------------------------------------------
 PCM non-electrostatic energy =        -0.0087421316 Hartrees.
 Nuclear repulsion after PCM non-electrostatic terms =     2746.1778680728 Hartrees.
 Leave Link  301 at Sat Feb 13 19:12:18 2021, MaxMem=  5242880000 cpu:         1.7
 (Enter /opt/nce/packages/global/g09/l302.exe)
 NPDir=0 NMtPBC=     1 NCelOv=     1 NCel=       1 NClECP=     1 NCelD=      1
         NCelK=      1 NCelE2=     1 NClLst=     1 CellRange=     0.0.
 One-electron integrals computed using PRISM.
   1 Symmetry operations used in ECPInt.
 ECPInt:  NShTT=   90525 NPrTT=  279376 LenC2=   69916 LenP2D=  147791.
 LDataN:  DoStor=T MaxTD1= 6 Len=  172
 NBasis=  1087 RedAO= T EigKep=  5.22D-06  NBF=  1087
 NBsUse=  1087 1.00D-06 EigRej= -1.00D+00 NBFU=  1087
 Precomputing XC quadrature grid using
 IXCGrd= 4 IRadAn=           5 IRanWt=          -1 IRanGd=           0 AccXCQ= 0.00D+00.
 Generated NRdTot=       0 NPtTot=           0 NUsed=           0 NTot=          32
 NSgBfM=  1132  1132  1132  1132  1132 MxSgAt=    52 MxSgA2=    52.
 Leave Link  302 at Sat Feb 13 19:12:20 2021, MaxMem=  5242880000 cpu:        31.2
 (Enter /opt/nce/packages/global/g09/l303.exe)
 DipDrv:  MaxL=1.
 Leave Link  303 at Sat Feb 13 19:12:21 2021, MaxMem=  5242880000 cpu:         2.9
 (Enter /opt/nce/packages/global/g09/l401.exe)
 ExpMin= 6.06D-02 ExpMax= 2.70D+04 ExpMxC= 9.22D+02 IAcc=3 IRadAn=         5 AccDes= 0.00D+00
 Harris functional with IExCor=  402 and IRadAn=       5 diagonalized for initial guess.
 HarFok:  IExCor=  402 AccDes= 0.00D+00 IRadAn=         5 IDoV= 1 UseB2=F ITyADJ=14
 ICtDFT=  3500011 ScaDFX=  1.000000  1.000000  1.000000  1.000000
 FoFCou: FMM=F IPFlag=           0 FMFlag=      100000 FMFlg1=           0
         NFxFlg=           0 DoJE=T BraDBF=F KetDBF=T FulRan=T
         wScrn=  0.000000 ICntrl=     500 IOpCl=  0 I1Cent=   200000004 NGrid=           0
         NMat0=    1 NMatS0=      1 NMatT0=    0 NMatD0=    1 NMtDS0=    0 NMtDT0=    0
 Symmetry not used in FoFCou.
 Harris En= -1309.29482907703    
 JPrj=0 DoOrth=F DoCkMO=F.
 Leave Link  401 at Sat Feb 13 19:12:31 2021, MaxMem=  5242880000 cpu:       128.4
 (Enter /opt/nce/packages/global/g09/l502.exe)
 Closed shell SCF:
 Using DIIS extrapolation, IDIIS=  1040.
 Two-electron integral symmetry not used.
 IVT=     4668702 IEndB=     4668702 NGot=  5242880000 MDV=  5239771745
 LenX=  5239771745 LenY=  5238227939
 Requested convergence on RMS density matrix=1.00D-08 within 128 cycles.
 Requested convergence on MAX density matrix=1.00D-06.
 Requested convergence on             energy=1.00D-06.
 No special actions if energy rises.
 Fock matrices will be formed incrementally for  20 cycles.

 Cycle   1  Pass 1  IDiag  1:
 FoFJK:  IHMeth= 1 ICntrl=       0 DoSepK=F KAlg= 0 I1Cent=   0 FoldK=F
 IRaf= 660000000 NMat=   1 IRICut=       1 DoRegI=T DoRafI=F ISym2E= 0.
 FoFCou: FMM=F IPFlag=           0 FMFlag=      100000 FMFlg1=           0
         NFxFlg=           0 DoJE=F BraDBF=F KetDBF=F FulRan=T
         wScrn=  0.000000 ICntrl=       0 IOpCl=  0 I1Cent=           0 NGrid=           0
         NMat0=    1 NMatS0=      1 NMatT0=    0 NMatD0=    1 NMtDS0=    0 NMtDT0=    0
 Symmetry not used in FoFCou.
 Inv3:  Mode=1 IEnd=    44977152.
 Iteration    1 A*A^-1 deviation from unit magnitude is 6.22D-15 for   3854.
 Iteration    1 A*A^-1 deviation from orthogonality  is 2.44D-15 for   2513   2175.
 Iteration    1 A^-1*A deviation from unit magnitude is 6.44D-15 for   3865.
 Iteration    1 A^-1*A deviation from orthogonality  is 6.60D-10 for   3080   3021.
 Iteration    2 A*A^-1 deviation from unit magnitude is 2.44D-15 for      5.
 Iteration    2 A*A^-1 deviation from orthogonality  is 2.74D-15 for   2302    298.
 Iteration    2 A^-1*A deviation from unit magnitude is 9.99D-16 for    376.
 Iteration    2 A^-1*A deviation from orthogonality  is 3.30D-16 for   1409    305.
 E= -1308.61960717213    
 DIIS: error= 1.83D-02 at cycle   1 NSaved=   1.
 NSaved= 1 IEnMin= 1 EnMin= -1308.61960717213     IErMin= 1 ErrMin= 1.83D-02
 ErrMax= 1.83D-02  0.00D+00 EMaxC= 1.00D-01 BMatC= 7.96D-01 BMatP= 7.96D-01
 IDIUse=3 WtCom= 8.17D-01 WtEn= 1.83D-01
 Coeff-Com:  0.100D+01
 Coeff-En:   0.100D+01
 Coeff:      0.100D+01
 Gap=     0.105 Goal=   None    Shift=    0.000
 GapD=    0.105 DampG=1.000 DampE=0.500 DampFc=0.5000 IDamp=-1.
 Damping current iteration by 5.00D-01
 RMSDP=2.69D-03 MaxDP=4.42D-01              OVMax= 3.15D-01

 Cycle   2  Pass 1  IDiag  1:
 RMSU=  1.34D-03    CP:  9.95D-01
 E= -1308.88148214234     Delta-E=       -0.261874970206 Rises=F Damp=T
 DIIS: error= 5.82D-03 at cycle   2 NSaved=   2.
 NSaved= 2 IEnMin= 2 EnMin= -1308.88148214234     IErMin= 2 ErrMin= 5.82D-03
 ErrMax= 5.82D-03  0.00D+00 EMaxC= 1.00D-01 BMatC= 8.15D-02 BMatP= 7.96D-01
 IDIUse=3 WtCom= 9.42D-01 WtEn= 5.82D-02
 Coeff-Com:  0.111D+00 0.889D+00
 Coeff-En:   0.212D+00 0.788D+00
 Coeff:      0.117D+00 0.883D+00
 Gap=     0.183 Goal=   None    Shift=    0.000
 RMSDP=7.84D-04 MaxDP=1.96D-01 DE=-2.62D-01 OVMax= 3.57D-01

 Cycle   3  Pass 1  IDiag  1:
 RMSU=  6.50D-04    CP:  9.68D-01  6.91D-01
 E= -1309.23569361976     Delta-E=       -0.354211477420 Rises=F Damp=F
 DIIS: error= 1.15D-02 at cycle   3 NSaved=   3.
 NSaved= 3 IEnMin= 3 EnMin= -1309.23569361976     IErMin= 2 ErrMin= 5.82D-03
 ErrMax= 1.15D-02  0.00D+00 EMaxC= 1.00D-01 BMatC= 7.76D-02 BMatP= 8.15D-02
 IDIUse=3 WtCom= 8.85D-01 WtEn= 1.15D-01
 Coeff-Com: -0.186D-01 0.496D+00 0.522D+00
 Coeff-En:   0.000D+00 0.000D+00 0.100D+01
 Coeff:     -0.164D-01 0.439D+00 0.577D+00
 Gap=     0.130 Goal=   None    Shift=    0.000
 RMSDP=3.32D-04 MaxDP=5.06D-02 DE=-3.54D-01 OVMax= 1.53D-01

 Cycle   4  Pass 1  IDiag  1:
 RMSU=  2.88D-04    CP:  9.72D-01  7.16D-01  7.56D-01
 E= -1309.28921725064     Delta-E=       -0.053523630887 Rises=F Damp=F
 DIIS: error= 4.41D-03 at cycle   4 NSaved=   4.
 NSaved= 4 IEnMin= 4 EnMin= -1309.28921725064     IErMin= 4 ErrMin= 4.41D-03
 ErrMax= 4.41D-03  0.00D+00 EMaxC= 1.00D-01 BMatC= 2.32D-02 BMatP= 7.76D-02
 IDIUse=3 WtCom= 9.56D-01 WtEn= 4.41D-02
 Coeff-Com: -0.203D-01 0.167D+00 0.381D+00 0.472D+00
 Coeff-En:   0.000D+00 0.000D+00 0.267D+00 0.733D+00
 Coeff:     -0.194D-01 0.160D+00 0.376D+00 0.483D+00
 Gap=     0.116 Goal=   None    Shift=    0.000
 RMSDP=1.35D-04 MaxDP=2.25D-02 DE=-5.35D-02 OVMax= 7.90D-02

 Cycle   5  Pass 1  IDiag  1:
 RMSU=  8.51D-05    CP:  9.72D-01  6.99D-01  7.84D-01  6.49D-01
 E= -1309.31078479492     Delta-E=       -0.021567544272 Rises=F Damp=F
 DIIS: error= 8.71D-04 at cycle   5 NSaved=   5.
 NSaved= 5 IEnMin= 5 EnMin= -1309.31078479492     IErMin= 5 ErrMin= 8.71D-04
 ErrMax= 8.71D-04  0.00D+00 EMaxC= 1.00D-01 BMatC= 1.75D-03 BMatP= 2.32D-02
 IDIUse=3 WtCom= 9.91D-01 WtEn= 8.71D-03
 Coeff-Com: -0.931D-02 0.291D-01 0.156D+00 0.292D+00 0.532D+00
 Coeff-En:   0.000D+00 0.000D+00 0.000D+00 0.383D-02 0.996D+00
 Coeff:     -0.923D-02 0.288D-01 0.155D+00 0.290D+00 0.536D+00
 Gap=     0.118 Goal=   None    Shift=    0.000
 RMSDP=6.41D-05 MaxDP=1.02D-02 DE=-2.16D-02 OVMax= 1.78D-02

 Cycle   6  Pass 1  IDiag  1:
 RMSU=  3.13D-05    CP:  9.71D-01  7.18D-01  8.06D-01  6.44D-01  4.40D-01
 E= -1309.31232623628     Delta-E=       -0.001541441365 Rises=F Damp=F
 DIIS: error= 4.91D-04 at cycle   6 NSaved=   6.
 NSaved= 6 IEnMin= 6 EnMin= -1309.31232623628     IErMin= 6 ErrMin= 4.91D-04
 ErrMax= 4.91D-04  0.00D+00 EMaxC= 1.00D-01 BMatC= 1.34D-04 BMatP= 1.75D-03
 IDIUse=3 WtCom= 9.95D-01 WtEn= 4.91D-03
 Coeff-Com: -0.301D-02 0.333D-02 0.487D-01 0.105D+00 0.289D+00 0.558D+00
 Coeff-En:   0.000D+00 0.000D+00 0.000D+00 0.000D+00 0.413D-01 0.959D+00
 Coeff:     -0.299D-02 0.331D-02 0.485D-01 0.104D+00 0.287D+00 0.560D+00
 Gap=     0.118 Goal=   None    Shift=    0.000
 RMSDP=1.65D-05 MaxDP=2.01D-03 DE=-1.54D-03 OVMax= 5.08D-03

 Cycle   7  Pass 1  IDiag  1:
 RMSU=  8.56D-06    CP:  9.71D-01  7.14D-01  8.06D-01  6.49D-01  5.48D-01
                    CP:  7.09D-01
 E= -1309.31245543666     Delta-E=       -0.000129200376 Rises=F Damp=F
 DIIS: error= 1.76D-04 at cycle   7 NSaved=   7.
 NSaved= 7 IEnMin= 7 EnMin= -1309.31245543666     IErMin= 7 ErrMin= 1.76D-04
 ErrMax= 1.76D-04  0.00D+00 EMaxC= 1.00D-01 BMatC= 1.95D-05 BMatP= 1.34D-04
 IDIUse=3 WtCom= 9.98D-01 WtEn= 1.76D-03
 Coeff-Com: -0.731D-03-0.959D-03 0.124D-01 0.309D-01 0.118D+00 0.337D+00
 Coeff-Com:  0.503D+00
 Coeff-En:   0.000D+00 0.000D+00 0.000D+00 0.000D+00 0.000D+00 0.833D-01
 Coeff-En:   0.917D+00
 Coeff:     -0.729D-03-0.958D-03 0.124D-01 0.308D-01 0.118D+00 0.337D+00
 Coeff:      0.503D+00
 Gap=     0.118 Goal=   None    Shift=    0.000
 RMSDP=4.32D-06 MaxDP=2.84D-04 DE=-1.29D-04 OVMax= 1.29D-03

 Cycle   8  Pass 1  IDiag  1:
 RMSU=  3.40D-06    CP:  9.71D-01  7.14D-01  8.07D-01  6.50D-01  5.40D-01
                    CP:  7.34D-01  7.27D-01
 E= -1309.31247440672     Delta-E=       -0.000018970068 Rises=F Damp=F
 DIIS: error= 3.04D-05 at cycle   8 NSaved=   8.
 NSaved= 8 IEnMin= 8 EnMin= -1309.31247440672     IErMin= 8 ErrMin= 3.04D-05
 ErrMax= 3.04D-05  0.00D+00 EMaxC= 1.00D-01 BMatC= 9.65D-07 BMatP= 1.95D-05
 IDIUse=1 WtCom= 1.00D+00 WtEn= 0.00D+00
 Coeff-Com:  0.626D-04-0.754D-03 0.873D-04 0.160D-02 0.214D-01 0.923D-01
 Coeff-Com:  0.230D+00 0.655D+00
 Coeff:      0.626D-04-0.754D-03 0.873D-04 0.160D-02 0.214D-01 0.923D-01
 Coeff:      0.230D+00 0.655D+00
 Gap=     0.118 Goal=   None    Shift=    0.000
 RMSDP=1.53D-06 MaxDP=1.78D-04 DE=-1.90D-05 OVMax= 3.65D-04

 Cycle   9  Pass 1  IDiag  1:
 RMSU=  1.20D-06    CP:  9.71D-01  7.14D-01  8.07D-01  6.51D-01  5.40D-01
                    CP:  7.45D-01  7.79D-01  8.26D-01
 E= -1309.31247519340     Delta-E=       -0.000000786673 Rises=F Damp=F
 DIIS: error= 8.41D-06 at cycle   9 NSaved=   9.
 NSaved= 9 IEnMin= 9 EnMin= -1309.31247519340     IErMin= 9 ErrMin= 8.41D-06
 ErrMax= 8.41D-06  0.00D+00 EMaxC= 1.00D-01 BMatC= 1.59D-07 BMatP= 9.65D-07
 IDIUse=1 WtCom= 1.00D+00 WtEn= 0.00D+00
 Coeff-Com:  0.859D-04-0.330D-03-0.810D-03-0.147D-02 0.301D-02 0.243D-01
 Coeff-Com:  0.818D-01 0.361D+00 0.533D+00
 Coeff:      0.859D-04-0.330D-03-0.810D-03-0.147D-02 0.301D-02 0.243D-01
 Coeff:      0.818D-01 0.361D+00 0.533D+00
 Gap=     0.118 Goal=   None    Shift=    0.000
 RMSDP=5.62D-07 MaxDP=8.98D-05 DE=-7.87D-07 OVMax= 1.20D-04

 Cycle  10  Pass 1  IDiag  1:
 RMSU=  3.26D-07    CP:  9.71D-01  7.14D-01  8.07D-01  6.50D-01  5.41D-01
                    CP:  7.45D-01  7.80D-01  8.65D-01  7.43D-01
 E= -1309.31247535451     Delta-E=       -0.000000161112 Rises=F Damp=F
 DIIS: error= 2.05D-06 at cycle  10 NSaved=  10.
 NSaved=10 IEnMin=10 EnMin= -1309.31247535451     IErMin=10 ErrMin= 2.05D-06
 ErrMax= 2.05D-06  0.00D+00 EMaxC= 1.00D-01 BMatC= 8.21D-09 BMatP= 1.59D-07
 IDIUse=1 WtCom= 1.00D+00 WtEn= 0.00D+00
 Coeff-Com:  0.312D-04-0.890D-04-0.383D-03-0.885D-03-0.206D-03 0.440D-02
 Coeff-Com:  0.190D-01 0.116D+00 0.247D+00 0.616D+00
 Coeff:      0.312D-04-0.890D-04-0.383D-03-0.885D-03-0.206D-03 0.440D-02
 Coeff:      0.190D-01 0.116D+00 0.247D+00 0.616D+00
 Gap=     0.118 Goal=   None    Shift=    0.000
 RMSDP=1.71D-07 MaxDP=3.06D-05 DE=-1.61D-07 OVMax= 2.88D-05

 Cycle  11  Pass 1  IDiag  1:
 RMSU=  9.99D-08    CP:  9.71D-01  7.14D-01  8.07D-01  6.50D-01  5.41D-01
                    CP:  7.46D-01  7.85D-01  8.72D-01  7.85D-01  8.59D-01
 E= -1309.31247536131     Delta-E=       -0.000000006803 Rises=F Damp=F
 DIIS: error= 1.02D-06 at cycle  11 NSaved=  11.
 NSaved=11 IEnMin=11 EnMin= -1309.31247536131     IErMin=11 ErrMin= 1.02D-06
 ErrMax= 1.02D-06  0.00D+00 EMaxC= 1.00D-01 BMatC= 1.72D-09 BMatP= 8.21D-09
 IDIUse=1 WtCom= 1.00D+00 WtEn= 0.00D+00
 Coeff-Com:  0.382D-05 0.674D-05-0.107D-03-0.331D-03-0.685D-03-0.159D-02
 Coeff-Com: -0.305D-02 0.764D-02 0.579D-01 0.353D+00 0.587D+00
 Coeff:      0.382D-05 0.674D-05-0.107D-03-0.331D-03-0.685D-03-0.159D-02
 Coeff:     -0.305D-02 0.764D-02 0.579D-01 0.353D+00 0.587D+00
 Gap=     0.118 Goal=   None    Shift=    0.000
 RMSDP=7.02D-08 MaxDP=1.16D-05 DE=-6.80D-09 OVMax= 1.23D-05

 Cycle  12  Pass 1  IDiag  1:
 RMSU=  3.77D-08    CP:  9.71D-01  7.14D-01  8.07D-01  6.50D-01  5.41D-01
                    CP:  7.46D-01  7.85D-01  8.78D-01  7.87D-01  9.45D-01
                    CP:  7.32D-01
 E= -1309.31247536300     Delta-E=       -0.000000001688 Rises=F Damp=F
 DIIS: error= 2.57D-07 at cycle  12 NSaved=  12.
 NSaved=12 IEnMin=12 EnMin= -1309.31247536300     IErMin=12 ErrMin= 2.57D-07
 ErrMax= 2.57D-07  0.00D+00 EMaxC= 1.00D-01 BMatC= 8.78D-11 BMatP= 1.72D-09
 IDIUse=1 WtCom= 1.00D+00 WtEn= 0.00D+00
 Coeff-Com: -0.226D-05 0.113D-04-0.934D-05-0.567D-04-0.233D-03-0.102D-02
 Coeff-Com: -0.297D-02-0.671D-02 0.459D-02 0.956D-01 0.244D+00 0.667D+00
 Coeff:     -0.226D-05 0.113D-04-0.934D-05-0.567D-04-0.233D-03-0.102D-02
 Coeff:     -0.297D-02-0.671D-02 0.459D-02 0.956D-01 0.244D+00 0.667D+00
 Gap=     0.118 Goal=   None    Shift=    0.000
 RMSDP=2.86D-08 MaxDP=6.17D-06 DE=-1.69D-09 OVMax= 3.55D-06

 Cycle  13  Pass 1  IDiag  1:
 RMSU=  1.20D-08    CP:  9.71D-01  7.14D-01  8.07D-01  6.50D-01  5.41D-01
                    CP:  7.46D-01  7.86D-01  8.78D-01  7.97D-01  9.43D-01
                    CP:  8.11D-01  8.53D-01
 E= -1309.31247536306     Delta-E=       -0.000000000056 Rises=F Damp=F
 DIIS: error= 1.17D-07 at cycle  13 NSaved=  13.
 NSaved=13 IEnMin=13 EnMin= -1309.31247536306     IErMin=13 ErrMin= 1.17D-07
 ErrMax= 1.17D-07  0.00D+00 EMaxC= 1.00D-01 BMatC= 2.01D-11 BMatP= 8.78D-11
 IDIUse=1 WtCom= 1.00D+00 WtEn= 0.00D+00
 Coeff-Com: -0.162D-05 0.512D-05 0.518D-05 0.620D-05-0.487D-04-0.376D-03
 Coeff-Com: -0.123D-02-0.457D-02-0.438D-02 0.603D-02 0.534D-01 0.371D+00
 Coeff-Com:  0.581D+00
 Coeff:     -0.162D-05 0.512D-05 0.518D-05 0.620D-05-0.487D-04-0.376D-03
 Coeff:     -0.123D-02-0.457D-02-0.438D-02 0.603D-02 0.534D-01 0.371D+00
 Coeff:      0.581D+00
 Gap=     0.118 Goal=   None    Shift=    0.000
 RMSDP=9.86D-09 MaxDP=2.08D-06 DE=-5.64D-11 OVMax= 1.09D-06

 Cycle  14  Pass 1  IDiag  1:
 RMSU=  3.16D-09    CP:  9.71D-01  7.14D-01  8.07D-01  6.50D-01  5.41D-01
                    CP:  7.46D-01  7.86D-01  8.79D-01  7.95D-01  9.53D-01
                    CP:  8.11D-01  9.29D-01  7.31D-01
 E= -1309.31247536305     Delta-E=        0.000000000003 Rises=F Damp=F
 DIIS: error= 2.15D-08 at cycle  14 NSaved=  14.
 NSaved=14 IEnMin=13 EnMin= -1309.31247536306     IErMin=14 ErrMin= 2.15D-08
 ErrMax= 2.15D-08  0.00D+00 EMaxC= 1.00D-01 BMatC= 1.01D-12 BMatP= 2.01D-11
 IDIUse=1 WtCom= 1.00D+00 WtEn= 0.00D+00
 Coeff-Com: -0.645D-06 0.178D-05 0.308D-05 0.666D-05-0.107D-04-0.127D-03
 Coeff-Com: -0.432D-03-0.189D-02-0.238D-02-0.343D-02 0.944D-02 0.141D+00
 Coeff-Com:  0.276D+00 0.582D+00
 Coeff:     -0.645D-06 0.178D-05 0.308D-05 0.666D-05-0.107D-04-0.127D-03
 Coeff:     -0.432D-03-0.189D-02-0.238D-02-0.343D-02 0.944D-02 0.141D+00
 Coeff:      0.276D+00 0.582D+00
 Gap=     0.118 Goal=   None    Shift=    0.000
 RMSDP=1.70D-09 MaxDP=2.98D-07 DE= 3.18D-12 OVMax= 2.19D-07

 Error on total polarization charges =  0.05503
 SCF Done:  E(RB3LYP) =  -1309.31247536     A.U. after   14 cycles
            NFock= 14  Conv=0.17D-08     -V/T= 2.0057
 KE= 1.301872168380D+03 PE=-8.513298106587D+03 EE= 3.155935594772D+03
 SMD-CDS (non-electrostatic) energy       (kcal/mol) =      -5.49
 (included in total energy above)
 Leave Link  502 at Sat Feb 13 19:42:46 2021, MaxMem=  5242880000 cpu:     21739.8
 (Enter /opt/nce/packages/global/g09/l601.exe)
 Copying SCF densities to generalized density rwf, IOpCl= 0 IROHF=0.

 **********************************************************************

            Population analysis using the SCF density.

 **********************************************************************

 Alpha  occ. eigenvalues --  -19.16766 -19.14062 -19.13744 -14.42136 -10.26455
 Alpha  occ. eigenvalues --  -10.26453 -10.25084 -10.24669 -10.22725 -10.22458
 Alpha  occ. eigenvalues --  -10.22456 -10.22053 -10.20740 -10.20486 -10.20484
 Alpha  occ. eigenvalues --  -10.20151 -10.20149 -10.19882 -10.19880 -10.19563
 Alpha  occ. eigenvalues --  -10.19512 -10.19472 -10.19471 -10.19046 -10.18965
 Alpha  occ. eigenvalues --  -10.18819 -10.18637 -10.18543 -10.18502 -10.17254
 Alpha  occ. eigenvalues --   -6.78223  -1.08338  -1.04390  -1.03023  -1.01137
 Alpha  occ. eigenvalues --   -0.90076  -0.88630  -0.87055  -0.85995  -0.83173
 Alpha  occ. eigenvalues --   -0.79190  -0.78079  -0.77433  -0.76605  -0.75954
 Alpha  occ. eigenvalues --   -0.75629  -0.74761  -0.70825  -0.68699  -0.66791
 Alpha  occ. eigenvalues --   -0.65477  -0.63067  -0.62134  -0.61726  -0.61326
 Alpha  occ. eigenvalues --   -0.58967  -0.57729  -0.57334  -0.56853  -0.55582
 Alpha  occ. eigenvalues --   -0.55133  -0.53727  -0.52377  -0.51180  -0.50410
 Alpha  occ. eigenvalues --   -0.48807  -0.48523  -0.48310  -0.47440  -0.46879
 Alpha  occ. eigenvalues --   -0.45941  -0.45793  -0.45496  -0.45455  -0.45132
 Alpha  occ. eigenvalues --   -0.44654  -0.43801  -0.43180  -0.42855  -0.41969
 Alpha  occ. eigenvalues --   -0.41262  -0.40535  -0.39979  -0.39604  -0.39461
 Alpha  occ. eigenvalues --   -0.39204  -0.38164  -0.37938  -0.37822  -0.37206
 Alpha  occ. eigenvalues --   -0.36765  -0.35986  -0.35795  -0.35128  -0.33601
 Alpha  occ. eigenvalues --   -0.33599  -0.33237  -0.32876  -0.32750  -0.29093
 Alpha  occ. eigenvalues --   -0.27797  -0.27256  -0.26870  -0.26713  -0.24456
 Alpha  occ. eigenvalues --   -0.23928
 Alpha virt. eigenvalues --   -0.12152  -0.05437  -0.04868  -0.03914  -0.02463
 Alpha virt. eigenvalues --   -0.02067  -0.01682  -0.01400   0.02172   0.02315
 Alpha virt. eigenvalues --    0.04156   0.04889   0.05251   0.05671   0.06055
 Alpha virt. eigenvalues --    0.06342   0.06462   0.06715   0.07615   0.08170
 Alpha virt. eigenvalues --    0.08258   0.08844   0.09181   0.09301   0.10169
 Alpha virt. eigenvalues --    0.10536   0.10890   0.11199   0.11359   0.11546
 Alpha virt. eigenvalues --    0.11653   0.12003   0.12508   0.12634   0.13018
 Alpha virt. eigenvalues --    0.13591   0.13899   0.14063   0.14851   0.15646
 Alpha virt. eigenvalues --    0.16001   0.16432   0.17124   0.17647   0.17803
 Alpha virt. eigenvalues --    0.18173   0.18331   0.18726   0.19132   0.19622
 Alpha virt. eigenvalues --    0.20063   0.20178   0.20510   0.21094   0.21181
 Alpha virt. eigenvalues --    0.21324   0.21724   0.22101   0.22208   0.22416
 Alpha virt. eigenvalues --    0.22734   0.22950   0.23250   0.23427   0.24026
 Alpha virt. eigenvalues --    0.24449   0.24740   0.24977   0.25063   0.25508
 Alpha virt. eigenvalues --    0.26056   0.26222   0.26600   0.27276   0.27600
 Alpha virt. eigenvalues --    0.27835   0.28183   0.28314   0.28456   0.28926
 Alpha virt. eigenvalues --    0.29106   0.29370   0.30046   0.30394   0.30688
 Alpha virt. eigenvalues --    0.30881   0.31424   0.31844   0.32148   0.32822
 Alpha virt. eigenvalues --    0.32900   0.33365   0.33573   0.33917   0.33999
 Alpha virt. eigenvalues --    0.34621   0.34915   0.34999   0.35803   0.35881
 Alpha virt. eigenvalues --    0.36270   0.36483   0.36710   0.37014   0.37280
 Alpha virt. eigenvalues --    0.37639   0.38087   0.38457   0.38482   0.39259
 Alpha virt. eigenvalues --    0.39677   0.39816   0.40126   0.40472   0.40885
 Alpha virt. eigenvalues --    0.41185   0.41310   0.41867   0.41987   0.42417
 Alpha virt. eigenvalues --    0.42559   0.42678   0.43040   0.43237   0.43515
 Alpha virt. eigenvalues --    0.43864   0.43926   0.44340   0.44773   0.44924
 Alpha virt. eigenvalues --    0.45429   0.45755   0.46056   0.46129   0.46312
 Alpha virt. eigenvalues --    0.46645   0.47125   0.47361   0.47595   0.48065
 Alpha virt. eigenvalues --    0.48360   0.48441   0.49035   0.49419   0.49532
 Alpha virt. eigenvalues --    0.49986   0.50202   0.50344   0.50728   0.51200
 Alpha virt. eigenvalues --    0.51486   0.52173   0.52395   0.52969   0.53930
 Alpha virt. eigenvalues --    0.54955   0.55169   0.55603   0.55804   0.56246
 Alpha virt. eigenvalues --    0.56455   0.57405   0.57956   0.58553   0.58959
 Alpha virt. eigenvalues --    0.59146   0.59557   0.59948   0.60767   0.61146
 Alpha virt. eigenvalues --    0.61401   0.61505   0.61945   0.62272   0.62574
 Alpha virt. eigenvalues --    0.63469   0.63647   0.64067   0.64374   0.64722
 Alpha virt. eigenvalues --    0.65007   0.65448   0.65717   0.65908   0.66022
 Alpha virt. eigenvalues --    0.66360   0.67267   0.67470   0.67683   0.68208
 Alpha virt. eigenvalues --    0.68617   0.68912   0.68953   0.69615   0.69784
 Alpha virt. eigenvalues --    0.69881   0.70221   0.70622   0.71645   0.72009
 Alpha virt. eigenvalues --    0.72226   0.73076   0.73765   0.73923   0.74030
 Alpha virt. eigenvalues --    0.74329   0.74543   0.74936   0.75409   0.75603
 Alpha virt. eigenvalues --    0.75785   0.76202   0.77119   0.78078   0.78428
 Alpha virt. eigenvalues --    0.78838   0.79311   0.79806   0.80497   0.80656
 Alpha virt. eigenvalues --    0.81117   0.81585   0.82289   0.82554   0.83567
 Alpha virt. eigenvalues --    0.83936   0.84443   0.84539   0.85125   0.85487
 Alpha virt. eigenvalues --    0.85997   0.86465   0.86639   0.86754   0.87348
 Alpha virt. eigenvalues --    0.87721   0.88165   0.88303   0.88881   0.89510
 Alpha virt. eigenvalues --    0.89731   0.90326   0.91330   0.92740   0.93176
 Alpha virt. eigenvalues --    0.93209   0.93706   0.94567   0.94777   0.95256
 Alpha virt. eigenvalues --    0.96003   0.97177   0.97365   0.97880   0.98518
 Alpha virt. eigenvalues --    0.99350   0.99446   0.99937   1.01655   1.02317
 Alpha virt. eigenvalues --    1.03009   1.03630   1.04007   1.04530   1.05074
 Alpha virt. eigenvalues --    1.05390   1.05618   1.06543   1.06600   1.07236
 Alpha virt. eigenvalues --    1.07502   1.08211   1.08597   1.09137   1.09410
 Alpha virt. eigenvalues --    1.09836   1.10703   1.11581   1.12301   1.12538
 Alpha virt. eigenvalues --    1.13391   1.14292   1.14585   1.15691   1.16250
 Alpha virt. eigenvalues --    1.16565   1.17052   1.18035   1.18724   1.19759
 Alpha virt. eigenvalues --    1.20292   1.20832   1.21367   1.22114   1.22190
 Alpha virt. eigenvalues --    1.22973   1.23168   1.23459   1.23705   1.24034
 Alpha virt. eigenvalues --    1.25316   1.25520   1.26288   1.26914   1.27294
 Alpha virt. eigenvalues --    1.27508   1.28352   1.28469   1.28866   1.29417
 Alpha virt. eigenvalues --    1.29980   1.30574   1.30720   1.31351   1.31767
 Alpha virt. eigenvalues --    1.32496   1.33036   1.33633   1.34872   1.35054
 Alpha virt. eigenvalues --    1.35517   1.36898   1.36983   1.38266   1.39010
 Alpha virt. eigenvalues --    1.39387   1.40397   1.40763   1.41479   1.41652
 Alpha virt. eigenvalues --    1.42405   1.42593   1.42973   1.43577   1.45455
 Alpha virt. eigenvalues --    1.46603   1.46825   1.47256   1.47788   1.48576
 Alpha virt. eigenvalues --    1.49296   1.49466   1.50223   1.50237   1.50745
 Alpha virt. eigenvalues --    1.51024   1.51127   1.51688   1.52270   1.52715
 Alpha virt. eigenvalues --    1.53061   1.53509   1.53848   1.54168   1.54323
 Alpha virt. eigenvalues --    1.55704   1.55939   1.56212   1.56540   1.56786
 Alpha virt. eigenvalues --    1.57196   1.57390   1.58068   1.58282   1.58485
 Alpha virt. eigenvalues --    1.59115   1.60159   1.60518   1.61175   1.61260
 Alpha virt. eigenvalues --    1.61993   1.62571   1.63063   1.63423   1.63830
 Alpha virt. eigenvalues --    1.64562   1.65035   1.65278   1.65983   1.66255
 Alpha virt. eigenvalues --    1.66612   1.67259   1.67909   1.68582   1.69090
 Alpha virt. eigenvalues --    1.69193   1.69532   1.70462   1.70714   1.71471
 Alpha virt. eigenvalues --    1.71606   1.72187   1.72787   1.73102   1.73827
 Alpha virt. eigenvalues --    1.73910   1.74763   1.75064   1.75516   1.75925
 Alpha virt. eigenvalues --    1.76479   1.76978   1.77412   1.78660   1.79278
 Alpha virt. eigenvalues --    1.79747   1.80923   1.81440   1.82051   1.82335
 Alpha virt. eigenvalues --    1.83821   1.84632   1.85039   1.85614   1.86051
 Alpha virt. eigenvalues --    1.87222   1.87417   1.87793   1.88633   1.88680
 Alpha virt. eigenvalues --    1.88953   1.89531   1.90437   1.91391   1.91900
 Alpha virt. eigenvalues --    1.93290   1.93583   1.93874   1.94058   1.95234
 Alpha virt. eigenvalues --    1.95813   1.96186   1.97532   1.98811   1.99102
 Alpha virt. eigenvalues --    1.99928   2.00321   2.01590   2.03360   2.03636
 Alpha virt. eigenvalues --    2.03771   2.04710   2.05074   2.05404   2.05980
 Alpha virt. eigenvalues --    2.06343   2.07013   2.07046   2.08298   2.09006
 Alpha virt. eigenvalues --    2.09880   2.10299   2.10447   2.10629   2.11518
 Alpha virt. eigenvalues --    2.12915   2.13911   2.14722   2.15170   2.15348
 Alpha virt. eigenvalues --    2.15720   2.15984   2.16627   2.17706   2.18301
 Alpha virt. eigenvalues --    2.19207   2.19814   2.20552   2.20883   2.21500
 Alpha virt. eigenvalues --    2.22414   2.23251   2.23748   2.24085   2.24916
 Alpha virt. eigenvalues --    2.25736   2.26433   2.26907   2.27315   2.27424
 Alpha virt. eigenvalues --    2.28427   2.29444   2.29783   2.30481   2.31667
 Alpha virt. eigenvalues --    2.32003   2.32626   2.33258   2.33828   2.34362
 Alpha virt. eigenvalues --    2.36015   2.36980   2.37790   2.38271   2.39341
 Alpha virt. eigenvalues --    2.39675   2.40050   2.40807   2.41351   2.41465
 Alpha virt. eigenvalues --    2.43216   2.43999   2.44898   2.45174   2.47234
 Alpha virt. eigenvalues --    2.47429   2.48070   2.48665   2.48842   2.50039
 Alpha virt. eigenvalues --    2.50528   2.52228   2.52456   2.52850   2.53435
 Alpha virt. eigenvalues --    2.53752   2.54861   2.55018   2.55563   2.55828
 Alpha virt. eigenvalues --    2.56822   2.57529   2.58158   2.58535   2.59146
 Alpha virt. eigenvalues --    2.59586   2.60183   2.60702   2.61069   2.61210
 Alpha virt. eigenvalues --    2.62282   2.62402   2.63006   2.63445   2.64139
 Alpha virt. eigenvalues --    2.64938   2.65249   2.65700   2.65839   2.66307
 Alpha virt. eigenvalues --    2.66834   2.67071   2.67694   2.68564   2.68626
 Alpha virt. eigenvalues --    2.68906   2.69378   2.69906   2.70138   2.70370
 Alpha virt. eigenvalues --    2.71139   2.71220   2.71794   2.72200   2.72825
 Alpha virt. eigenvalues --    2.73610   2.73801   2.74275   2.74579   2.74898
 Alpha virt. eigenvalues --    2.75282   2.75578   2.76116   2.76407   2.76847
 Alpha virt. eigenvalues --    2.77063   2.77775   2.78518   2.78901   2.79173
 Alpha virt. eigenvalues --    2.79935   2.80593   2.81149   2.81299   2.81532
 Alpha virt. eigenvalues --    2.82148   2.82340   2.82865   2.83148   2.83270
 Alpha virt. eigenvalues --    2.83714   2.84336   2.85067   2.85243   2.86516
 Alpha virt. eigenvalues --    2.86804   2.87204   2.87637   2.87785   2.88443
 Alpha virt. eigenvalues --    2.89988   2.90399   2.90527   2.90975   2.91463
 Alpha virt. eigenvalues --    2.91681   2.92433   2.92603   2.93839   2.94501
 Alpha virt. eigenvalues --    2.94997   2.95600   2.95793   2.96255   2.96938
 Alpha virt. eigenvalues --    2.97579   2.97800   2.98531   2.99159   3.00014
 Alpha virt. eigenvalues --    3.00572   3.00995   3.01536   3.02059   3.02611
 Alpha virt. eigenvalues --    3.03217   3.03755   3.05169   3.05373   3.05871
 Alpha virt. eigenvalues --    3.06228   3.06415   3.06943   3.07276   3.07690
 Alpha virt. eigenvalues --    3.08059   3.08452   3.10062   3.10732   3.11171
 Alpha virt. eigenvalues --    3.11304   3.11707   3.11864   3.12789   3.13004
 Alpha virt. eigenvalues --    3.13537   3.13808   3.13940   3.14844   3.15384
 Alpha virt. eigenvalues --    3.15537   3.15658   3.16467   3.16943   3.17502
 Alpha virt. eigenvalues --    3.18376   3.18606   3.18917   3.19612   3.19813
 Alpha virt. eigenvalues --    3.20773   3.20908   3.21608   3.22222   3.22602
 Alpha virt. eigenvalues --    3.23018   3.23323   3.24035   3.24223   3.24570
 Alpha virt. eigenvalues --    3.25308   3.25584   3.26548   3.27176   3.28088
 Alpha virt. eigenvalues --    3.28129   3.28560   3.28830   3.29141   3.30140
 Alpha virt. eigenvalues --    3.30865   3.31023   3.31236   3.31813   3.32504
 Alpha virt. eigenvalues --    3.32639   3.33257   3.33383   3.34287   3.34751
 Alpha virt. eigenvalues --    3.34992   3.35213   3.35833   3.36022   3.36502
 Alpha virt. eigenvalues --    3.36675   3.37051   3.37738   3.38282   3.38645
 Alpha virt. eigenvalues --    3.39596   3.40164   3.40577   3.40905   3.41255
 Alpha virt. eigenvalues --    3.41901   3.42111   3.42734   3.43549   3.43684
 Alpha virt. eigenvalues --    3.44270   3.44765   3.44931   3.45288   3.45740
 Alpha virt. eigenvalues --    3.46046   3.46313   3.46740   3.47021   3.47514
 Alpha virt. eigenvalues --    3.47796   3.48392   3.48848   3.49430   3.49660
 Alpha virt. eigenvalues --    3.50282   3.51034   3.51698   3.52005   3.52463
 Alpha virt. eigenvalues --    3.52746   3.52909   3.53109   3.53853   3.54471
 Alpha virt. eigenvalues --    3.54510   3.55374   3.56461   3.57087   3.57556
 Alpha virt. eigenvalues --    3.58028   3.58341   3.59007   3.59822   3.60191
 Alpha virt. eigenvalues --    3.61580   3.62722   3.63924   3.64482   3.64811
 Alpha virt. eigenvalues --    3.65554   3.66273   3.67117   3.68154   3.68865
 Alpha virt. eigenvalues --    3.70381   3.71542   3.71781   3.72804   3.72892
 Alpha virt. eigenvalues --    3.75257   3.76498   3.76848   3.77713   3.78992
 Alpha virt. eigenvalues --    3.79606   3.80962   3.82031   3.83070   3.84517
 Alpha virt. eigenvalues --    3.85272   3.85562   3.87250   3.88426   3.88592
 Alpha virt. eigenvalues --    3.88692   3.90261   3.90370   3.93176   3.93935
 Alpha virt. eigenvalues --    3.94143   3.94372   3.95265   3.96798   3.97020
 Alpha virt. eigenvalues --    3.98476   3.98873   3.99498   4.00125   4.01015
 Alpha virt. eigenvalues --    4.02409   4.02548   4.03450   4.04692   4.05412
 Alpha virt. eigenvalues --    4.05611   4.07159   4.07676   4.07832   4.09226
 Alpha virt. eigenvalues --    4.10389   4.10798   4.12439   4.12989   4.13329
 Alpha virt. eigenvalues --    4.13774   4.14302   4.14493   4.16141   4.16508
 Alpha virt. eigenvalues --    4.17130   4.17408   4.18108   4.19388   4.19663
 Alpha virt. eigenvalues --    4.20094   4.20657   4.20754   4.21388   4.21627
 Alpha virt. eigenvalues --    4.22354   4.22576   4.23452   4.23943   4.24884
 Alpha virt. eigenvalues --    4.25228   4.26195   4.26988   4.27234   4.28060
 Alpha virt. eigenvalues --    4.28631   4.29907   4.31084   4.32447   4.33020
 Alpha virt. eigenvalues --    4.33547   4.35035   4.36380   4.37162   4.40038
 Alpha virt. eigenvalues --    4.40431   4.41885   4.42649   4.44044   4.46601
 Alpha virt. eigenvalues --    4.47126   4.48274   4.50716   4.51747   4.53551
 Alpha virt. eigenvalues --    4.53964   4.54543   4.56628   4.56756   4.57457
 Alpha virt. eigenvalues --    4.59982   4.60840   4.61710   4.62712   4.64064
 Alpha virt. eigenvalues --    4.64278   4.64916   4.67051   4.70194   4.70547
 Alpha virt. eigenvalues --    4.73416   4.76002   4.76276   4.77223   4.78860
 Alpha virt. eigenvalues --    4.80338   4.82357   4.83884   4.84610   4.85710
 Alpha virt. eigenvalues --    4.86207   4.89504   4.90758   4.92947   4.94654
 Alpha virt. eigenvalues --    4.94722   4.96094   4.97283   4.98893   5.00511
 Alpha virt. eigenvalues --    5.01132   5.02612   5.03641   5.06986   5.09489
 Alpha virt. eigenvalues --    5.10809   5.12916   5.15869   5.16862   5.17644
 Alpha virt. eigenvalues --    5.18721   5.20926   5.22966   5.23749   5.23790
 Alpha virt. eigenvalues --    5.25631   5.26573   5.27726   5.30548   5.32427
 Alpha virt. eigenvalues --    5.33388   5.34071   5.35046   5.38194   5.39369
 Alpha virt. eigenvalues --    5.40633   5.41779   5.44585   5.46012   5.47298
 Alpha virt. eigenvalues --    5.48788   5.52278   5.52474   5.53103   5.53920
 Alpha virt. eigenvalues --    5.58124   5.58289   5.60497   5.63813   5.67964
 Alpha virt. eigenvalues --    5.71189   5.73253   5.74512   5.74963   5.75681
 Alpha virt. eigenvalues --    5.77891   5.79445   5.81122   5.81980   5.93020
 Alpha virt. eigenvalues --    6.00419   6.01508   6.08312   6.22251   6.29447
 Alpha virt. eigenvalues --    6.31984   6.35502   6.37986   6.40358   6.41095
 Alpha virt. eigenvalues --    6.48424   6.55222   6.62130   6.66816   6.72805
 Alpha virt. eigenvalues --    6.73766   6.75059   6.77092   6.85437   6.85857
 Alpha virt. eigenvalues --    6.94551   7.16229   7.22443   7.34632   7.41044
 Alpha virt. eigenvalues --   16.20177  22.21126  22.28783  22.32449  22.40540
 Alpha virt. eigenvalues --   22.44344  22.58661  22.59028  22.61503  22.62848
 Alpha virt. eigenvalues --   22.63922  22.66102  22.68069  22.70123  22.74781
 Alpha virt. eigenvalues --   22.74931  22.80001  22.86956  22.89569  22.90973
 Alpha virt. eigenvalues --   22.96096  23.06511  23.14279  23.26611  23.30035
 Alpha virt. eigenvalues --   23.35147  23.67946  33.29016  43.50618  43.59566
 Alpha virt. eigenvalues --   44.20440
          Condensed to atoms (all electrons):
 Mulliken charges:
               1
     1  C   -0.114915
     2  C   -0.170996
     3  C    0.101699
     4  C    0.101228
     5  C   -0.210863
     6  C   -0.138284
     7  C    0.262851
     8  C    0.100816
     9  C    0.101800
    10  C   -0.171151
    11  H    0.184566
    12  C   -0.114785
    13  C   -0.138325
    14  C   -0.211413
    15  H    0.168389
    16  H    0.184498
    17  H    0.187050
    18  H    0.163151
    19  H    0.168401
    20  H    0.163156
    21  H    0.187433
    22  N    0.175614
    23  C   -0.003054
    24  C   -0.224056
    25  C   -0.241242
    26  C   -0.171298
    27  C   -0.229741
    28  C    0.027268
    29  H    0.147861
    30  H    0.138997
    31  H    0.156537
    32  H    0.158102
    33  C    0.026341
    34  C   -0.212558
    35  C   -0.195987
    36  C   -0.227315
    37  H    0.158849
    38  C   -0.181896
    39  H    0.154341
    40  C    0.337351
    41  H    0.165258
    42  H    0.143826
    43  O   -0.274382
    44  C   -0.214414
    45  H    0.155739
    46  H    0.142707
    47  H    0.142667
    48  B    0.355904
    49  O   -0.453655
    50  H    0.352166
    51  O   -0.464480
    52  H    0.350248
 Sum of Mulliken charges =   1.00000
 Mulliken charges with hydrogens summed into heavy atoms:
               1
     1  C    0.053474
     2  C    0.013501
     3  C    0.101699
     4  C    0.101228
     5  C   -0.023813
     6  C    0.024868
     7  C    0.262851
     8  C    0.100816
     9  C    0.101800
    10  C    0.013414
    12  C    0.053616
    13  C    0.024831
    14  C   -0.023980
    22  N    0.175614
    23  C   -0.003054
    24  C   -0.067519
    25  C   -0.083141
    26  C   -0.023437
    27  C   -0.090745
    28  C    0.027268
    33  C    0.026341
    34  C   -0.053709
    35  C   -0.041646
    36  C   -0.062057
    38  C   -0.038069
    40  C    0.337351
    43  O   -0.274382
    44  C    0.226699
    48  B    0.355904
    49  O   -0.101490
    51  O   -0.114232
 Electronic spatial extent (au):  <R**2>=          17414.3130
 Charge=              1.0000 electrons
[...]
 Alpha virt. eigenvalues --    0.50343   0.50500   0.50825   0.50948   0.51563
 Alpha virt. eigenvalues --    0.51968   0.52485   0.52914   0.53263   0.54328
 Alpha virt. eigenvalues --    0.54850   0.55291   0.55674   0.55941   0.56323
 Alpha virt. eigenvalues --    0.57031   0.58016   0.58396   0.58898   0.59179
 Alpha virt. eigenvalues --    0.59354   0.59776   0.60330   0.61180   0.61569
 Alpha virt. eigenvalues --    0.61911   0.62129   0.62515   0.62697   0.63082
 Alpha virt. eigenvalues --    0.63619   0.64067   0.64455   0.64818   0.65099
 Alpha virt. eigenvalues --    0.65434   0.65765   0.66096   0.66295   0.66526
 Alpha virt. eigenvalues --    0.66661   0.67699   0.68046   0.68158   0.68549
 Alpha virt. eigenvalues --    0.69064   0.69507   0.69539   0.69614   0.70246
 Alpha virt. eigenvalues --    0.70657   0.70684   0.71632   0.72065   0.72266
 Alpha virt. eigenvalues --    0.72742   0.73452   0.74063   0.74244   0.74270
 Alpha virt. eigenvalues --    0.74804   0.74910   0.75218   0.75471   0.75983
 Alpha virt. eigenvalues --    0.76044   0.76692   0.77432   0.78092   0.78790
 Alpha virt. eigenvalues --    0.78971   0.79911   0.80314   0.80744   0.81037
 Alpha virt. eigenvalues --    0.81244   0.81810   0.82671   0.82943   0.83684
 Alpha virt. eigenvalues --    0.84426   0.84642   0.85129   0.85335   0.85962
 Alpha virt. eigenvalues --    0.86647   0.86810   0.86891   0.87262   0.87787
 Alpha virt. eigenvalues --    0.87962   0.88421   0.88621   0.88939   0.89499
 Alpha virt. eigenvalues --    0.89812   0.90694   0.91208   0.92876   0.93206
 Alpha virt. eigenvalues --    0.93350   0.93976   0.94886   0.95308   0.95563
 Alpha virt. eigenvalues --    0.95929   0.96744   0.97636   0.98043   0.98811
 Alpha virt. eigenvalues --    0.99654   0.99809   1.00142   1.02016   1.02633
 Alpha virt. eigenvalues --    1.03271   1.04130   1.04300   1.04664   1.05541
 Alpha virt. eigenvalues --    1.05931   1.06097   1.06499   1.06877   1.07432
 Alpha virt. eigenvalues --    1.07726   1.08235   1.09009   1.09257   1.09685
 Alpha virt. eigenvalues --    1.10441   1.10725   1.11686   1.12416   1.13071
 Alpha virt. eigenvalues --    1.14346   1.15164   1.15274   1.15999   1.16652
 Alpha virt. eigenvalues --    1.17006   1.17531   1.18080   1.19248   1.20077
 Alpha virt. eigenvalues --    1.20646   1.21191   1.21814   1.22609   1.22798
 Alpha virt. eigenvalues --    1.23251   1.23654   1.24087   1.24400   1.24622
 Alpha virt. eigenvalues --    1.25670   1.25973   1.27108   1.27545   1.27713
 Alpha virt. eigenvalues --    1.28036   1.28442   1.28788   1.28987   1.29851
 Alpha virt. eigenvalues --    1.30302   1.30972   1.31270   1.32098   1.32260
 Alpha virt. eigenvalues --    1.33293   1.33727   1.34663   1.35239   1.35520
 Alpha virt. eigenvalues --    1.36058   1.37363   1.38163   1.38559   1.39192
 Alpha virt. eigenvalues --    1.40001   1.41049   1.41213   1.42084   1.42207
 Alpha virt. eigenvalues --    1.42719   1.43121   1.43504   1.44377   1.45759
 Alpha virt. eigenvalues --    1.47158   1.47394   1.47590   1.48305   1.48930
 Alpha virt. eigenvalues --    1.49805   1.50089   1.50695   1.50782   1.51047
 Alpha virt. eigenvalues --    1.51504   1.51699   1.52640   1.52746   1.53243
 Alpha virt. eigenvalues --    1.53732   1.54168   1.54512   1.54789   1.55033
 Alpha virt. eigenvalues --    1.56353   1.56579   1.56695   1.57268   1.57372
 Alpha virt. eigenvalues --    1.57650   1.57955   1.58400   1.58664   1.59068
 Alpha virt. eigenvalues --    1.59594   1.60649   1.60746   1.61257   1.61654
 Alpha virt. eigenvalues --    1.62493   1.62769   1.63191   1.63780   1.64126
 Alpha virt. eigenvalues --    1.65084   1.65548   1.65684   1.66298   1.66976
 Alpha virt. eigenvalues --    1.67012   1.67912   1.68403   1.69062   1.69349
 Alpha virt. eigenvalues --    1.69828   1.70412   1.70757   1.71327   1.71649
 Alpha virt. eigenvalues --    1.72140   1.72970   1.73119   1.74102   1.74398
 Alpha virt. eigenvalues --    1.74551   1.75330   1.75518   1.76125   1.76229
 Alpha virt. eigenvalues --    1.76991   1.77387   1.78011   1.79131   1.79756
 Alpha virt. eigenvalues --    1.80469   1.80986   1.81909   1.82397   1.82874
 Alpha virt. eigenvalues --    1.84343   1.84877   1.85538   1.85974   1.86681
 Alpha virt. eigenvalues --    1.87882   1.87979   1.88451   1.89199   1.89349
 Alpha virt. eigenvalues --    1.89640   1.90761   1.91172   1.91927   1.92224
 Alpha virt. eigenvalues --    1.93017   1.94531   1.94734   1.94991   1.95959
 Alpha virt. eigenvalues --    1.96359   1.96702   1.98123   1.99906   2.00076
 Alpha virt. eigenvalues --    2.00925   2.01491   2.02492   2.04067   2.04366
 Alpha virt. eigenvalues --    2.04708   2.05276   2.05312   2.06084   2.06569
 Alpha virt. eigenvalues --    2.06693   2.07350   2.07626   2.08590   2.09459
 Alpha virt. eigenvalues --    2.10473   2.10774   2.11049   2.11668   2.12012
 Alpha virt. eigenvalues --    2.13587   2.14559   2.15246   2.15874   2.16027
 Alpha virt. eigenvalues --    2.16502   2.16808   2.17734   2.18473   2.19125
 Alpha virt. eigenvalues --    2.20388   2.20846   2.21209   2.21607   2.22262
 Alpha virt. eigenvalues --    2.23279   2.23936   2.24442   2.25016   2.25403
 Alpha virt. eigenvalues --    2.27134   2.27338   2.27838   2.28194   2.28776
 Alpha virt. eigenvalues --    2.29431   2.29898   2.30497   2.31284   2.31635
 Alpha virt. eigenvalues --    2.31944   2.32476   2.34160   2.34489   2.35125
 Alpha virt. eigenvalues --    2.36124   2.37460   2.38318   2.39224   2.40190
 Alpha virt. eigenvalues --    2.40703   2.40998   2.41476   2.42307   2.42361
 Alpha virt. eigenvalues --    2.43850   2.44096   2.45440   2.45675   2.47413
 Alpha virt. eigenvalues --    2.47764   2.49005   2.49305   2.49582   2.50265
 Alpha virt. eigenvalues --    2.51473   2.52806   2.52968   2.53594   2.54353
 Alpha virt. eigenvalues --    2.54584   2.55569   2.55954   2.56272   2.56462
 Alpha virt. eigenvalues --    2.57494   2.58447   2.59240   2.59666   2.60473
 Alpha virt. eigenvalues --    2.60732   2.61058   2.61603   2.61706   2.62302
 Alpha virt. eigenvalues --    2.62842   2.63710   2.63863   2.64588   2.64920
 Alpha virt. eigenvalues --    2.65520   2.65916   2.66208   2.66513   2.67323
 Alpha virt. eigenvalues --    2.67630   2.68513   2.68841   2.69463   2.69571
 Alpha virt. eigenvalues --    2.69897   2.70119   2.70694   2.71146   2.71389
 Alpha virt. eigenvalues --    2.71798   2.72073   2.72634   2.73273   2.73489
 Alpha virt. eigenvalues --    2.74093   2.74951   2.75116   2.75578   2.75755
 Alpha virt. eigenvalues --    2.76316   2.76384   2.76814   2.77426   2.77599
 Alpha virt. eigenvalues --    2.78022   2.78675   2.79077   2.79467   2.80145
 Alpha virt. eigenvalues --    2.80828   2.81525   2.81772   2.82315   2.82347
 Alpha virt. eigenvalues --    2.82817   2.83392   2.84012   2.84335   2.84707
 Alpha virt. eigenvalues --    2.84901   2.85416   2.85837   2.85984   2.86935
 Alpha virt. eigenvalues --    2.87367   2.88314   2.88738   2.88865   2.89246
 Alpha virt. eigenvalues --    2.90197   2.90783   2.91270   2.91469   2.92587
 Alpha virt. eigenvalues --    2.92961   2.93432   2.93731   2.94027   2.95026
 Alpha virt. eigenvalues --    2.96076   2.96207   2.96705   2.96835   2.97274
 Alpha virt. eigenvalues --    2.98053   2.98259   2.99252   2.99781   3.00478
 Alpha virt. eigenvalues --    3.01325   3.01516   3.02463   3.02810   3.03069
 Alpha virt. eigenvalues --    3.03537   3.03936   3.05892   3.06251   3.06431
 Alpha virt. eigenvalues --    3.06649   3.07215   3.07688   3.07721   3.08176
 Alpha virt. eigenvalues --    3.08518   3.09401   3.10617   3.11416   3.11644
 Alpha virt. eigenvalues --    3.11869   3.11998   3.12370   3.12785   3.13208
 Alpha virt. eigenvalues --    3.13991   3.14350   3.14534   3.15363   3.15557
 Alpha virt. eigenvalues --    3.15797   3.16031   3.16560   3.17590   3.18036
 Alpha virt. eigenvalues --    3.18802   3.19465   3.19749   3.20129   3.20732
 Alpha virt. eigenvalues --    3.21273   3.21617   3.22060   3.22551   3.23179
 Alpha virt. eigenvalues --    3.23679   3.24346   3.24584   3.24944   3.25226
 Alpha virt. eigenvalues --    3.26059   3.26272   3.26844   3.27494   3.28774
 Alpha virt. eigenvalues --    3.29131   3.29553   3.29829   3.29996   3.30746
 Alpha virt. eigenvalues --    3.31237   3.31964   3.32132   3.32339   3.33336
 Alpha virt. eigenvalues --    3.33350   3.34337   3.34609   3.35229   3.35683
 Alpha virt. eigenvalues --    3.35885   3.36127   3.36918   3.37180   3.37366
 Alpha virt. eigenvalues --    3.37513   3.38268   3.38769   3.39159   3.39759
 Alpha virt. eigenvalues --    3.40623   3.40859   3.41046   3.41803   3.41984
 Alpha virt. eigenvalues --    3.42842   3.43048   3.44125   3.44660   3.44863
 Alpha virt. eigenvalues --    3.44936   3.45467   3.45492   3.46054   3.46392
 Alpha virt. eigenvalues --    3.46640   3.47152   3.47814   3.47999   3.48364
 Alpha virt. eigenvalues --    3.48874   3.49396   3.49814   3.50116   3.50860
 Alpha virt. eigenvalues --    3.50948   3.51618   3.52432   3.52702   3.53299
 Alpha virt. eigenvalues --    3.53751   3.53934   3.54298   3.54529   3.55268
 Alpha virt. eigenvalues --    3.55810   3.56292   3.57504   3.57799   3.58176
 Alpha virt. eigenvalues --    3.59212   3.59326   3.59574   3.60985   3.61317
 Alpha virt. eigenvalues --    3.62779   3.64159   3.65439   3.65864   3.66089
 Alpha virt. eigenvalues --    3.66160   3.66956   3.68517   3.68746   3.69689
 Alpha virt. eigenvalues --    3.71707   3.72515   3.73305   3.74013   3.74721
 Alpha virt. eigenvalues --    3.76830   3.78008   3.78325   3.79026   3.80066
 Alpha virt. eigenvalues --    3.81251   3.82444   3.82823   3.83925   3.84790
 Alpha virt. eigenvalues --    3.86453   3.87723   3.88591   3.89793   3.89806
 Alpha virt. eigenvalues --    3.90081   3.91662   3.92486   3.94157   3.95158
 Alpha virt. eigenvalues --    3.96070   3.96459   3.97241   3.98457   3.99029
 Alpha virt. eigenvalues --    3.99901   4.00725   4.01156   4.01962   4.02970
 Alpha virt. eigenvalues --    4.04076   4.04589   4.05588   4.06756   4.07183
 Alpha virt. eigenvalues --    4.07410   4.08719   4.09540   4.10110   4.10779
 Alpha virt. eigenvalues --    4.11618   4.11855   4.13756   4.15108   4.15344
 Alpha virt. eigenvalues --    4.15750   4.16022   4.16206   4.18054   4.18640
 Alpha virt. eigenvalues --    4.18829   4.19188   4.19572   4.21064   4.21403
 Alpha virt. eigenvalues --    4.22104   4.22609   4.22718   4.23192   4.23719
 Alpha virt. eigenvalues --    4.24379   4.24499   4.25271   4.25393   4.26758
 Alpha virt. eigenvalues --    4.27056   4.28379   4.28926   4.29430   4.30186
 Alpha virt. eigenvalues --    4.30907   4.31474   4.32995   4.34222   4.35075
 Alpha virt. eigenvalues --    4.35308   4.37457   4.38912   4.39955   4.42701
 Alpha virt. eigenvalues --    4.43085   4.43863   4.44809   4.46736   4.47608
 Alpha virt. eigenvalues --    4.49237   4.50443   4.52764   4.53683   4.55947
 Alpha virt. eigenvalues --    4.56091   4.56658   4.58476   4.58683   4.60323
 Alpha virt. eigenvalues --    4.61780   4.62829   4.63653   4.64559   4.65995
 Alpha virt. eigenvalues --    4.66410   4.67005   4.69099   4.71436   4.72862
 Alpha virt. eigenvalues --    4.74471   4.78442   4.78869   4.79583   4.79883
 Alpha virt. eigenvalues --    4.81062   4.83633   4.86012   4.86632   4.87497
 Alpha virt. eigenvalues --    4.88559   4.91827   4.92540   4.94459   4.95848
 Alpha virt. eigenvalues --    4.96335   4.97481   4.98978   5.00732   5.02193
 Alpha virt. eigenvalues --    5.02856   5.03383   5.06022   5.09265   5.13603
 Alpha virt. eigenvalues --    5.14375   5.15085   5.16656   5.18430   5.19664
 Alpha virt. eigenvalues --    5.21220   5.22515   5.24252   5.25377   5.25637
 Alpha virt. eigenvalues --    5.27337   5.29443   5.30378   5.32390   5.33434
 Alpha virt. eigenvalues --    5.33592   5.34625   5.38047   5.38754   5.39915
 Alpha virt. eigenvalues --    5.42251   5.43545   5.45649   5.45933   5.46644
 Alpha virt. eigenvalues --    5.49737   5.53525   5.54136   5.55311   5.56503
 Alpha virt. eigenvalues --    5.59123   5.59708   5.60010   5.63065   5.70087
 Alpha virt. eigenvalues --    5.71516   5.73129   5.73840   5.76866   5.77529
 Alpha virt. eigenvalues --    5.78600   5.80827   5.82962   5.85025   5.90079
 Alpha virt. eigenvalues --    5.99331   6.04131   6.09744   6.24504   6.29251
 Alpha virt. eigenvalues --    6.31696   6.35079   6.37761   6.38615   6.45167
 Alpha virt. eigenvalues --    6.48152   6.53136   6.62453   6.66533   6.72285
 Alpha virt. eigenvalues --    6.73698   6.74903   6.77576   6.84517   6.86001
 Alpha virt. eigenvalues --    6.94215   7.15932   7.22443   7.33183   7.41233
 Alpha virt. eigenvalues --   16.18700  22.25088  22.30391  22.34486  22.42438
 Alpha virt. eigenvalues --   22.48432  22.63239  22.63373  22.66300  22.66831
 Alpha virt. eigenvalues --   22.69378  22.71799  22.72705  22.75569  22.78400
 Alpha virt. eigenvalues --   22.78886  22.84243  22.92094  22.93543  22.95845
 Alpha virt. eigenvalues --   23.01279  23.11200  23.20500  23.32056  23.34964
 Alpha virt. eigenvalues --   23.40970  23.74669  33.31127  43.51334  43.58987
 Alpha virt. eigenvalues --   44.19422
          Condensed to atoms (all electrons):
 Mulliken charges:
               1
     1  C   -0.111178
     2  C   -0.170861
     3  C    0.098371
     4  C    0.108104
     5  C   -0.204004
     6  C   -0.137521
     7  C    0.270491
     8  C    0.108479
     9  C    0.098507
    10  C   -0.171142
    11  H    0.182077
    12  C   -0.111064
    13  C   -0.137703
    14  C   -0.204144
    15  H    0.166767
    16  H    0.181870
    17  H    0.183065
    18  H    0.161234
    19  H    0.166768
    20  H    0.161210
    21  H    0.183070
    22  N    0.180573
    23  C   -0.044772
    24  C   -0.193428
    25  C   -0.219887
    26  C   -0.185754
    27  C   -0.236007
    28  C    0.049175
    29  H    0.145804
    30  H    0.136567
    31  H    0.150980
    32  H    0.152029
    33  C    0.032302
    34  C   -0.215577
    35  C   -0.195304
    36  C   -0.221609
    37  H    0.156834
    38  C   -0.183552
    39  H    0.152597
    40  C    0.345501
    41  H    0.163666
    42  H    0.142536
    43  O   -0.283800
    44  C   -0.213096
    45  H    0.154830
    46  H    0.143675
    47  H    0.143686
    48  B    0.356426
    49  O   -0.459271
    50  H    0.348833
    51  O   -0.476129
    52  H    0.349776
 Sum of Mulliken charges =   1.00000
 Mulliken charges with hydrogens summed into heavy atoms:
               1
     1  C    0.055589
     2  C    0.011009
     3  C    0.098371
     4  C    0.108104
     5  C   -0.020939
     6  C    0.023714
     7  C    0.270491
     8  C    0.108479
     9  C    0.098507
    10  C    0.010935
    12  C    0.055704
    13  C    0.023506
    14  C   -0.021074
    22  N    0.180573
    23  C   -0.044772
    24  C   -0.042449
    25  C   -0.067858
    26  C   -0.039949
    27  C   -0.099440
    28  C    0.049175
    33  C    0.032302
    34  C   -0.058743
    35  C   -0.042707
    36  C   -0.057943
    38  C   -0.041015
    40  C    0.345501
    43  O   -0.283800
    44  C    0.229095
    48  B    0.356426
    49  O   -0.110438
    51  O   -0.126354
 Electronic spatial extent (au):  <R**2>=          17265.1412
 Charge=              1.0000 electrons
 Dipole moment (field-independent basis, Debye):
    X=              5.1867    Y=             -0.4096    Z=              0.2421  Tot=              5.2085
 Quadrupole moment (field-independent basis, Debye-Ang):
   XX=           -109.0127   YY=           -143.2677   ZZ=           -165.7999
   XY=              2.3128   XZ=            -22.0327   YZ=             -1.8819
 Traceless Quadrupole moment (field-independent basis, Debye-Ang):
   XX=             30.3474   YY=             -3.9076   ZZ=            -26.4398
   XY=              2.3128   XZ=            -22.0327   YZ=             -1.8819
 Octapole moment (field-independent basis, Debye-Ang**2):
  XXX=            219.7095  YYY=             -0.2433  ZZZ=             14.3087  XYY=              9.0533
  XXY=             -6.4187  XXZ=            -65.2730  XZZ=              3.0319  YZZ=             -3.4796
  YYZ=              1.3396  XYZ=             13.8084
 Hexadecapole moment (field-independent basis, Debye-Ang**3):
 XXXX=         -15031.7699 YYYY=          -2439.2803 ZZZZ=           -747.7139 XXXY=            -10.2766
 XXXZ=           -819.8074 YYYX=              0.2292 YYYZ=             39.8396 ZZZX=            -91.8655
 ZZZY=            -33.4942 XXYY=          -3662.2425 XXZZ=          -2948.8381 YYZZ=           -723.7830
 XXYZ=            -81.1618 YYXZ=            -11.6996 ZZXY=             25.0707
 N-N= 2.758529663452D+03 E-N=-8.538386673176D+03  KE= 1.302635596960D+03
 Leave Link  601 at Sun Feb 14 10:08:54 2021, MaxMem=  5242880000 cpu:         7.8
 (Enter /opt/nce/packages/global/g09/l9999.exe)
 1\1\GINC-CN065\SP\RB3LYP TD-FC\Gen\C26H21B1N1O3(1+)\PNG4RJV\14-Feb-202
 1\0\\#p b3lyp chkbasis geom=allcheck Guess=Read int=ultrafine scrf=(SM
 D,solvent=Acetonitrile) td=(NStates=30) EmpiricalDispersion=GD3BJ\\Tit
 le\\1,1\C,0,1.0008565373,3.5971877864,0.2570171031\C,0,1.6846162409,2.
 4124194111,0.1879716498\C,0,0.9748241816,1.1960261295,0.1134460151\C,0
 ,-0.4536130247,1.2105285054,0.0957410969\C,0,-1.1173042497,2.465637510
 9,0.1880280753\C,0,-0.4101782931,3.6297039642,0.2647090026\C,0,-1.1573
 412303,-0.002971883,0.0096753099\C,0,-0.4468388612,-1.2139585978,-0.05
 15287369\C,0,0.9810694842,-1.195548225,-0.0104447774\C,0,1.6965491698,
 -2.4101095196,-0.0537341455\H,0,2.7736316874,-2.4020533789,-0.01131875
 4\C,0,1.0193378169,-3.596677237,-0.1512168902\C,0,-0.3900332378,-3.632
 9570064,-0.2183151348\C,0,-1.1028368218,-2.4707971728,-0.1707278103\H,
 0,1.5565175349,4.5239355907,0.3136594827\H,0,2.7626222779,2.4066473535
 ,0.1915263942\H,0,-2.1963107696,2.4812726332,0.2009217306\H,0,-0.92556
 14492,4.5777331848,0.3352900031\H,0,1.5793623568,-4.5219495189,-0.1838
 799496\H,0,-0.899413102,-4.5823613569,-0.3107525923\H,0,-2.1803699269,
 -2.4888747078,-0.2283757045\N,0,1.6399089401,0.0012108337,0.0659837798
 \C,0,-2.638979546,-0.0055361387,-0.0119387342\C,0,-3.3293004935,0.4479
 800721,-1.1362659818\C,0,-3.3558522862,-0.4609940982,1.0942416381\C,0,
 -4.7159207121,0.435858591,-1.150342777\C,0,-4.7430857784,-0.4503373026
 ,1.0745635529\C,0,-5.4554828517,-0.0062531568,-0.0457889696\H,0,-5.235
 1575633,0.7810302357,-2.034922527\H,0,-5.2637152289,-0.8056593046,1.95
 66917674\H,0,-2.7772032207,0.8009310578,-1.9976216122\H,0,-2.825367601
 8,-0.8146905543,1.9686202204\C,0,3.0877473061,0.0019485816,0.105510639
 4\C,0,3.8035365615,0.0513992291,-1.076382674\C,0,3.7358634488,-0.05059
 78305,1.3331725613\C,0,5.1932178784,0.0480224955,-1.0452026292\H,0,3.2
 802832789,0.091504192,-2.0225579071\C,0,5.117198649,-0.0538934061,1.37
 2135554\H,0,3.1587618123,-0.0887373964,2.2474813662\C,0,5.8556207362,-
 0.0052335106,0.1835157075\H,0,5.7425305076,0.0865469565,-1.9734374969\
 H,0,5.6433618617,-0.0944697019,2.3164704446\O,0,7.1999303422,-0.013723
 2645,0.3218177305\C,0,8.0065272348,0.0212522247,-0.8570478856\H,0,9.03
 70438207,0.0027411184,-0.5109608271\H,0,7.8173364516,-0.8499276545,-1.
 4881105168\H,0,7.8294000827,0.9353982117,-1.4278418412\B,0,-7.02426416
 44,0.0085799852,-0.0919448856\O,0,-7.8280867969,-0.3052208587,0.971182
 1072\H,0,-7.3594911529,-0.5275900401,1.7843787256\O,0,-7.6307692404,0.
 3584695746,-1.2665246647\H,0,-8.5955985968,0.3505863933,-1.2076992326\
 \Version=ES64L-G09RevE.01\State=1-A\HF=-1309.3160361\RMSD=4.640e-09\PG
 =C01 [X(C26H21B1N1O3)]\\@


 IN SO FAR AS QUANTUM MECHANICS IS CORRECT, CHEMICAL 
 QUESTIONS ARE PROBLEMS IN APPLIED MATHEMATICS.

                    -- EYRING, WALTER, & KIMBALL, 1944
 Job cpu time:       1 days 22 hours 42 minutes 11.3 seconds.
 File lengths (MBytes):  RWF=   5860 Int=      0 D2E=      0 Chk=   1054 Scr=      1
 Normal termination of Gaussian 09 at Sun Feb 14 10:08:55 2021.
