 Entering Gaussian System, Link 0=g09
 Input=/home/png4rjv/fotokatalizis/benchmark/OPCs/BOH-Acr_p_PBE-D3_def2TZVP.gjf
 Output=/home/png4rjv/fotokatalizis/benchmark/OPCs/BOH-Acr_p_PBE-D3_def2TZVP.log
 Initial command:
 /opt/nce/packages/global/g09/l1.exe "/home/png4rjv/fotokatalizis/benchmark/OPCs/BOH-Acr_p_PBE-D3_def2TZVP/Gau-56602.inp" -scrdir="/home/png4rjv/fotokatalizis/benchmark/OPCs/BOH-Acr_p_PBE-D3_def2TZVP/"
 Default is to use a total of  12 processors:
                               12 via shared-memory
                                1 via Linda
 Entering Link 1 = /opt/nce/packages/global/g09/l1.exe PID=     56603.
  
 Copyright (c) 1988,1990,1992,1993,1995,1998,2003,2009,2015,
            Gaussian, Inc.  All Rights Reserved.
  
 This is part of the Gaussian(R) 09 program.  It is based on
 the Gaussian(R) 03 system (copyright 2003, Gaussian, Inc.),
 the Gaussian(R) 98 system (copyright 1998, Gaussian, Inc.),
 the Gaussian(R) 94 system (copyright 1995, Gaussian, Inc.),
 the Gaussian 92(TM) system (copyright 1992, Gaussian, Inc.),
 the Gaussian 90(TM) system (copyright 1990, Gaussian, Inc.),
 the Gaussian 88(TM) system (copyright 1988, Gaussian, Inc.),
 the Gaussian 86(TM) system (copyright 1986, Carnegie Mellon
 University), and the Gaussian 82(TM) system (copyright 1983,
 Carnegie Mellon University). Gaussian is a federally registered
 trademark of Gaussian, Inc.
  
 This software contains proprietary and confidential information,
 including trade secrets, belonging to Gaussian, Inc.
  
 This software is provided under written license and may be
 used, copied, transmitted, or stored only in accord with that
 written license.
  
 The following legend is applicable only to US Government
 contracts under FAR:
  
                    RESTRICTED RIGHTS LEGEND
  
 Use, reproduction and disclosure by the US Government is
 subject to restrictions as set forth in subparagraphs (a)
 and (c) of the Commercial Computer Software - Restricted
 Rights clause in FAR 52.227-19.
  
 Gaussian, Inc.
 340 Quinnipiac St., Bldg. 40, Wallingford CT 06492
  
  
 ---------------------------------------------------------------
 Warning -- This program may not be used in any manner that
 competes with the business of Gaussian, Inc. or will provide
 assistance to any competitor of Gaussian, Inc.  The licensee
 of this program is prohibited from giving any competitor of
 Gaussian, Inc. access to this program.  By using this program,
 the user acknowledges that Gaussian, Inc. is engaged in the
 business of creating and licensing software in the field of
 computational chemistry and represents and warrants to the
 licensee that it is not a competitor of Gaussian, Inc. and that
 it will not use this program in any manner prohibited above.
 ---------------------------------------------------------------
  

 Cite this work as:
 Gaussian 09, Revision E.01,
 M. J. Frisch, G. W. Trucks, H. B. Schlegel, G. E. Scuseria, 
 M. A. Robb, J. R. Cheeseman, G. Scalmani, V. Barone, B. Mennucci, 
 G. A. Petersson, H. Nakatsuji, M. Caricato, X. Li, H. P. Hratchian, 
 A. F. Izmaylov, J. Bloino, G. Zheng, J. L. Sonnenberg, M. Hada, 
 M. Ehara, K. Toyota, R. Fukuda, J. Hasegawa, M. Ishida, T. Nakajima, 
 Y. Honda, O. Kitao, H. Nakai, T. Vreven, J. A. Montgomery, Jr., 
 J. E. Peralta, F. Ogliaro, M. Bearpark, J. J. Heyd, E. Brothers, 
 K. N. Kudin, V. N. Staroverov, T. Keith, R. Kobayashi, J. Normand, 
 K. Raghavachari, A. Rendell, J. C. Burant, S. S. Iyengar, J. Tomasi, 
 M. Cossi, N. Rega, J. M. Millam, M. Klene, J. E. Knox, J. B. Cross, 
 V. Bakken, C. Adamo, J. Jaramillo, R. Gomperts, R. E. Stratmann, 
 O. Yazyev, A. J. Austin, R. Cammi, C. Pomelli, J. W. Ochterski, 
 R. L. Martin, K. Morokuma, V. G. Zakrzewski, G. A. Voth, 
 P. Salvador, J. J. Dannenberg, S. Dapprich, A. D. Daniels, 
 O. Farkas, J. B. Foresman, J. V. Ortiz, J. Cioslowski, 
 and D. J. Fox, Gaussian, Inc., Wallingford CT, 2013.
 
 ******************************************
 Gaussian 09:  ES64L-G09RevE.01 30-Nov-2015
                27-Mar-2021 
 ******************************************
 %chk=cp.chk
 Default route:  MaxDisk=500GB
 ----------------------------------------------------------------------
 #p PBEPBE/def2TZVP opt freq=noraman nosymm int=ultrafine scrf=(SMD,sol
 vent=Acetonitrile) EmpiricalDispersion=GD3BJ
 ----------------------------------------------------------------------
 1/14=-1,18=20,19=15,26=4,38=1/1,3;
 2/9=110,12=2,15=1,17=6,18=5,40=1/2;
 3/5=44,7=101,11=2,16=1,25=1,30=1,70=32201,71=1,72=2,74=1009,75=-5,124=41/1,2,3;
 4//1;
 5/5=2,38=5,53=2/2;
 6/7=2,8=2,9=2,10=2,28=1/1;
 7/30=1/1,2,3,16;
 1/14=-1,18=20,19=15,26=4/3(2);
 2/9=110,15=1/2;
 99//99;
 2/9=110,15=1/2;
 3/5=44,7=101,11=2,16=1,25=1,30=1,70=32205,71=1,72=2,74=1009,75=-5,124=41/1,2,3;
 4/5=5,16=3,69=1/1;
 5/5=2,38=5,53=2/2;
 7/30=1/1,2,3,16;
 1/14=-1,18=20,19=15,26=4/3(-5);
 2/9=110,15=1/2;
 6/7=2,8=2,9=2,10=2,19=2,28=1/1;
 99/9=1/99;
 Leave Link    1 at Sat Mar 27 02:21:50 2021, MaxMem=           0 cpu:         1.0
 (Enter /opt/nce/packages/global/g09/l101.exe)
 -----
 Title
 -----
 Symbolic Z-matrix:
 Charge =  1 Multiplicity = 1
 C                     1.00842   3.61631   0.23015 
 C                     1.69392   2.42154   0.166 
 C                     0.97826   1.19972   0.11037 
 C                    -0.45798   1.21611   0.10147 
 C                    -1.12146   2.47891   0.19519 
 C                    -0.40812   3.65098   0.25457 
 C                    -1.17135  -0.00628   0.03053 
 C                    -0.45288  -1.22676  -0.01738 
 C                     0.98278  -1.20685   0.02307 
 C                     1.70278  -2.42711  -0.00475 
 H                     2.78949  -2.41261   0.03914 
 C                     1.0228   -3.62355  -0.09201 
 C                    -0.39177  -3.66148  -0.16927 
 C                    -1.10951  -2.49105  -0.13592 
 H                     1.57139   4.55115   0.27422 
 H                     2.78153   2.40958   0.16252 
 H                    -2.20973   2.4931    0.2267 
 H                    -0.92737   4.60792   0.32799 
 H                     1.58911  -4.55717  -0.11355 
 H                    -0.90563  -4.61958  -0.2628 
 H                    -2.19575  -2.5074   -0.20917 
 N                     1.64551  -0.00273   0.07695 
 C                    -2.65276  -0.00774   0.00493 
 C                    -3.3453    0.55343  -1.08244 
 C                    -3.38217  -0.57126   1.06515 
 C                    -4.73825   0.53811  -1.10711 
 C                    -4.77635  -0.55638   1.03545 
 C                    -5.4851   -0.0077   -0.04664 
 H                    -5.269     0.95659  -1.96454 
 H                    -5.31266  -0.99711   1.88131 
 H                    -2.78649   0.98271  -1.91713 
 H                    -2.85519  -1.00452   1.91805 
 C                     3.09427  -0.001     0.10391 
 C                     3.80809   0.02691  -1.09179 
 C                     3.76286  -0.02734   1.3339 
 C                     5.20431   0.02906  -1.07253 
 H                     3.27478   0.0473   -2.04438 
 C                     5.15003  -0.02579   1.35989 
 H                     3.19266  -0.04903   2.26473 
 C                     5.8874    0.00255   0.15754 
 H                     5.74786   0.05129  -2.01586 
 H                     5.69897  -0.04623   2.30238 
 O                     7.22101   0.00199   0.28561 
 C                     8.04101   0.02916  -0.87094 
 H                     9.0776    0.0225   -0.51341 
 H                     7.87032  -0.8573   -1.50515 
 H                     7.8679    0.94285  -1.46455 
 B                    -7.06559   0.01114  -0.11763 
 O                    -7.87849  -0.31799   0.92377 
 H                    -7.43763  -0.5283    1.75395 
 O                    -7.62106   0.38541  -1.29749 
 H                    -8.58785   0.38737  -1.27412 
 
 NAtoms=     52 NQM=       52 NQMF=       0 NMMI=      0 NMMIF=      0
                NMic=       0 NMicF=      0.
                    Isotopes and Nuclear Properties:
 (Nuclear quadrupole moments (NQMom) in fm**2, nuclear magnetic moments (NMagM)
  in nuclear magnetons)

  Atom         1           2           3           4           5           6           7           8           9          10
 IAtWgt=          12          12          12          12          12          12          12          12          12          12
 AtmWgt=  12.0000000  12.0000000  12.0000000  12.0000000  12.0000000  12.0000000  12.0000000  12.0000000  12.0000000  12.0000000
 NucSpn=           0           0           0           0           0           0           0           0           0           0
 AtZEff=   0.0000000   0.0000000   0.0000000   0.0000000   0.0000000   0.0000000   0.0000000   0.0000000   0.0000000   0.0000000
 NQMom=    0.0000000   0.0000000   0.0000000   0.0000000   0.0000000   0.0000000   0.0000000   0.0000000   0.0000000   0.0000000
 NMagM=    0.0000000   0.0000000   0.0000000   0.0000000   0.0000000   0.0000000   0.0000000   0.0000000   0.0000000   0.0000000
 AtZNuc=   6.0000000   6.0000000   6.0000000   6.0000000   6.0000000   6.0000000   6.0000000   6.0000000   6.0000000   6.0000000

  Atom        11          12          13          14          15          16          17          18          19          20
 IAtWgt=           1          12          12          12           1           1           1           1           1           1
 AtmWgt=   1.0078250  12.0000000  12.0000000  12.0000000   1.0078250   1.0078250   1.0078250   1.0078250   1.0078250   1.0078250
 NucSpn=           1           0           0           0           1           1           1           1           1           1
 AtZEff=   0.0000000   0.0000000   0.0000000   0.0000000   0.0000000   0.0000000   0.0000000   0.0000000   0.0000000   0.0000000
 NQMom=    0.0000000   0.0000000   0.0000000   0.0000000   0.0000000   0.0000000   0.0000000   0.0000000   0.0000000   0.0000000
 NMagM=    2.7928460   0.0000000   0.0000000   0.0000000   2.7928460   2.7928460   2.7928460   2.7928460   2.7928460   2.7928460
 AtZNuc=   1.0000000   6.0000000   6.0000000   6.0000000   1.0000000   1.0000000   1.0000000   1.0000000   1.0000000   1.0000000

  Atom        21          22          23          24          25          26          27          28          29          30
 IAtWgt=           1          14          12          12          12          12          12          12           1           1
 AtmWgt=   1.0078250  14.0030740  12.0000000  12.0000000  12.0000000  12.0000000  12.0000000  12.0000000   1.0078250   1.0078250
 NucSpn=           1           2           0           0           0           0           0           0           1           1
 AtZEff=   0.0000000   0.0000000   0.0000000   0.0000000   0.0000000   0.0000000   0.0000000   0.0000000   0.0000000   0.0000000
 NQMom=    0.0000000   2.0440000   0.0000000   0.0000000   0.0000000   0.0000000   0.0000000   0.0000000   0.0000000   0.0000000
 NMagM=    2.7928460   0.4037610   0.0000000   0.0000000   0.0000000   0.0000000   0.0000000   0.0000000   2.7928460   2.7928460
 AtZNuc=   1.0000000   7.0000000   6.0000000   6.0000000   6.0000000   6.0000000   6.0000000   6.0000000   1.0000000   1.0000000

  Atom        31          32          33          34          35          36          37          38          39          40
 IAtWgt=           1           1          12          12          12          12           1          12           1          12
 AtmWgt=   1.0078250   1.0078250  12.0000000  12.0000000  12.0000000  12.0000000   1.0078250  12.0000000   1.0078250  12.0000000
 NucSpn=           1           1           0           0           0           0           1           0           1           0
 AtZEff=   0.0000000   0.0000000   0.0000000   0.0000000   0.0000000   0.0000000   0.0000000   0.0000000   0.0000000   0.0000000
 NQMom=    0.0000000   0.0000000   0.0000000   0.0000000   0.0000000   0.0000000   0.0000000   0.0000000   0.0000000   0.0000000
 NMagM=    2.7928460   2.7928460   0.0000000   0.0000000   0.0000000   0.0000000   2.7928460   0.0000000   2.7928460   0.0000000
 AtZNuc=   1.0000000   1.0000000   6.0000000   6.0000000   6.0000000   6.0000000   1.0000000   6.0000000   1.0000000   6.0000000

  Atom        41          42          43          44          45          46          47          48          49          50
 IAtWgt=           1           1          16          12           1           1           1          11          16           1
 AtmWgt=   1.0078250   1.0078250  15.9949146  12.0000000   1.0078250   1.0078250   1.0078250  11.0093053  15.9949146   1.0078250
 NucSpn=           1           1           0           0           1           1           1           3           0           1
 AtZEff=   0.0000000   0.0000000   0.0000000   0.0000000   0.0000000   0.0000000   0.0000000   0.0000000   0.0000000   0.0000000
 NQMom=    0.0000000   0.0000000   0.0000000   0.0000000   0.0000000   0.0000000   0.0000000   4.0590000   0.0000000   0.0000000
 NMagM=    2.7928460   2.7928460   0.0000000   0.0000000   2.7928460   2.7928460   2.7928460   2.6886370   0.0000000   2.7928460
 AtZNuc=   1.0000000   1.0000000   8.0000000   6.0000000   1.0000000   1.0000000   1.0000000   5.0000000   8.0000000   1.0000000

  Atom        51          52
 IAtWgt=          16           1
 AtmWgt=  15.9949146   1.0078250
 NucSpn=           0           1
 AtZEff=   0.0000000   0.0000000
 NQMom=    0.0000000   0.0000000
 NMagM=    0.0000000   2.7928460
 AtZNuc=   8.0000000   1.0000000
 Leave Link  101 at Sat Mar 27 02:21:50 2021, MaxMem=  5242880000 cpu:         4.2
 (Enter /opt/nce/packages/global/g09/l103.exe)

 GradGradGradGradGradGradGradGradGradGradGradGradGradGradGradGradGradGrad
 Berny optimization.
 Initialization pass.
                           ----------------------------
                           !    Initial Parameters    !
                           ! (Angstroms and Degrees)  !
 --------------------------                            --------------------------
 ! Name  Definition              Value          Derivative Info.                !
 --------------------------------------------------------------------------------
 ! R1    R(1,2)                  1.3789         estimate D2E/DX2                !
 ! R2    R(1,6)                  1.4172         estimate D2E/DX2                !
 ! R3    R(1,15)                 1.0922         estimate D2E/DX2                !
 ! R4    R(2,3)                  1.4171         estimate D2E/DX2                !
 ! R5    R(2,16)                 1.0877         estimate D2E/DX2                !
 ! R6    R(3,4)                  1.4364         estimate D2E/DX2                !
 ! R7    R(3,22)                 1.3756         estimate D2E/DX2                !
 ! R8    R(4,5)                  1.4296         estimate D2E/DX2                !
 ! R9    R(4,7)                  1.4171         estimate D2E/DX2                !
 ! R10   R(5,6)                  1.3734         estimate D2E/DX2                !
 ! R11   R(5,17)                 1.0888         estimate D2E/DX2                !
 ! R12   R(6,18)                 1.0912         estimate D2E/DX2                !
 ! R13   R(7,8)                  1.4171         estimate D2E/DX2                !
 ! R14   R(7,23)                 1.4816         estimate D2E/DX2                !
 ! R15   R(8,9)                  1.4364         estimate D2E/DX2                !
 ! R16   R(8,14)                 1.4296         estimate D2E/DX2                !
 ! R17   R(9,10)                 1.4171         estimate D2E/DX2                !
 ! R18   R(9,22)                 1.3755         estimate D2E/DX2                !
 ! R19   R(10,11)                1.0877         estimate D2E/DX2                !
 ! R20   R(10,12)                1.3789         estimate D2E/DX2                !
 ! R21   R(12,13)                1.4172         estimate D2E/DX2                !
 ! R22   R(12,19)                1.0922         estimate D2E/DX2                !
 ! R23   R(13,14)                1.3734         estimate D2E/DX2                !
 ! R24   R(13,20)                1.0912         estimate D2E/DX2                !
 ! R25   R(14,21)                1.0888         estimate D2E/DX2                !
 ! R26   R(22,33)                1.449          estimate D2E/DX2                !
 ! R27   R(23,24)                1.406          estimate D2E/DX2                !
 ! R28   R(23,25)                1.4049         estimate D2E/DX2                !
 ! R29   R(24,26)                1.3933         estimate D2E/DX2                !
 ! R30   R(24,31)                1.0924         estimate D2E/DX2                !
 ! R31   R(25,27)                1.3946         estimate D2E/DX2                !
 ! R32   R(25,32)                1.0922         estimate D2E/DX2                !
 ! R33   R(26,28)                1.4072         estimate D2E/DX2                !
 ! R34   R(26,29)                1.0918         estimate D2E/DX2                !
 ! R35   R(27,28)                1.4051         estimate D2E/DX2                !
 ! R36   R(27,30)                1.0942         estimate D2E/DX2                !
 ! R37   R(28,48)                1.5822         estimate D2E/DX2                !
 ! R38   R(33,34)                1.3928         estimate D2E/DX2                !
 ! R39   R(33,35)                1.4002         estimate D2E/DX2                !
 ! R40   R(34,36)                1.3964         estimate D2E/DX2                !
 ! R41   R(34,37)                1.0919         estimate D2E/DX2                !
 ! R42   R(35,38)                1.3874         estimate D2E/DX2                !
 ! R43   R(35,39)                1.0918         estimate D2E/DX2                !
 ! R44   R(36,40)                1.4073         estimate D2E/DX2                !
 ! R45   R(36,41)                1.0889         estimate D2E/DX2                !
 ! R46   R(38,40)                1.4107         estimate D2E/DX2                !
 ! R47   R(38,42)                1.0909         estimate D2E/DX2                !
 ! R48   R(40,43)                1.3397         estimate D2E/DX2                !
 ! R49   R(43,44)                1.418          estimate D2E/DX2                !
 ! R50   R(44,45)                1.0965         estimate D2E/DX2                !
 ! R51   R(44,46)                1.1032         estimate D2E/DX2                !
 ! R52   R(44,47)                1.1033         estimate D2E/DX2                !
 ! R53   R(48,49)                1.3615         estimate D2E/DX2                !
 ! R54   R(48,51)                1.3567         estimate D2E/DX2                !
 ! R55   R(49,50)                0.9632         estimate D2E/DX2                !
 ! R56   R(51,52)                0.9671         estimate D2E/DX2                !
 ! A1    A(2,1,6)              121.2582         estimate D2E/DX2                !
 ! A2    A(2,1,15)             119.1608         estimate D2E/DX2                !
 ! A3    A(6,1,15)             119.5773         estimate D2E/DX2                !
 ! A4    A(1,2,3)              119.8559         estimate D2E/DX2                !
 ! A5    A(1,2,16)             120.4485         estimate D2E/DX2                !
 ! A6    A(3,2,16)             119.695          estimate D2E/DX2                !
 ! A7    A(2,3,4)              119.6956         estimate D2E/DX2                !
 ! A8    A(2,3,22)             120.6421         estimate D2E/DX2                !
 ! A9    A(4,3,22)             119.6597         estimate D2E/DX2                !
 ! A10   A(3,4,5)              118.2775         estimate D2E/DX2                !
 ! A11   A(3,4,7)              119.593          estimate D2E/DX2                !
 ! A12   A(5,4,7)              122.115          estimate D2E/DX2                !
 ! A13   A(4,5,6)              121.0408         estimate D2E/DX2                !
 ! A14   A(4,5,17)             118.5085         estimate D2E/DX2                !
 ! A15   A(6,5,17)             120.4489         estimate D2E/DX2                !
 ! A16   A(1,6,5)              119.8379         estimate D2E/DX2                !
 ! A17   A(1,6,18)             119.8843         estimate D2E/DX2                !
 ! A18   A(5,6,18)             120.2762         estimate D2E/DX2                !
 ! A19   A(4,7,8)              119.3005         estimate D2E/DX2                !
 ! A20   A(4,7,23)             120.3345         estimate D2E/DX2                !
 ! A21   A(8,7,23)             120.365          estimate D2E/DX2                !
 ! A22   A(7,8,9)              119.596          estimate D2E/DX2                !
 ! A23   A(7,8,14)             122.115          estimate D2E/DX2                !
 ! A24   A(9,8,14)             118.2738         estimate D2E/DX2                !
 ! A25   A(8,9,10)             119.6923         estimate D2E/DX2                !
 ! A26   A(8,9,22)             119.657          estimate D2E/DX2                !
 ! A27   A(10,9,22)            120.6483         estimate D2E/DX2                !
 ! A28   A(9,10,11)            119.6925         estimate D2E/DX2                !
 ! A29   A(9,10,12)            119.8563         estimate D2E/DX2                !
 ! A30   A(11,10,12)           120.4507         estimate D2E/DX2                !
 ! A31   A(10,12,13)           121.2569         estimate D2E/DX2                !
 ! A32   A(10,12,19)           119.1608         estimate D2E/DX2                !
 ! A33   A(13,12,19)           119.5783         estimate D2E/DX2                !
 ! A34   A(12,13,14)           119.8359         estimate D2E/DX2                !
 ! A35   A(12,13,20)           119.881          estimate D2E/DX2                !
 ! A36   A(14,13,20)           120.2815         estimate D2E/DX2                !
 ! A37   A(8,14,13)            121.0422         estimate D2E/DX2                !
 ! A38   A(8,14,21)            118.495          estimate D2E/DX2                !
 ! A39   A(13,14,21)           120.4604         estimate D2E/DX2                !
 ! A40   A(3,22,9)             122.1718         estimate D2E/DX2                !
 ! A41   A(3,22,33)            118.9135         estimate D2E/DX2                !
 ! A42   A(9,22,33)            118.9143         estimate D2E/DX2                !
 ! A43   A(7,23,24)            120.361          estimate D2E/DX2                !
 ! A44   A(7,23,25)            120.4295         estimate D2E/DX2                !
 ! A45   A(24,23,25)           119.2095         estimate D2E/DX2                !
 ! A46   A(23,24,26)           120.1156         estimate D2E/DX2                !
 ! A47   A(23,24,31)           119.7234         estimate D2E/DX2                !
 ! A48   A(26,24,31)           120.1488         estimate D2E/DX2                !
 ! A49   A(23,25,27)           119.9138         estimate D2E/DX2                !
 ! A50   A(23,25,32)           119.864          estimate D2E/DX2                !
 ! A51   A(27,25,32)           120.2141         estimate D2E/DX2                !
 ! A52   A(24,26,28)           121.4353         estimate D2E/DX2                !
 ! A53   A(24,26,29)           119.7161         estimate D2E/DX2                !
 ! A54   A(28,26,29)           118.8486         estimate D2E/DX2                !
 ! A55   A(25,27,28)           121.6577         estimate D2E/DX2                !
 ! A56   A(25,27,30)           117.9837         estimate D2E/DX2                !
 ! A57   A(28,27,30)           120.3556         estimate D2E/DX2                !
 ! A58   A(26,28,27)           117.652          estimate D2E/DX2                !
 ! A59   A(26,28,48)           119.4537         estimate D2E/DX2                !
 ! A60   A(27,28,48)           122.8935         estimate D2E/DX2                !
 ! A61   A(22,33,34)           119.7653         estimate D2E/DX2                !
 ! A62   A(22,33,35)           119.5863         estimate D2E/DX2                !
 ! A63   A(34,33,35)           120.6484         estimate D2E/DX2                !
 ! A64   A(33,34,36)           120.0421         estimate D2E/DX2                !
 ! A65   A(33,34,37)           119.9333         estimate D2E/DX2                !
 ! A66   A(36,34,37)           120.0246         estimate D2E/DX2                !
 ! A67   A(33,35,38)           119.5932         estimate D2E/DX2                !
 ! A68   A(33,35,39)           119.9945         estimate D2E/DX2                !
 ! A69   A(38,35,39)           120.4122         estimate D2E/DX2                !
 ! A70   A(34,36,40)           119.8269         estimate D2E/DX2                !
 ! A71   A(34,36,41)           119.1563         estimate D2E/DX2                !
 ! A72   A(40,36,41)           121.0169         estimate D2E/DX2                !
 ! A73   A(35,38,40)           120.4411         estimate D2E/DX2                !
 ! A74   A(35,38,42)           121.2836         estimate D2E/DX2                !
 ! A75   A(40,38,42)           118.2753         estimate D2E/DX2                !
 ! A76   A(36,40,38)           119.4483         estimate D2E/DX2                !
 ! A77   A(36,40,43)           124.5234         estimate D2E/DX2                !
 ! A78   A(38,40,43)           116.0282         estimate D2E/DX2                !
 ! A79   A(40,43,44)           119.8451         estimate D2E/DX2                !
 ! A80   A(43,44,45)           106.2971         estimate D2E/DX2                !
 ! A81   A(43,44,46)           111.346          estimate D2E/DX2                !
 ! A82   A(43,44,47)           111.3447         estimate D2E/DX2                !
 ! A83   A(45,44,46)           109.1964         estimate D2E/DX2                !
 ! A84   A(45,44,47)           109.1954         estimate D2E/DX2                !
 ! A85   A(46,44,47)           109.3815         estimate D2E/DX2                !
 ! A86   A(28,48,49)           124.0021         estimate D2E/DX2                !
 ! A87   A(28,48,51)           116.8259         estimate D2E/DX2                !
 ! A88   A(49,48,51)           119.1716         estimate D2E/DX2                !
 ! A89   A(48,49,50)           116.0243         estimate D2E/DX2                !
 ! A90   A(48,51,52)           112.8824         estimate D2E/DX2                !
 ! D1    D(6,1,2,3)              0.6014         estimate D2E/DX2                !
 ! D2    D(6,1,2,16)          -179.1077         estimate D2E/DX2                !
 ! D3    D(15,1,2,3)           179.9027         estimate D2E/DX2                !
 ! D4    D(15,1,2,16)            0.1936         estimate D2E/DX2                !
 ! D5    D(2,1,6,5)             -0.9047         estimate D2E/DX2                !
 ! D6    D(2,1,6,18)           178.6372         estimate D2E/DX2                !
 ! D7    D(15,1,6,5)           179.7968         estimate D2E/DX2                !
 ! D8    D(15,1,6,18)           -0.6612         estimate D2E/DX2                !
 ! D9    D(1,2,3,4)              0.909          estimate D2E/DX2                !
 ! D10   D(1,2,3,22)          -178.5021         estimate D2E/DX2                !
 ! D11   D(16,2,3,4)          -179.3797         estimate D2E/DX2                !
 ! D12   D(16,2,3,22)            1.2092         estimate D2E/DX2                !
 ! D13   D(2,3,4,5)             -2.0731         estimate D2E/DX2                !
 ! D14   D(2,3,4,7)            179.289          estimate D2E/DX2                !
 ! D15   D(22,3,4,5)           177.3438         estimate D2E/DX2                !
 ! D16   D(22,3,4,7)            -1.2941         estimate D2E/DX2                !
 ! D17   D(2,3,22,9)           179.9861         estimate D2E/DX2                !
 ! D18   D(2,3,22,33)            0.1976         estimate D2E/DX2                !
 ! D19   D(4,3,22,9)             0.5748         estimate D2E/DX2                !
 ! D20   D(4,3,22,33)         -179.2136         estimate D2E/DX2                !
 ! D21   D(3,4,5,6)              1.7977         estimate D2E/DX2                !
 ! D22   D(3,4,5,17)          -177.7241         estimate D2E/DX2                !
 ! D23   D(7,4,5,6)           -179.6007         estimate D2E/DX2                !
 ! D24   D(7,4,5,17)             0.8775         estimate D2E/DX2                !
 ! D25   D(3,4,7,8)              0.61           estimate D2E/DX2                !
 ! D26   D(3,4,7,23)          -179.3098         estimate D2E/DX2                !
 ! D27   D(5,4,7,8)           -177.9737         estimate D2E/DX2                !
 ! D28   D(5,4,7,23)             2.1064         estimate D2E/DX2                !
 ! D29   D(4,5,6,1)             -0.3349         estimate D2E/DX2                !
 ! D30   D(4,5,6,18)          -179.875          estimate D2E/DX2                !
 ! D31   D(17,5,6,1)           179.1778         estimate D2E/DX2                !
 ! D32   D(17,5,6,18)           -0.3624         estimate D2E/DX2                !
 ! D33   D(4,7,8,9)              0.7549         estimate D2E/DX2                !
 ! D34   D(4,7,8,14)          -177.8039         estimate D2E/DX2                !
 ! D35   D(23,7,8,9)          -179.3253         estimate D2E/DX2                !
 ! D36   D(23,7,8,14)            2.116          estimate D2E/DX2                !
 ! D37   D(4,7,23,24)           65.157          estimate D2E/DX2                !
 ! D38   D(4,7,23,25)         -114.939          estimate D2E/DX2                !
 ! D39   D(8,7,23,24)         -114.762          estimate D2E/DX2                !
 ! D40   D(8,7,23,25)           65.142          estimate D2E/DX2                !
 ! D41   D(7,8,9,10)           179.0692         estimate D2E/DX2                !
 ! D42   D(7,8,9,22)            -1.4821         estimate D2E/DX2                !
 ! D43   D(14,8,9,10)           -2.3169         estimate D2E/DX2                !
 ! D44   D(14,8,9,22)          177.1318         estimate D2E/DX2                !
 ! D45   D(7,8,14,13)         -179.4574         estimate D2E/DX2                !
 ! D46   D(7,8,14,21)            1.1162         estimate D2E/DX2                !
 ! D47   D(9,8,14,13)            1.9656         estimate D2E/DX2                !
 ! D48   D(9,8,14,21)         -177.4608         estimate D2E/DX2                !
 ! D49   D(8,9,10,11)         -179.1948         estimate D2E/DX2                !
 ! D50   D(8,9,10,12)            1.0377         estimate D2E/DX2                !
 ! D51   D(22,9,10,11)           1.3622         estimate D2E/DX2                !
 ! D52   D(22,9,10,12)        -178.4053         estimate D2E/DX2                !
 ! D53   D(8,9,22,3)             0.8123         estimate D2E/DX2                !
 ! D54   D(8,9,22,33)         -179.3993         estimate D2E/DX2                !
 ! D55   D(10,9,22,3)         -179.7445         estimate D2E/DX2                !
 ! D56   D(10,9,22,33)           0.044          estimate D2E/DX2                !
 ! D57   D(9,10,12,13)           0.6703         estimate D2E/DX2                !
 ! D58   D(9,10,12,19)         179.9444         estimate D2E/DX2                !
 ! D59   D(11,10,12,13)       -179.0954         estimate D2E/DX2                !
 ! D60   D(11,10,12,19)          0.1787         estimate D2E/DX2                !
 ! D61   D(10,12,13,14)         -1.0528         estimate D2E/DX2                !
 ! D62   D(10,12,13,20)        178.4715         estimate D2E/DX2                !
 ! D63   D(19,12,13,14)        179.6761         estimate D2E/DX2                !
 ! D64   D(19,12,13,20)         -0.7996         estimate D2E/DX2                !
 ! D65   D(12,13,14,8)          -0.31           estimate D2E/DX2                !
 ! D66   D(12,13,14,21)        179.1052         estimate D2E/DX2                !
 ! D67   D(20,13,14,8)        -179.8324         estimate D2E/DX2                !
 ! D68   D(20,13,14,21)         -0.4172         estimate D2E/DX2                !
 ! D69   D(3,22,33,34)         -90.8979         estimate D2E/DX2                !
 ! D70   D(3,22,33,35)          89.0969         estimate D2E/DX2                !
 ! D71   D(9,22,33,34)          89.3067         estimate D2E/DX2                !
 ! D72   D(9,22,33,35)         -90.6986         estimate D2E/DX2                !
 ! D73   D(7,23,24,26)         179.3991         estimate D2E/DX2                !
 ! D74   D(7,23,24,31)           0.6648         estimate D2E/DX2                !
 ! D75   D(25,23,24,26)         -0.5061         estimate D2E/DX2                !
 ! D76   D(25,23,24,31)       -179.2404         estimate D2E/DX2                !
 ! D77   D(7,23,25,27)         179.4412         estimate D2E/DX2                !
 ! D78   D(7,23,25,32)           0.4751         estimate D2E/DX2                !
 ! D79   D(24,23,25,27)         -0.6537         estimate D2E/DX2                !
 ! D80   D(24,23,25,32)       -179.6198         estimate D2E/DX2                !
 ! D81   D(23,24,26,28)          1.2846         estimate D2E/DX2                !
 ! D82   D(23,24,26,29)       -178.7001         estimate D2E/DX2                !
 ! D83   D(31,24,26,28)       -179.9865         estimate D2E/DX2                !
 ! D84   D(31,24,26,29)          0.0287         estimate D2E/DX2                !
 ! D85   D(23,25,27,28)          1.0801         estimate D2E/DX2                !
 ! D86   D(23,25,27,30)       -179.538          estimate D2E/DX2                !
 ! D87   D(32,25,27,28)       -179.9575         estimate D2E/DX2                !
 ! D88   D(32,25,27,30)         -0.5755         estimate D2E/DX2                !
 ! D89   D(24,26,28,27)         -0.8633         estimate D2E/DX2                !
 ! D90   D(24,26,28,48)        179.4535         estimate D2E/DX2                !
 ! D91   D(29,26,28,27)        179.1215         estimate D2E/DX2                !
 ! D92   D(29,26,28,48)         -0.5617         estimate D2E/DX2                !
 ! D93   D(25,27,28,26)         -0.3236         estimate D2E/DX2                !
 ! D94   D(25,27,28,48)        179.3479         estimate D2E/DX2                !
 ! D95   D(30,27,28,26)       -179.6911         estimate D2E/DX2                !
 ! D96   D(30,27,28,48)         -0.0196         estimate D2E/DX2                !
 ! D97   D(26,28,48,49)       -170.5528         estimate D2E/DX2                !
 ! D98   D(26,28,48,51)          9.2385         estimate D2E/DX2                !
 ! D99   D(27,28,48,49)          9.7814         estimate D2E/DX2                !
 ! D100  D(27,28,48,51)       -170.4273         estimate D2E/DX2                !
 ! D101  D(22,33,34,36)        179.9844         estimate D2E/DX2                !
 ! D102  D(22,33,34,37)         -0.0042         estimate D2E/DX2                !
 ! D103  D(35,33,34,36)         -0.0103         estimate D2E/DX2                !
 ! D104  D(35,33,34,37)       -179.9989         estimate D2E/DX2                !
 ! D105  D(22,33,35,38)        179.9953         estimate D2E/DX2                !
 ! D106  D(22,33,35,39)          0.0014         estimate D2E/DX2                !
 ! D107  D(34,33,35,38)         -0.01           estimate D2E/DX2                !
 ! D108  D(34,33,35,39)        179.9961         estimate D2E/DX2                !
 ! D109  D(33,34,36,40)          0.019          estimate D2E/DX2                !
 ! D110  D(33,34,36,41)       -179.9852         estimate D2E/DX2                !
 ! D111  D(37,34,36,40)       -179.9925         estimate D2E/DX2                !
 ! D112  D(37,34,36,41)          0.0034         estimate D2E/DX2                !
 ! D113  D(33,35,38,40)          0.0216         estimate D2E/DX2                !
 ! D114  D(33,35,38,42)       -179.9807         estimate D2E/DX2                !
 ! D115  D(39,35,38,40)       -179.9846         estimate D2E/DX2                !
 ! D116  D(39,35,38,42)          0.0131         estimate D2E/DX2                !
 ! D117  D(34,36,40,38)         -0.0075         estimate D2E/DX2                !
 ! D118  D(34,36,40,43)        179.9929         estimate D2E/DX2                !
 ! D119  D(41,36,40,38)        179.9967         estimate D2E/DX2                !
 ! D120  D(41,36,40,43)         -0.0028         estimate D2E/DX2                !
 ! D121  D(35,38,40,36)         -0.0129         estimate D2E/DX2                !
 ! D122  D(35,38,40,43)        179.9867         estimate D2E/DX2                !
 ! D123  D(42,38,40,36)        179.9893         estimate D2E/DX2                !
 ! D124  D(42,38,40,43)         -0.0111         estimate D2E/DX2                !
 ! D125  D(36,40,43,44)         -0.014          estimate D2E/DX2                !
 ! D126  D(38,40,43,44)        179.9865         estimate D2E/DX2                !
 ! D127  D(40,43,44,45)       -179.974          estimate D2E/DX2                !
 ! D128  D(40,43,44,46)        -61.1537         estimate D2E/DX2                !
 ! D129  D(40,43,44,47)         61.2078         estimate D2E/DX2                !
 ! D130  D(28,48,49,50)          3.1375         estimate D2E/DX2                !
 ! D131  D(51,48,49,50)       -176.6492         estimate D2E/DX2                !
 ! D132  D(28,48,51,52)       -179.2829         estimate D2E/DX2                !
 ! D133  D(49,48,51,52)          0.519          estimate D2E/DX2                !
 --------------------------------------------------------------------------------
 Trust Radius=3.00D-01 FncErr=1.00D-07 GrdErr=1.00D-06
 Number of steps in this run=    289 maximum allowed number of steps=    312.
 GradGradGradGradGradGradGradGradGradGradGradGradGradGradGradGradGradGrad

 Leave Link  103 at Sat Mar 27 02:21:50 2021, MaxMem=  5242880000 cpu:         0.2
 (Enter /opt/nce/packages/global/g09/l202.exe)
 Symmetry turned off by external request.
 Stoichiometry    C26H21BNO3(1+)
 Framework group  C1[X(C26H21BNO3)]
 Deg. of freedom   150
 Full point group                 C1      NOp   1
                          Input orientation:                          
 ---------------------------------------------------------------------
 Center     Atomic      Atomic             Coordinates (Angstroms)
 Number     Number       Type             X           Y           Z
 ---------------------------------------------------------------------
      1          6           0        1.008417    3.616309    0.230145
      2          6           0        1.693915    2.421541    0.165999
      3          6           0        0.978257    1.199724    0.110369
      4          6           0       -0.457982    1.216106    0.101470
      5          6           0       -1.121459    2.478905    0.195189
      6          6           0       -0.408122    3.650983    0.254565
      7          6           0       -1.171353   -0.006275    0.030527
      8          6           0       -0.452876   -1.226755   -0.017382
      9          6           0        0.982776   -1.206851    0.023066
     10          6           0        1.702782   -2.427113   -0.004753
     11          1           0        2.789488   -2.412610    0.039136
     12          6           0        1.022802   -3.623554   -0.092009
     13          6           0       -0.391773   -3.661476   -0.169265
     14          6           0       -1.109509   -2.491054   -0.135917
     15          1           0        1.571388    4.551151    0.274222
     16          1           0        2.781525    2.409578    0.162519
     17          1           0       -2.209729    2.493097    0.226696
     18          1           0       -0.927373    4.607923    0.327987
     19          1           0        1.589107   -4.557172   -0.113553
     20          1           0       -0.905629   -4.619577   -0.262796
     21          1           0       -2.195749   -2.507396   -0.209167
     22          7           0        1.645512   -0.002730    0.076946
     23          6           0       -2.652764   -0.007739    0.004929
     24          6           0       -3.345304    0.553433   -1.082441
     25          6           0       -3.382170   -0.571260    1.065152
     26          6           0       -4.738252    0.538107   -1.107107
     27          6           0       -4.776351   -0.556380    1.035448
     28          6           0       -5.485104   -0.007699   -0.046635
     29          1           0       -5.268996    0.956588   -1.964543
     30          1           0       -5.312659   -0.997111    1.881305
     31          1           0       -2.786491    0.982705   -1.917132
     32          1           0       -2.855189   -1.004520    1.918049
     33          6           0        3.094272   -0.001001    0.103913
     34          6           0        3.808090    0.026910   -1.091785
     35          6           0        3.762858   -0.027342    1.333904
     36          6           0        5.204306    0.029057   -1.072533
     37          1           0        3.274781    0.047303   -2.044376
     38          6           0        5.150035   -0.025790    1.359891
     39          1           0        3.192655   -0.049031    2.264732
     40          6           0        5.887402    0.002553    0.157543
     41          1           0        5.747859    0.051287   -2.015860
     42          1           0        5.698971   -0.046232    2.302379
     43          8           0        7.221008    0.001992    0.285608
     44          6           0        8.041008    0.029158   -0.870938
     45          1           0        9.077596    0.022498   -0.513414
     46          1           0        7.870320   -0.857297   -1.505146
     47          1           0        7.867901    0.942852   -1.464553
     48          5           0       -7.065593    0.011143   -0.117629
     49          8           0       -7.878494   -0.317985    0.923774
     50          1           0       -7.437626   -0.528303    1.753947
     51          8           0       -7.621056    0.385407   -1.297490
     52          1           0       -8.587848    0.387372   -1.274120
 ---------------------------------------------------------------------
 Rotational constants (GHZ):      0.3732122      0.0645964      0.0579064
 Leave Link  202 at Sat Mar 27 02:21:50 2021, MaxMem=  5242880000 cpu:         0.1
 (Enter /opt/nce/packages/global/g09/l301.exe)
 Standard basis: def2TZVP (5D, 7F)
 Ernie: Thresh=  0.10000D-02 Tol=  0.10000D-05 Strict=F.
  1087 basis functions,  1749 primitive gaussians,  1242 cartesian basis functions
   106 alpha electrons      106 beta electrons
       nuclear repulsion energy      2746.3167137600 Hartrees.
 IExCor= 1009 DFT=T Ex=PBE Corr=PBE ExCW=0 ScaHFX=  0.000000
 ScaDFX=  1.000000  1.000000  1.000000  1.000000 ScalE2=  1.000000  1.000000
 IRadAn=      5 IRanWt=     -1 IRanGd=            0 ICorTp=0 IEmpDi=141
 NAtoms=   52 NActive=   52 NUniq=   52 SFac= 1.00D+00 NAtFMM=   60 NAOKFM=F Big=F
 Integral buffers will be    131072 words long.
 Raffenetti 2 integral format.
 Two-electron integral symmetry is turned off.
 R6Disp:  Grimme-D3(BJ) Dispersion energy=       -0.0772071624 Hartrees.
 Nuclear repulsion after empirical dispersion term =     2746.2395065976 Hartrees.
 ------------------------------------------------------------------------------
 Polarizable Continuum Model (PCM)
 =================================
 Model                : PCM (using non-symmetric T matrix).
 Atomic radii         : SMD-Coulomb.
 Polarization charges : Total charges.
 Charge compensation  : None.
 Solution method      : On-the-fly selection.
 Cavity type          : VdW (van der Waals Surface) (Alpha=1.000).
 Cavity algorithm     : GePol (No added spheres)
                        Default sphere list used, NSphG=   52.
                        Lebedev-Laikov grids with approx.  5.0 points / Ang**2.
                        Smoothing algorithm: York/Karplus (Gamma=1.0000).
                        Polarization charges: spherical gaussians, with
                                              point-specific exponents (IZeta= 3).
                        Self-potential: point-specific (ISelfS= 7).
                        Self-field    : sphere-specific E.n sum rule (ISelfD= 2).
 1st derivatives      : Analytical E(r).r(x)/FMM algorithm (CHGder, D1EAlg=3).
                        Cavity 1st derivative terms included.
 Solvent              : Acetonitrile, Eps=  35.688000 Eps(inf)=   1.806874
 ------------------------------------------------------------------------------
 GePol: Number of generator spheres                  =      52
 GePol: Total number of spheres                      =      52
 GePol: Number of exposed spheres                    =      50 ( 96.15%)
 GePol: Number of points                             =    3872
 GePol: Average weight of points                     =       0.12
 GePol: Minimum weight of points                     =   0.75D-10
 GePol: Maximum weight of points                     =    0.21559
 GePol: Number of points with low weight             =     226
 GePol: Fraction of low-weight points (<1% of avg)   =       5.84%
 GePol: Cavity surface area                          =    447.070 Ang**2
 GePol: Cavity volume                                =    444.260 Ang**3
 ------------------------------------------------------------------------------
 Atomic radii for non-electrostatic terms: SMD-CDS.
 ------------------------------------------------------------------------------
 PCM non-electrostatic energy =        -0.0087421316 Hartrees.
 Nuclear repulsion after PCM non-electrostatic terms =     2746.2307644660 Hartrees.
 Leave Link  301 at Sat Mar 27 02:21:51 2021, MaxMem=  5242880000 cpu:         8.3
 (Enter /opt/nce/packages/global/g09/l302.exe)
 NPDir=0 NMtPBC=     1 NCelOv=     1 NCel=       1 NClECP=     1 NCelD=      1
         NCelK=      1 NCelE2=     1 NClLst=     1 CellRange=     0.0.
 One-electron integrals computed using PRISM.
   1 Symmetry operations used in ECPInt.
 ECPInt:  NShTT=   90525 NPrTT=  279376 LenC2=   69916 LenP2D=  147791.
 LDataN:  DoStor=T MaxTD1= 6 Len=  172
 NBasis=  1087 RedAO= T EigKep=  5.22D-06  NBF=  1087
 NBsUse=  1087 1.00D-06 EigRej= -1.00D+00 NBFU=  1087
 Precomputing XC quadrature grid using
 IXCGrd= 4 IRadAn=           5 IRanWt=          -1 IRanGd=           0 AccXCQ= 0.00D+00.
 Generated NRdTot=       0 NPtTot=           0 NUsed=           0 NTot=          32
 NSgBfM=  1132  1132  1132  1132  1132 MxSgAt=    52 MxSgA2=    52.
 Leave Link  302 at Sat Mar 27 02:21:54 2021, MaxMem=  5242880000 cpu:        32.5
 (Enter /opt/nce/packages/global/g09/l303.exe)
 DipDrv:  MaxL=1.
 Leave Link  303 at Sat Mar 27 02:21:54 2021, MaxMem=  5242880000 cpu:         3.0
 (Enter /opt/nce/packages/global/g09/l401.exe)
 ExpMin= 6.06D-02 ExpMax= 2.70D+04 ExpMxC= 9.22D+02 IAcc=3 IRadAn=         5 AccDes= 0.00D+00
 Harris functional with IExCor= 1009 and IRadAn=       5 diagonalized for initial guess.
 HarFok:  IExCor= 1009 AccDes= 0.00D+00 IRadAn=         5 IDoV= 1 UseB2=F ITyADJ=14
 ICtDFT=  3500011 ScaDFX=  1.000000  1.000000  1.000000  1.000000
 FoFCou: FMM=F IPFlag=           0 FMFlag=      100000 FMFlg1=           0
         NFxFlg=           0 DoJE=T BraDBF=F KetDBF=T FulRan=T
         wScrn=  0.000000 ICntrl=     500 IOpCl=  0 I1Cent=   200000004 NGrid=           0
         NMat0=    1 NMatS0=      1 NMatT0=    0 NMatD0=    1 NMtDS0=    0 NMtDT0=    0
 Symmetry not used in FoFCou.
 Harris En= -1308.00476604686    
 JPrj=0 DoOrth=F DoCkMO=F.
 Leave Link  401 at Sat Mar 27 02:22:05 2021, MaxMem=  5242880000 cpu:       129.2
 (Enter /opt/nce/packages/global/g09/l502.exe)
 Closed shell SCF:
 Using DIIS extrapolation, IDIIS=  1040.
 Two-electron integral symmetry not used.
 IVT=     4668702 IEndB=     4668702 NGot=  5242880000 MDV=  5239771745
 LenX=  5239771745 LenY=  5238227939
 Requested convergence on RMS density matrix=1.00D-08 within 128 cycles.
 Requested convergence on MAX density matrix=1.00D-06.
 Requested convergence on             energy=1.00D-06.
 No special actions if energy rises.
 Fock matrices will be formed incrementally for  20 cycles.

 Cycle   1  Pass 1  IDiag  1:
 FoFJK:  IHMeth= 1 ICntrl=     500 DoSepK=F KAlg= 0 I1Cent=   0 FoldK=F
 IRaf= 660000000 NMat=   1 IRICut=       1 DoRegI=T DoRafI=F ISym2E= 0.
 FoFCou: FMM=F IPFlag=           0 FMFlag=      100000 FMFlg1=           0
         NFxFlg=           0 DoJE=T BraDBF=F KetDBF=F FulRan=T
         wScrn=  0.000000 ICntrl=     500 IOpCl=  0 I1Cent=           0 NGrid=           0
         NMat0=    1 NMatS0=      1 NMatT0=    0 NMatD0=    1 NMtDS0=    0 NMtDT0=    0
 Symmetry not used in FoFCou.
 Inv3:  Mode=1 IEnd=    44977152.
 Iteration    1 A*A^-1 deviation from unit magnitude is 6.44D-15 for   3864.
 Iteration    1 A*A^-1 deviation from orthogonality  is 2.33D-15 for   2513   2175.
 Iteration    1 A^-1*A deviation from unit magnitude is 6.44D-15 for   3864.
 Iteration    1 A^-1*A deviation from orthogonality  is 6.42D-10 for   3080   3021.
 Iteration    2 A*A^-1 deviation from unit magnitude is 2.66D-15 for      5.
 Iteration    2 A*A^-1 deviation from orthogonality  is 2.66D-15 for   2666    746.
 Iteration    2 A^-1*A deviation from unit magnitude is 9.99D-16 for    227.
 Iteration    2 A^-1*A deviation from orthogonality  is 4.44D-16 for   3257   1002.
 E= -1307.06895029049    
 DIIS: error= 1.55D-02 at cycle   1 NSaved=   1.
 NSaved= 1 IEnMin= 1 EnMin= -1307.06895029049     IErMin= 1 ErrMin= 1.55D-02
 ErrMax= 1.55D-02  0.00D+00 EMaxC= 1.00D-01 BMatC= 6.05D-01 BMatP= 6.05D-01
 IDIUse=3 WtCom= 8.45D-01 WtEn= 1.55D-01
 Coeff-Com:  0.100D+01
 Coeff-En:   0.100D+01
 Coeff:      0.100D+01
 Gap=     0.052 Goal=   None    Shift=    0.000
 GapD=    0.052 DampG=0.500 DampE=0.500 DampFc=0.2500 IDamp=-1.
 Damping current iteration by 2.50D-01
 RMSDP=3.68D-03 MaxDP=7.10D-01              OVMax= 4.66D-01

 Cycle   2  Pass 1  IDiag  1:
 RMSU=  9.20D-04    CP:  1.01D+00
 E= -1307.26006663201     Delta-E=       -0.191116341520 Rises=F Damp=T
 DIIS: error= 6.96D-03 at cycle   2 NSaved=   2.
 NSaved= 2 IEnMin= 2 EnMin= -1307.26006663201     IErMin= 2 ErrMin= 6.96D-03
 ErrMax= 6.96D-03  0.00D+00 EMaxC= 1.00D-01 BMatC= 1.14D-01 BMatP= 6.05D-01
 IDIUse=3 WtCom= 9.30D-01 WtEn= 6.96D-02
 Coeff-Com: -0.446D+00 0.145D+01
 Coeff-En:   0.000D+00 0.100D+01
 Coeff:     -0.415D+00 0.141D+01
 Gap=     0.155 Goal=   None    Shift=    0.000
 RMSDP=8.75D-04 MaxDP=1.12D-01 DE=-1.91D-01 OVMax= 5.88D-01

 Cycle   3  Pass 1  IDiag  1:
 RMSU=  8.17D-04    CP:  9.86D-01  1.31D+00
 E= -1307.48586540100     Delta-E=       -0.225798768988 Rises=F Damp=F
 DIIS: error= 1.64D-02 at cycle   3 NSaved=   3.
 NSaved= 3 IEnMin= 3 EnMin= -1307.48586540100     IErMin= 2 ErrMin= 6.96D-03
 ErrMax= 1.64D-02  0.00D+00 EMaxC= 1.00D-01 BMatC= 1.27D-01 BMatP= 1.14D-01
 IDIUse=2 WtCom= 0.00D+00 WtEn= 1.00D+00
 Coeff-En:   0.000D+00 0.000D+00 0.100D+01
 Coeff:      0.000D+00 0.000D+00 0.100D+01
 Gap=     0.060 Goal=   None    Shift=    0.000
 RMSDP=1.08D-03 MaxDP=1.64D-01 DE=-2.26D-01 OVMax= 4.48D-01

 Cycle   4  Pass 1  IDiag  1:
 RMSU=  8.61D-04    CP:  9.97D-01  1.45D+00  2.25D-01
 E= -1306.58105442535     Delta-E=        0.904810975651 Rises=F Damp=F
 DIIS: error= 3.74D-02 at cycle   4 NSaved=   4.
 NSaved= 4 IEnMin= 3 EnMin= -1307.48586540100     IErMin= 2 ErrMin= 6.96D-03
 ErrMax= 3.74D-02  0.00D+00 EMaxC= 1.00D-01 BMatC= 9.97D-01 BMatP= 1.14D-01
 IDIUse=2 WtCom= 0.00D+00 WtEn= 1.00D+00
 Coeff-En:   0.000D+00 0.000D+00 0.818D+00 0.182D+00
 Coeff:      0.000D+00 0.000D+00 0.818D+00 0.182D+00
 Gap=     0.061 Goal=   None    Shift=    0.000
 RMSDP=5.89D-04 MaxDP=8.16D-02 DE= 9.05D-01 OVMax= 3.73D-01

 Cycle   5  Pass 1  IDiag  1:
 RMSU=  1.94D-04    CP:  9.92D-01  1.17D+00  4.78D-01  4.79D-01
 E= -1307.53270411997     Delta-E=       -0.951649694621 Rises=F Damp=F
 DIIS: error= 1.06D-02 at cycle   5 NSaved=   5.
 NSaved= 5 IEnMin= 5 EnMin= -1307.53270411997     IErMin= 2 ErrMin= 6.96D-03
 ErrMax= 1.06D-02  0.00D+00 EMaxC= 1.00D-01 BMatC= 8.96D-02 BMatP= 1.14D-01
 IDIUse=3 WtCom= 8.94D-01 WtEn= 1.06D-01
 Coeff-Com: -0.552D-01 0.153D+00 0.398D+00-0.436D-01 0.548D+00
 Coeff-En:   0.000D+00 0.000D+00 0.430D+00 0.000D+00 0.570D+00
 Coeff:     -0.494D-01 0.137D+00 0.401D+00-0.390D-01 0.550D+00
 Gap=     0.063 Goal=   None    Shift=    0.000
 RMSDP=2.99D-04 MaxDP=4.31D-02 DE=-9.52D-01 OVMax= 1.67D-01

 Cycle   6  Pass 1  IDiag  1:
 RMSU=  8.31D-05    CP:  9.92D-01  1.24D+00  7.23D-01  2.75D-01  5.58D-01
 E= -1307.62495549531     Delta-E=       -0.092251375334 Rises=F Damp=F
 DIIS: error= 1.29D-03 at cycle   6 NSaved=   6.
 NSaved= 6 IEnMin= 6 EnMin= -1307.62495549531     IErMin= 6 ErrMin= 1.29D-03
 ErrMax= 1.29D-03  0.00D+00 EMaxC= 1.00D-01 BMatC= 2.41D-03 BMatP= 8.96D-02
 IDIUse=3 WtCom= 9.87D-01 WtEn= 1.29D-02
 Coeff-Com: -0.244D-01 0.501D-01 0.188D+00-0.558D-01 0.375D+00 0.467D+00
 Coeff-En:   0.000D+00 0.000D+00 0.000D+00 0.000D+00 0.000D+00 0.100D+01
 Coeff:     -0.241D-01 0.494D-01 0.185D+00-0.551D-01 0.370D+00 0.474D+00
 Gap=     0.068 Goal=   None    Shift=    0.000
 RMSDP=8.09D-05 MaxDP=1.70D-02 DE=-9.23D-02 OVMax= 1.40D-02

 Cycle   7  Pass 1  IDiag  1:
 RMSU=  2.37D-05    CP:  9.90D-01  1.20D+00  6.95D-01  2.61D-01  7.14D-01
                    CP:  3.74D-01
 E= -1307.62704934462     Delta-E=       -0.002093849318 Rises=F Damp=F
 DIIS: error= 3.41D-04 at cycle   7 NSaved=   7.
 NSaved= 7 IEnMin= 7 EnMin= -1307.62704934462     IErMin= 7 ErrMin= 3.41D-04
 ErrMax= 3.41D-04  0.00D+00 EMaxC= 1.00D-01 BMatC= 1.44D-04 BMatP= 2.41D-03
 IDIUse=3 WtCom= 9.97D-01 WtEn= 3.41D-03
 Coeff-Com: -0.112D-01 0.226D-01 0.670D-01-0.221D-01 0.129D+00 0.243D+00
 Coeff-Com:  0.572D+00
 Coeff-En:   0.000D+00 0.000D+00 0.000D+00 0.000D+00 0.000D+00 0.000D+00
 Coeff-En:   0.100D+01
 Coeff:     -0.112D-01 0.225D-01 0.667D-01-0.220D-01 0.128D+00 0.242D+00
 Coeff:      0.574D+00
 Gap=     0.067 Goal=   None    Shift=    0.000
 RMSDP=2.89D-05 MaxDP=6.06D-03 DE=-2.09D-03 OVMax= 8.99D-03

 Cycle   8  Pass 1  IDiag  1:
 RMSU=  1.24D-05    CP:  9.91D-01  1.22D+00  7.04D-01  2.62D-01  6.82D-01
                    CP:  5.37D-01  6.02D-01
 E= -1307.62711398904     Delta-E=       -0.000064644414 Rises=F Damp=F
 DIIS: error= 3.66D-04 at cycle   8 NSaved=   8.
 NSaved= 8 IEnMin= 8 EnMin= -1307.62711398904     IErMin= 7 ErrMin= 3.41D-04
 ErrMax= 3.66D-04  0.00D+00 EMaxC= 1.00D-01 BMatC= 6.83D-05 BMatP= 1.44D-04
 IDIUse=3 WtCom= 9.97D-01 WtEn= 3.41D-03
 Coeff-Com: -0.104D-02 0.238D-02 0.915D-02-0.237D-02 0.801D-02 0.795D-01
 Coeff-Com:  0.456D+00 0.448D+00
 Coeff-En:   0.000D+00 0.000D+00 0.000D+00 0.000D+00 0.000D+00 0.000D+00
 Coeff-En:   0.369D+00 0.631D+00
 Coeff:     -0.104D-02 0.237D-02 0.912D-02-0.237D-02 0.799D-02 0.792D-01
 Coeff:      0.456D+00 0.449D+00
 Gap=     0.067 Goal=   None    Shift=    0.000
 RMSDP=1.24D-05 MaxDP=2.28D-03 DE=-6.46D-05 OVMax= 3.71D-03

 Cycle   9  Pass 1  IDiag  1:
 RMSU=  4.12D-06    CP:  9.90D-01  1.21D+00  7.03D-01  2.61D-01  6.92D-01
                    CP:  4.77D-01  7.81D-01  5.19D-01
 E= -1307.62718317355     Delta-E=       -0.000069184516 Rises=F Damp=F
 DIIS: error= 5.25D-05 at cycle   9 NSaved=   9.
 NSaved= 9 IEnMin= 9 EnMin= -1307.62718317355     IErMin= 9 ErrMin= 5.25D-05
 ErrMax= 5.25D-05  0.00D+00 EMaxC= 1.00D-01 BMatC= 3.53D-06 BMatP= 6.83D-05
 IDIUse=1 WtCom= 1.00D+00 WtEn= 0.00D+00
 Coeff-Com:  0.122D-03-0.138D-04 0.299D-02-0.295D-03-0.130D-02 0.401D-01
 Coeff-Com:  0.267D+00 0.294D+00 0.398D+00
 Coeff:      0.122D-03-0.138D-04 0.299D-02-0.295D-03-0.130D-02 0.401D-01
 Coeff:      0.267D+00 0.294D+00 0.398D+00
 Gap=     0.067 Goal=   None    Shift=    0.000
 RMSDP=2.04D-06 MaxDP=1.82D-04 DE=-6.92D-05 OVMax= 6.19D-04

 Cycle  10  Pass 1  IDiag  1:
 RMSU=  1.21D-06    CP:  9.90D-01  1.21D+00  7.03D-01  2.61D-01  6.89D-01
                    CP:  4.84D-01  7.75D-01  5.51D-01  6.71D-01
 E= -1307.62718653238     Delta-E=       -0.000003358828 Rises=F Damp=F
 DIIS: error= 1.53D-05 at cycle  10 NSaved=  10.
 NSaved=10 IEnMin=10 EnMin= -1307.62718653238     IErMin=10 ErrMin= 1.53D-05
 ErrMax= 1.53D-05  0.00D+00 EMaxC= 1.00D-01 BMatC= 2.24D-07 BMatP= 3.53D-06
 IDIUse=1 WtCom= 1.00D+00 WtEn= 0.00D+00
 Coeff-Com:  0.196D-03-0.240D-03 0.123D-02 0.272D-04-0.157D-02 0.191D-01
 Coeff-Com:  0.130D+00 0.150D+00 0.251D+00 0.450D+00
 Coeff:      0.196D-03-0.240D-03 0.123D-02 0.272D-04-0.157D-02 0.191D-01
 Coeff:      0.130D+00 0.150D+00 0.251D+00 0.450D+00
 Gap=     0.067 Goal=   None    Shift=    0.000
 RMSDP=9.29D-07 MaxDP=1.94D-04 DE=-3.36D-06 OVMax= 2.12D-04

 Cycle  11  Pass 1  IDiag  1:
 RMSU=  5.12D-07    CP:  9.90D-01  1.21D+00  7.04D-01  2.61D-01  6.88D-01
                    CP:  4.87D-01  7.73D-01  5.50D-01  6.77D-01  7.57D-01
 E= -1307.62718673023     Delta-E=       -0.000000197849 Rises=F Damp=F
 DIIS: error= 4.77D-06 at cycle  11 NSaved=  11.
 NSaved=11 IEnMin=11 EnMin= -1307.62718673023     IErMin=11 ErrMin= 4.77D-06
 ErrMax= 4.77D-06  0.00D+00 EMaxC= 1.00D-01 BMatC= 3.46D-08 BMatP= 2.24D-07
 IDIUse=1 WtCom= 1.00D+00 WtEn= 0.00D+00
 Coeff-Com:  0.516D-04-0.105D-04 0.336D-03 0.363D-04-0.101D-02 0.692D-02
 Coeff-Com:  0.472D-01 0.570D-01 0.108D+00 0.298D+00 0.484D+00
 Coeff:      0.516D-04-0.105D-04 0.336D-03 0.363D-04-0.101D-02 0.692D-02
 Coeff:      0.472D-01 0.570D-01 0.108D+00 0.298D+00 0.484D+00
 Gap=     0.067 Goal=   None    Shift=    0.000
 RMSDP=3.72D-07 MaxDP=8.09D-05 DE=-1.98D-07 OVMax= 7.20D-05

 Cycle  12  Pass 1  IDiag  1:
 RMSU=  1.13D-07    CP:  9.90D-01  1.21D+00  7.04D-01  2.61D-01  6.89D-01
                    CP:  4.86D-01  7.76D-01  5.53D-01  6.79D-01  8.01D-01
                    CP:  6.69D-01
 E= -1307.62718676601     Delta-E=       -0.000000035783 Rises=F Damp=F
 DIIS: error= 8.56D-07 at cycle  12 NSaved=  12.
 NSaved=12 IEnMin=12 EnMin= -1307.62718676601     IErMin=12 ErrMin= 8.56D-07
 ErrMax= 8.56D-07  0.00D+00 EMaxC= 1.00D-01 BMatC= 1.59D-09 BMatP= 3.46D-08
 IDIUse=1 WtCom= 1.00D+00 WtEn= 0.00D+00
 Coeff-Com:  0.213D-04-0.137D-05 0.113D-03 0.191D-04-0.417D-03 0.245D-02
 Coeff-Com:  0.162D-01 0.201D-01 0.398D-01 0.130D+00 0.269D+00 0.523D+00
 Coeff:      0.213D-04-0.137D-05 0.113D-03 0.191D-04-0.417D-03 0.245D-02
 Coeff:      0.162D-01 0.201D-01 0.398D-01 0.130D+00 0.269D+00 0.523D+00
 Gap=     0.067 Goal=   None    Shift=    0.000
 RMSDP=9.27D-08 MaxDP=1.99D-05 DE=-3.58D-08 OVMax= 1.36D-05

 Cycle  13  Pass 1  IDiag  1:
 RMSU=  3.56D-08    CP:  9.90D-01  1.21D+00  7.04D-01  2.61D-01  6.88D-01
                    CP:  4.86D-01  7.75D-01  5.53D-01  6.82D-01  7.98D-01
                    CP:  7.16D-01  7.70D-01
 E= -1307.62718676714     Delta-E=       -0.000000001131 Rises=F Damp=F
 DIIS: error= 4.03D-07 at cycle  13 NSaved=  13.
 NSaved=13 IEnMin=13 EnMin= -1307.62718676714     IErMin=13 ErrMin= 4.03D-07
 ErrMax= 4.03D-07  0.00D+00 EMaxC= 1.00D-01 BMatC= 2.74D-10 BMatP= 1.59D-09
 IDIUse=1 WtCom= 1.00D+00 WtEn= 0.00D+00
 Coeff-Com:  0.903D-05-0.694D-05 0.219D-04 0.680D-05-0.105D-03 0.511D-03
 Coeff-Com:  0.305D-02 0.397D-02 0.862D-02 0.366D-01 0.948D-01 0.331D+00
 Coeff-Com:  0.522D+00
 Coeff:      0.903D-05-0.694D-05 0.219D-04 0.680D-05-0.105D-03 0.511D-03
 Coeff:      0.305D-02 0.397D-02 0.862D-02 0.366D-01 0.948D-01 0.331D+00
 Coeff:      0.522D+00
 Gap=     0.067 Goal=   None    Shift=    0.000
 RMSDP=2.65D-08 MaxDP=4.80D-06 DE=-1.13D-09 OVMax= 4.81D-06

 Cycle  14  Pass 1  IDiag  1:
 RMSU=  1.20D-08    CP:  9.90D-01  1.21D+00  7.04D-01  2.61D-01  6.88D-01
                    CP:  4.86D-01  7.75D-01  5.53D-01  6.83D-01  8.02D-01
                    CP:  7.10D-01  8.21D-01  6.67D-01
 E= -1307.62718676739     Delta-E=       -0.000000000246 Rises=F Damp=F
 DIIS: error= 1.67D-07 at cycle  14 NSaved=  14.
 NSaved=14 IEnMin=14 EnMin= -1307.62718676739     IErMin=14 ErrMin= 1.67D-07
 ErrMax= 1.67D-07  0.00D+00 EMaxC= 1.00D-01 BMatC= 2.95D-11 BMatP= 2.74D-10
 IDIUse=1 WtCom= 1.00D+00 WtEn= 0.00D+00
 Coeff-Com:  0.412D-05-0.462D-05 0.712D-05 0.242D-05-0.297D-04 0.142D-03
 Coeff-Com:  0.717D-03 0.980D-03 0.243D-02 0.134D-01 0.397D-01 0.170D+00
 Coeff-Com:  0.327D+00 0.446D+00
 Coeff:      0.412D-05-0.462D-05 0.712D-05 0.242D-05-0.297D-04 0.142D-03
 Coeff:      0.717D-03 0.980D-03 0.243D-02 0.134D-01 0.397D-01 0.170D+00
 Coeff:      0.327D+00 0.446D+00
 Gap=     0.067 Goal=   None    Shift=    0.000
 RMSDP=8.11D-09 MaxDP=1.60D-06 DE=-2.46D-10 OVMax= 1.60D-06

 Cycle  15  Pass 1  IDiag  1:
 RMSU=  3.94D-09    CP:  9.90D-01  1.21D+00  7.04D-01  2.61D-01  6.88D-01
                    CP:  4.86D-01  7.75D-01  5.53D-01  6.83D-01  8.03D-01
                    CP:  7.15D-01  8.15D-01  7.15D-01  7.94D-01
 E= -1307.62718676739     Delta-E=        0.000000000002 Rises=F Damp=F
 DIIS: error= 5.70D-08 at cycle  15 NSaved=  15.
 NSaved=15 IEnMin=14 EnMin= -1307.62718676739     IErMin=15 ErrMin= 5.70D-08
 ErrMax= 5.70D-08  0.00D+00 EMaxC= 1.00D-01 BMatC= 2.65D-12 BMatP= 2.95D-11
 IDIUse=1 WtCom= 1.00D+00 WtEn= 0.00D+00
 Coeff-Com:  0.415D-06-0.703D-06-0.109D-05 0.300D-06-0.105D-05-0.946D-05
 Coeff-Com: -0.110D-03-0.117D-03-0.462D-04 0.163D-02 0.756D-02 0.434D-01
 Coeff-Com:  0.104D+00 0.258D+00 0.585D+00
 Coeff:      0.415D-06-0.703D-06-0.109D-05 0.300D-06-0.105D-05-0.946D-05
 Coeff:     -0.110D-03-0.117D-03-0.462D-04 0.163D-02 0.756D-02 0.434D-01
 Coeff:      0.104D+00 0.258D+00 0.585D+00
 Gap=     0.067 Goal=   None    Shift=    0.000
 RMSDP=3.20D-09 MaxDP=6.36D-07 DE= 1.82D-12 OVMax= 4.09D-07

 Error on total polarization charges =  0.05422
 SCF Done:  E(RPBE-PBE) =  -1307.62718677     A.U. after   15 cycles
            NFock= 15  Conv=0.32D-08     -V/T= 2.0047
 KE= 1.301456223529D+03 PE=-8.513169721777D+03 EE= 3.157855547015D+03
 SMD-CDS (non-electrostatic) energy       (kcal/mol) =      -5.49
 (included in total energy above)
 Leave Link  502 at Sat Mar 27 02:36:37 2021, MaxMem=  5242880000 cpu:     10402.7
 (Enter /opt/nce/packages/global/g09/l601.exe)
 Copying SCF densities to generalized density rwf, IOpCl= 0 IROHF=0.

 **********************************************************************

            Population analysis using the SCF density.

 **********************************************************************

 Alpha  occ. eigenvalues --  -18.79390 -18.76216 -18.75942 -14.09073  -9.97120
 Alpha  occ. eigenvalues --   -9.97117  -9.95719  -9.95252  -9.93749  -9.93515
 Alpha  occ. eigenvalues --   -9.93513  -9.92743  -9.91787  -9.91309  -9.91307
 Alpha  occ. eigenvalues --   -9.91045  -9.91043  -9.90934  -9.90932  -9.90480
 Alpha  occ. eigenvalues --   -9.90479  -9.90476  -9.90432  -9.90028  -9.89947
 Alpha  occ. eigenvalues --   -9.89779  -9.89627  -9.89551  -9.89462  -9.88471
 Alpha  occ. eigenvalues --   -6.53204  -0.99521  -0.95256  -0.94707  -0.92178
 Alpha  occ. eigenvalues --   -0.82183  -0.80855  -0.79305  -0.78328  -0.75645
 Alpha  occ. eigenvalues --   -0.71992  -0.71003  -0.70203  -0.69368  -0.68759
 Alpha  occ. eigenvalues --   -0.68409  -0.67769  -0.64229  -0.62110  -0.60526
 Alpha  occ. eigenvalues --   -0.59189  -0.56844  -0.55970  -0.55576  -0.55199
 Alpha  occ. eigenvalues --   -0.53048  -0.52221  -0.51463  -0.51049  -0.50188
 Alpha  occ. eigenvalues --   -0.49479  -0.48439  -0.47058  -0.45928  -0.45007
 Alpha  occ. eigenvalues --   -0.43505  -0.43342  -0.43083  -0.42151  -0.41910
 Alpha  occ. eigenvalues --   -0.40925  -0.40618  -0.40481  -0.40270  -0.39995
 Alpha  occ. eigenvalues --   -0.39615  -0.38759  -0.38027  -0.37776  -0.37147
 Alpha  occ. eigenvalues --   -0.36466  -0.35754  -0.35650  -0.35033  -0.34848
 Alpha  occ. eigenvalues --   -0.34344  -0.33663  -0.33338  -0.32481  -0.32398
 Alpha  occ. eigenvalues --   -0.32310  -0.31683  -0.31256  -0.30760  -0.29460
 Alpha  occ. eigenvalues --   -0.29396  -0.28864  -0.28090  -0.28014  -0.26286
 Alpha  occ. eigenvalues --   -0.25449  -0.24493  -0.24188  -0.24053  -0.22132
 Alpha  occ. eigenvalues --   -0.20925
 Alpha virt. eigenvalues --   -0.14192  -0.07966  -0.07475  -0.06629  -0.05267
 Alpha virt. eigenvalues --   -0.04831  -0.04623  -0.04468  -0.01108   0.00425
 Alpha virt. eigenvalues --    0.02327   0.02929   0.03147   0.03551   0.03938
 Alpha virt. eigenvalues --    0.04216   0.04364   0.04850   0.05603   0.06296
 Alpha virt. eigenvalues --    0.06371   0.06921   0.07055   0.07168   0.07421
 Alpha virt. eigenvalues --    0.08037   0.08268   0.08832   0.09082   0.09495
 Alpha virt. eigenvalues --    0.09629   0.09846   0.10391   0.10504   0.10633
 Alpha virt. eigenvalues --    0.11102   0.11585   0.11907   0.12046   0.13382
 Alpha virt. eigenvalues --    0.13585   0.14396   0.14592   0.14821   0.15004
 Alpha virt. eigenvalues --    0.15491   0.15748   0.16396   0.16970   0.17397
 Alpha virt. eigenvalues --    0.17800   0.17989   0.18215   0.18471   0.18570
 Alpha virt. eigenvalues --    0.18993   0.19163   0.19287   0.19661   0.19758
 Alpha virt. eigenvalues --    0.20113   0.20514   0.20615   0.20720   0.20976
 Alpha virt. eigenvalues --    0.21533   0.22067   0.22281   0.22456   0.22920
 Alpha virt. eigenvalues --    0.23249   0.23625   0.23894   0.24452   0.24665
 Alpha virt. eigenvalues --    0.24777   0.25091   0.25405   0.25621   0.26063
 Alpha virt. eigenvalues --    0.26506   0.26826   0.27320   0.27650   0.27711
 Alpha virt. eigenvalues --    0.27889   0.28484   0.28712   0.29275   0.29864
 Alpha virt. eigenvalues --    0.29879   0.30294   0.30667   0.30750   0.31127
 Alpha virt. eigenvalues --    0.31181   0.31420   0.31595   0.32783   0.33044
 Alpha virt. eigenvalues --    0.33303   0.33496   0.33576   0.33763   0.34168
 Alpha virt. eigenvalues --    0.34679   0.35157   0.35238   0.35528   0.36356
 Alpha virt. eigenvalues --    0.36654   0.36872   0.37210   0.37393   0.37911
 Alpha virt. eigenvalues --    0.38348   0.38430   0.38868   0.39024   0.39404
 Alpha virt. eigenvalues --    0.39557   0.39672   0.40041   0.40072   0.40518
 Alpha virt. eigenvalues --    0.40716   0.40831   0.41134   0.41593   0.41910
 Alpha virt. eigenvalues --    0.42265   0.42487   0.42927   0.42972   0.43342
 Alpha virt. eigenvalues --    0.43529   0.43639   0.44326   0.44602   0.44689
 Alpha virt. eigenvalues --    0.45061   0.45389   0.45716   0.46075   0.46613
 Alpha virt. eigenvalues --    0.46871   0.46988   0.47384   0.47548   0.47996
 Alpha virt. eigenvalues --    0.48243   0.48595   0.49083   0.49604   0.50681
 Alpha virt. eigenvalues --    0.51687   0.52040   0.52379   0.52505   0.52586
 Alpha virt. eigenvalues --    0.52885   0.54025   0.54331   0.54849   0.55383
 Alpha virt. eigenvalues --    0.55539   0.55925   0.56611   0.57322   0.57514
 Alpha virt. eigenvalues --    0.57846   0.57936   0.58208   0.59108   0.59275
 Alpha virt. eigenvalues --    0.59705   0.59970   0.60229   0.60771   0.61264
 Alpha virt. eigenvalues --    0.61319   0.61712   0.61940   0.62092   0.62356
 Alpha virt. eigenvalues --    0.62962   0.63361   0.63715   0.64017   0.64379
 Alpha virt. eigenvalues --    0.64659   0.64823   0.65029   0.65459   0.65955
 Alpha virt. eigenvalues --    0.66169   0.66688   0.66785   0.68009   0.68305
 Alpha virt. eigenvalues --    0.68698   0.68919   0.69594   0.69988   0.70275
 Alpha virt. eigenvalues --    0.70580   0.70913   0.71012   0.71588   0.71688
 Alpha virt. eigenvalues --    0.72104   0.72401   0.73083   0.73973   0.74205
 Alpha virt. eigenvalues --    0.75080   0.75476   0.75760   0.76401   0.76866
 Alpha virt. eigenvalues --    0.77001   0.77587   0.78172   0.78627   0.79216
 Alpha virt. eigenvalues --    0.80184   0.80337   0.80632   0.81022   0.81498
 Alpha virt. eigenvalues --    0.81644   0.81995   0.82482   0.82555   0.82896
 Alpha virt. eigenvalues --    0.83962   0.84181   0.84419   0.85019   0.85352
 Alpha virt. eigenvalues --    0.85765   0.86489   0.87155   0.88495   0.88928
 Alpha virt. eigenvalues --    0.89229   0.89710   0.90264   0.90499   0.91218
 Alpha virt. eigenvalues --    0.91835   0.92841   0.93357   0.93788   0.94144
 Alpha virt. eigenvalues --    0.94947   0.95570   0.95814   0.96993   0.97847
 Alpha virt. eigenvalues --    0.98529   0.98918   0.99665   1.00042   1.00610
 Alpha virt. eigenvalues --    1.00907   1.01207   1.01678   1.02061   1.02621
 Alpha virt. eigenvalues --    1.02837   1.03604   1.03870   1.04356   1.04767
 Alpha virt. eigenvalues --    1.05076   1.06021   1.06595   1.07701   1.07944
 Alpha virt. eigenvalues --    1.08527   1.09262   1.09737   1.10449   1.11289
 Alpha virt. eigenvalues --    1.11679   1.11821   1.12877   1.13495   1.14806
 Alpha virt. eigenvalues --    1.15462   1.15996   1.16317   1.16807   1.17054
 Alpha virt. eigenvalues --    1.17902   1.18076   1.18306   1.18661   1.19021
 Alpha virt. eigenvalues --    1.20091   1.20237   1.21108   1.21655   1.22239
 Alpha virt. eigenvalues --    1.22482   1.23193   1.23367   1.23643   1.24229
 Alpha virt. eigenvalues --    1.24725   1.25350   1.25617   1.26191   1.26451
 Alpha virt. eigenvalues --    1.27352   1.27783   1.28502   1.29458   1.29708
 Alpha virt. eigenvalues --    1.30424   1.31579   1.31727   1.32591   1.33354
 Alpha virt. eigenvalues --    1.34090   1.35143   1.35453   1.36004   1.36015
 Alpha virt. eigenvalues --    1.36715   1.37027   1.37321   1.38044   1.40115
 Alpha virt. eigenvalues --    1.41012   1.41256   1.41971   1.42606   1.42823
 Alpha virt. eigenvalues --    1.43783   1.44062   1.44566   1.44949   1.45194
 Alpha virt. eigenvalues --    1.45511   1.45740   1.46141   1.46556   1.46768
 Alpha virt. eigenvalues --    1.47409   1.47878   1.48088   1.48563   1.48761
 Alpha virt. eigenvalues --    1.50102   1.50316   1.50487   1.50846   1.50904
 Alpha virt. eigenvalues --    1.51608   1.51845   1.52604   1.52846   1.52925
 Alpha virt. eigenvalues --    1.53381   1.54555   1.54817   1.55353   1.55566
 Alpha virt. eigenvalues --    1.56271   1.56890   1.57352   1.57757   1.58098
 Alpha virt. eigenvalues --    1.58766   1.59261   1.59586   1.60164   1.60294
 Alpha virt. eigenvalues --    1.60748   1.61412   1.62043   1.62562   1.63076
 Alpha virt. eigenvalues --    1.63234   1.63751   1.64393   1.64752   1.65490
 Alpha virt. eigenvalues --    1.65768   1.66143   1.66811   1.67102   1.67764
 Alpha virt. eigenvalues --    1.67915   1.68690   1.69053   1.69386   1.69875
 Alpha virt. eigenvalues --    1.70297   1.70883   1.71441   1.72578   1.73126
 Alpha virt. eigenvalues --    1.73599   1.74677   1.75277   1.75877   1.76151
 Alpha virt. eigenvalues --    1.77680   1.78407   1.78848   1.79418   1.79848
 Alpha virt. eigenvalues --    1.80927   1.81127   1.81611   1.82368   1.82406
 Alpha virt. eigenvalues --    1.82866   1.83371   1.84120   1.84977   1.85641
 Alpha virt. eigenvalues --    1.86915   1.87087   1.87455   1.87610   1.88874
 Alpha virt. eigenvalues --    1.89339   1.89771   1.91130   1.92238   1.92502
 Alpha virt. eigenvalues --    1.93416   1.93751   1.95041   1.96762   1.97087
 Alpha virt. eigenvalues --    1.97247   1.98297   1.98494   1.98757   1.99519
 Alpha virt. eigenvalues --    1.99778   2.00402   2.00419   2.01683   2.02480
 Alpha virt. eigenvalues --    2.03255   2.03337   2.03662   2.04033   2.04856
 Alpha virt. eigenvalues --    2.05980   2.07103   2.07932   2.08273   2.08622
 Alpha virt. eigenvalues --    2.08962   2.09471   2.09642   2.10705   2.11391
 Alpha virt. eigenvalues --    2.12339   2.12836   2.13729   2.13984   2.14730
 Alpha virt. eigenvalues --    2.15533   2.16198   2.16997   2.17176   2.18068
 Alpha virt. eigenvalues --    2.18524   2.19474   2.19948   2.20352   2.20413
 Alpha virt. eigenvalues --    2.21505   2.22241   2.22766   2.23699   2.24422
 Alpha virt. eigenvalues --    2.25201   2.25684   2.26276   2.26964   2.27553
 Alpha virt. eigenvalues --    2.29038   2.29879   2.30848   2.31252   2.32355
 Alpha virt. eigenvalues --    2.32735   2.33024   2.33781   2.34320   2.34504
 Alpha virt. eigenvalues --    2.36414   2.37157   2.38162   2.38334   2.40304
 Alpha virt. eigenvalues --    2.40391   2.41011   2.41627   2.41889   2.43033
 Alpha virt. eigenvalues --    2.43483   2.45124   2.45364   2.45985   2.46388
 Alpha virt. eigenvalues --    2.46781   2.47583   2.47863   2.48474   2.48802
 Alpha virt. eigenvalues --    2.49737   2.50393   2.50886   2.51314   2.51943
 Alpha virt. eigenvalues --    2.52233   2.52913   2.53466   2.53932   2.54055
 Alpha virt. eigenvalues --    2.55149   2.55200   2.55708   2.56083   2.56777
 Alpha virt. eigenvalues --    2.57465   2.57961   2.58438   2.58630   2.59002
 Alpha virt. eigenvalues --    2.59436   2.59879   2.60330   2.61344   2.61410
 Alpha virt. eigenvalues --    2.61555   2.61903   2.62555   2.62799   2.63044
 Alpha virt. eigenvalues --    2.63782   2.63997   2.64474   2.64989   2.65543
 Alpha virt. eigenvalues --    2.66310   2.66544   2.67146   2.67307   2.67645
 Alpha virt. eigenvalues --    2.68004   2.68247   2.68924   2.69165   2.69585
 Alpha virt. eigenvalues --    2.69742   2.70549   2.71281   2.71556   2.71820
 Alpha virt. eigenvalues --    2.72517   2.73216   2.73387   2.73994   2.74285
 Alpha virt. eigenvalues --    2.74720   2.74853   2.75463   2.76036   2.76174
 Alpha virt. eigenvalues --    2.76550   2.76989   2.77780   2.77930   2.79114
 Alpha virt. eigenvalues --    2.79168   2.79723   2.80469   2.80588   2.80940
 Alpha virt. eigenvalues --    2.82393   2.82804   2.82999   2.83411   2.84107
 Alpha virt. eigenvalues --    2.84296   2.84957   2.85288   2.86177   2.86942
 Alpha virt. eigenvalues --    2.87487   2.88109   2.88319   2.88948   2.89263
 Alpha virt. eigenvalues --    2.89991   2.90229   2.90869   2.91548   2.92346
 Alpha virt. eigenvalues --    2.92852   2.93430   2.93837   2.94403   2.95073
 Alpha virt. eigenvalues --    2.95456   2.95845   2.97406   2.97671   2.98125
 Alpha virt. eigenvalues --    2.98486   2.98805   2.99458   2.99563   3.00048
 Alpha virt. eigenvalues --    3.00467   3.00783   3.02452   3.03152   3.03448
 Alpha virt. eigenvalues --    3.03734   3.04027   3.04115   3.05133   3.05245
 Alpha virt. eigenvalues --    3.05823   3.05942   3.06281   3.07321   3.07685
 Alpha virt. eigenvalues --    3.07943   3.08015   3.08848   3.09336   3.09981
 Alpha virt. eigenvalues --    3.10604   3.10907   3.11389   3.11704   3.12187
 Alpha virt. eigenvalues --    3.13029   3.13276   3.13759   3.14683   3.14901
 Alpha virt. eigenvalues --    3.15370   3.15578   3.16139   3.16445   3.16791
 Alpha virt. eigenvalues --    3.17655   3.17911   3.18675   3.19503   3.20264
 Alpha virt. eigenvalues --    3.20325   3.20621   3.21124   3.21420   3.22321
 Alpha virt. eigenvalues --    3.22933   3.23089   3.23327   3.23965   3.24612
 Alpha virt. eigenvalues --    3.24888   3.25317   3.25587   3.26286   3.26731
 Alpha virt. eigenvalues --    3.27242   3.27346   3.27869   3.28133   3.28546
 Alpha virt. eigenvalues --    3.28815   3.29168   3.29847   3.30267   3.30759
 Alpha virt. eigenvalues --    3.31690   3.32128   3.32686   3.32980   3.33450
 Alpha virt. eigenvalues --    3.34064   3.34156   3.34737   3.35619   3.35797
 Alpha virt. eigenvalues --    3.36235   3.36712   3.37077   3.37455   3.38071
 Alpha virt. eigenvalues --    3.38086   3.38493   3.38941   3.39201   3.39660
 Alpha virt. eigenvalues --    3.39877   3.40711   3.41038   3.41282   3.41699
 Alpha virt. eigenvalues --    3.42346   3.42948   3.43506   3.43756   3.44384
 Alpha virt. eigenvalues --    3.44724   3.44973   3.45296   3.45858   3.46377
 Alpha virt. eigenvalues --    3.46583   3.47580   3.48324   3.49143   3.49625
 Alpha virt. eigenvalues --    3.50109   3.50397   3.51204   3.51954   3.52163
 Alpha virt. eigenvalues --    3.53490   3.54514   3.55731   3.56307   3.57122
 Alpha virt. eigenvalues --    3.57839   3.58410   3.59262   3.60166   3.60927
 Alpha virt. eigenvalues --    3.62250   3.63286   3.63603   3.64654   3.65074
 Alpha virt. eigenvalues --    3.66977   3.68305   3.68980   3.69590   3.70836
 Alpha virt. eigenvalues --    3.71684   3.72614   3.74022   3.75015   3.75817
 Alpha virt. eigenvalues --    3.76905   3.77272   3.79079   3.80123   3.80190
 Alpha virt. eigenvalues --    3.80729   3.81809   3.82063   3.84825   3.85564
 Alpha virt. eigenvalues --    3.85922   3.86370   3.87144   3.88714   3.88923
 Alpha virt. eigenvalues --    3.90021   3.90582   3.91221   3.91881   3.92718
 Alpha virt. eigenvalues --    3.94124   3.94219   3.95187   3.96221   3.96902
 Alpha virt. eigenvalues --    3.97215   3.98806   3.99220   3.99420   4.00631
 Alpha virt. eigenvalues --    4.01787   4.02422   4.03902   4.04477   4.04915
 Alpha virt. eigenvalues --    4.05551   4.05790   4.06127   4.07512   4.07901
 Alpha virt. eigenvalues --    4.08504   4.08900   4.09676   4.10714   4.10998
 Alpha virt. eigenvalues --    4.11560   4.11933   4.12138   4.12754   4.12905
 Alpha virt. eigenvalues --    4.13836   4.13997   4.14886   4.15250   4.16292
 Alpha virt. eigenvalues --    4.16529   4.17584   4.18243   4.18539   4.19149
 Alpha virt. eigenvalues --    4.19770   4.21178   4.22316   4.23628   4.24294
 Alpha virt. eigenvalues --    4.25062   4.26112   4.27999   4.28537   4.31216
 Alpha virt. eigenvalues --    4.31761   4.33075   4.33898   4.35269   4.37551
 Alpha virt. eigenvalues --    4.38233   4.39468   4.41755   4.42689   4.44680
 Alpha virt. eigenvalues --    4.45072   4.45452   4.47815   4.47879   4.48584
 Alpha virt. eigenvalues --    4.51095   4.52073   4.52847   4.53566   4.55203
 Alpha virt. eigenvalues --    4.55331   4.56178   4.58036   4.61230   4.61822
 Alpha virt. eigenvalues --    4.64745   4.67261   4.67588   4.68556   4.70278
 Alpha virt. eigenvalues --    4.71764   4.73430   4.75148   4.75800   4.77099
 Alpha virt. eigenvalues --    4.77514   4.80734   4.81715   4.83787   4.85729
 Alpha virt. eigenvalues --    4.85918   4.86973   4.88394   4.89973   4.90824
 Alpha virt. eigenvalues --    4.92227   4.93692   4.94980   4.98068   5.00041
 Alpha virt. eigenvalues --    5.01837   5.03829   5.05864   5.06261   5.08236
 Alpha virt. eigenvalues --    5.09578   5.11511   5.12572   5.13225   5.14026
 Alpha virt. eigenvalues --    5.16077   5.17094   5.18314   5.20267   5.22044
 Alpha virt. eigenvalues --    5.23321   5.24616   5.25669   5.27748   5.28812
 Alpha virt. eigenvalues --    5.31692   5.32501   5.34949   5.36032   5.37019
 Alpha virt. eigenvalues --    5.38034   5.43149   5.43546   5.44072   5.44821
 Alpha virt. eigenvalues --    5.47950   5.48677   5.49347   5.52644   5.58397
 Alpha virt. eigenvalues --    5.61865   5.62188   5.63355   5.64597   5.65720
 Alpha virt. eigenvalues --    5.67564   5.69549   5.70965   5.72239   5.81342
 Alpha virt. eigenvalues --    5.89348   5.91386   5.98194   6.12039   6.17692
 Alpha virt. eigenvalues --    6.20374   6.24077   6.25681   6.28781   6.30614
 Alpha virt. eigenvalues --    6.36106   6.43516   6.49607   6.54510   6.60575
 Alpha virt. eigenvalues --    6.61661   6.63153   6.64646   6.72893   6.73572
 Alpha virt. eigenvalues --    6.82236   7.03624   7.10401   7.22718   7.28524
 Alpha virt. eigenvalues --   16.01131  21.96921  22.04544  22.08311  22.16240
 Alpha virt. eigenvalues --   22.20044  22.34245  22.34598  22.37025  22.38386
 Alpha virt. eigenvalues --   22.39427  22.41625  22.43611  22.45652  22.50235
 Alpha virt. eigenvalues --   22.50473  22.55474  22.62388  22.64946  22.66375
 Alpha virt. eigenvalues --   22.71489  22.81893  22.89778  23.01876  23.05303
 Alpha virt. eigenvalues --   23.10456  23.43100  32.97885  43.14187  43.23094
 Alpha virt. eigenvalues --   43.83366
          Condensed to atoms (all electrons):
 Mulliken charges:
               1
     1  C   -0.119945
     2  C   -0.168537
     3  C    0.077817
     4  C    0.116334
     5  C   -0.221271
     6  C   -0.127600
     7  C    0.227698
     8  C    0.115833
     9  C    0.077861
    10  C   -0.168753
    11  H    0.170167
    12  C   -0.119727
    13  C   -0.127738
    14  C   -0.221758
    15  H    0.161029
    16  H    0.170082
    17  H    0.172443
    18  H    0.157177
    19  H    0.161048
    20  H    0.157178
    21  H    0.172918
    22  N    0.336181
    23  C    0.037943
    24  C   -0.231207
    25  C   -0.247964
    26  C   -0.181454
    27  C   -0.243866
    28  C    0.075387
    29  H    0.139829
    30  H    0.131439
    31  H    0.147437
    32  H    0.149389
    33  C    0.001670
    34  C   -0.207651
    35  C   -0.186717
    36  C   -0.241115
    37  H    0.151356
    38  C   -0.199470
    39  H    0.146013
    40  C    0.320310
    41  H    0.158021
    42  H    0.133188
    43  O   -0.193834
    44  C   -0.257407
    45  H    0.163795
[...]
 Alpha virt. eigenvalues --    0.46874   0.46967   0.47277   0.47647   0.47993
 Alpha virt. eigenvalues --    0.48264   0.48560   0.48995   0.49574   0.50800
 Alpha virt. eigenvalues --    0.51519   0.52001   0.52344   0.52496   0.52579
 Alpha virt. eigenvalues --    0.52824   0.54130   0.54337   0.54919   0.55444
 Alpha virt. eigenvalues --    0.55519   0.55925   0.56645   0.57308   0.57593
 Alpha virt. eigenvalues --    0.57856   0.58101   0.58242   0.59084   0.59404
 Alpha virt. eigenvalues --    0.59747   0.59976   0.60322   0.60687   0.61237
 Alpha virt. eigenvalues --    0.61281   0.61724   0.61967   0.62231   0.62370
 Alpha virt. eigenvalues --    0.62862   0.63439   0.63683   0.64041   0.64309
 Alpha virt. eigenvalues --    0.64674   0.64731   0.65135   0.65485   0.65874
 Alpha virt. eigenvalues --    0.66206   0.66620   0.66856   0.67947   0.68208
 Alpha virt. eigenvalues --    0.68727   0.68961   0.69577   0.69999   0.70274
 Alpha virt. eigenvalues --    0.70683   0.70893   0.71084   0.71606   0.71820
 Alpha virt. eigenvalues --    0.72125   0.72312   0.73145   0.73907   0.74127
 Alpha virt. eigenvalues --    0.75190   0.75476   0.75761   0.76394   0.76839
 Alpha virt. eigenvalues --    0.76872   0.77593   0.78011   0.78585   0.79169
 Alpha virt. eigenvalues --    0.80235   0.80341   0.80689   0.81344   0.81491
 Alpha virt. eigenvalues --    0.81701   0.81907   0.82496   0.82613   0.82958
 Alpha virt. eigenvalues --    0.84002   0.84149   0.84336   0.85024   0.85210
 Alpha virt. eigenvalues --    0.85658   0.86468   0.86961   0.88357   0.88910
 Alpha virt. eigenvalues --    0.89230   0.89659   0.90198   0.90705   0.91162
 Alpha virt. eigenvalues --    0.91715   0.92556   0.93416   0.93743   0.94303
 Alpha virt. eigenvalues --    0.95071   0.95490   0.95715   0.96991   0.97806
 Alpha virt. eigenvalues --    0.98517   0.98926   0.99661   0.99958   1.00728
 Alpha virt. eigenvalues --    1.01072   1.01289   1.01761   1.01937   1.02597
 Alpha virt. eigenvalues --    1.02837   1.03522   1.03891   1.04387   1.04630
 Alpha virt. eigenvalues --    1.05313   1.05718   1.06551   1.07722   1.07934
 Alpha virt. eigenvalues --    1.08804   1.09438   1.09828   1.10376   1.11304
 Alpha virt. eigenvalues --    1.11693   1.11840   1.12824   1.13571   1.14763
 Alpha virt. eigenvalues --    1.15522   1.16101   1.16520   1.16907   1.17088
 Alpha virt. eigenvalues --    1.17896   1.18094   1.18589   1.19041   1.19185
 Alpha virt. eigenvalues --    1.20166   1.20309   1.21403   1.21644   1.22362
 Alpha virt. eigenvalues --    1.22556   1.23097   1.23362   1.23640   1.24200
 Alpha virt. eigenvalues --    1.24728   1.25356   1.25673   1.26322   1.26486
 Alpha virt. eigenvalues --    1.27499   1.27947   1.28675   1.29572   1.29741
 Alpha virt. eigenvalues --    1.30379   1.31552   1.31861   1.32371   1.33061
 Alpha virt. eigenvalues --    1.34156   1.35168   1.35473   1.36001   1.36046
 Alpha virt. eigenvalues --    1.36798   1.36852   1.37310   1.37972   1.40148
 Alpha virt. eigenvalues --    1.41056   1.41346   1.41946   1.42485   1.42811
 Alpha virt. eigenvalues --    1.43820   1.44134   1.44588   1.44994   1.45187
 Alpha virt. eigenvalues --    1.45525   1.45780   1.46320   1.46738   1.46912
 Alpha virt. eigenvalues --    1.47509   1.47940   1.48219   1.48538   1.48909
 Alpha virt. eigenvalues --    1.50141   1.50455   1.50625   1.50792   1.50878
 Alpha virt. eigenvalues --    1.51701   1.51918   1.52635   1.52826   1.52986
 Alpha virt. eigenvalues --    1.53343   1.54624   1.54728   1.55315   1.55504
 Alpha virt. eigenvalues --    1.56358   1.56811   1.57178   1.57751   1.58002
 Alpha virt. eigenvalues --    1.58970   1.59368   1.59533   1.60101   1.60403
 Alpha virt. eigenvalues --    1.60715   1.61499   1.62064   1.62645   1.63010
 Alpha virt. eigenvalues --    1.63380   1.64011   1.64214   1.64836   1.65413
 Alpha virt. eigenvalues --    1.65901   1.66346   1.66796   1.67355   1.67844
 Alpha virt. eigenvalues --    1.67993   1.68750   1.69029   1.69620   1.69895
 Alpha virt. eigenvalues --    1.70319   1.70751   1.71548   1.72709   1.73166
 Alpha virt. eigenvalues --    1.73780   1.74550   1.75258   1.75749   1.76131
 Alpha virt. eigenvalues --    1.77736   1.78197   1.78900   1.79394   1.79933
 Alpha virt. eigenvalues --    1.80974   1.81157   1.81642   1.82302   1.82499
 Alpha virt. eigenvalues --    1.83010   1.83607   1.84044   1.84942   1.85482
 Alpha virt. eigenvalues --    1.86682   1.87328   1.87604   1.87696   1.89155
 Alpha virt. eigenvalues --    1.89420   1.89806   1.91304   1.92390   1.92683
 Alpha virt. eigenvalues --    1.93582   1.93775   1.95162   1.96798   1.97018
 Alpha virt. eigenvalues --    1.97211   1.98296   1.98404   1.98773   1.99439
 Alpha virt. eigenvalues --    1.99653   2.00295   2.00389   2.01431   2.02389
 Alpha virt. eigenvalues --    2.03078   2.03445   2.03773   2.03884   2.04848
 Alpha virt. eigenvalues --    2.06068   2.07207   2.08045   2.08308   2.08817
 Alpha virt. eigenvalues --    2.09089   2.09500   2.09793   2.10662   2.11209
 Alpha virt. eigenvalues --    2.12185   2.13145   2.13451   2.13992   2.14874
 Alpha virt. eigenvalues --    2.15615   2.16269   2.16749   2.17155   2.17652
 Alpha virt. eigenvalues --    2.18747   2.19414   2.19868   2.20325   2.20454
 Alpha virt. eigenvalues --    2.21474   2.22173   2.22519   2.23798   2.24377
 Alpha virt. eigenvalues --    2.25315   2.25402   2.26483   2.26790   2.27581
 Alpha virt. eigenvalues --    2.28730   2.29732   2.30641   2.31346   2.32339
 Alpha virt. eigenvalues --    2.32713   2.33006   2.33877   2.34163   2.34446
 Alpha virt. eigenvalues --    2.36119   2.36759   2.38116   2.38254   2.39395
 Alpha virt. eigenvalues --    2.40161   2.40805   2.41343   2.41855   2.42706
 Alpha virt. eigenvalues --    2.43087   2.44901   2.45262   2.46125   2.46571
 Alpha virt. eigenvalues --    2.46720   2.47706   2.47861   2.48482   2.48756
 Alpha virt. eigenvalues --    2.49647   2.50330   2.51007   2.51415   2.52107
 Alpha virt. eigenvalues --    2.52421   2.53006   2.53534   2.53776   2.54017
 Alpha virt. eigenvalues --    2.54830   2.55153   2.55561   2.56167   2.56564
 Alpha virt. eigenvalues --    2.57504   2.57703   2.58297   2.58576   2.58887
 Alpha virt. eigenvalues --    2.59605   2.59852   2.60293   2.61351   2.61482
 Alpha virt. eigenvalues --    2.61806   2.62056   2.62586   2.62852   2.63093
 Alpha virt. eigenvalues --    2.63721   2.63910   2.64421   2.65090   2.65445
 Alpha virt. eigenvalues --    2.66343   2.66480   2.67155   2.67299   2.67698
 Alpha virt. eigenvalues --    2.68089   2.68286   2.68950   2.69229   2.69531
 Alpha virt. eigenvalues --    2.69816   2.70528   2.71310   2.71493   2.71788
 Alpha virt. eigenvalues --    2.72323   2.72846   2.73352   2.74168   2.74350
 Alpha virt. eigenvalues --    2.74683   2.75043   2.75366   2.76090   2.76233
 Alpha virt. eigenvalues --    2.76655   2.77126   2.77727   2.77954   2.78718
 Alpha virt. eigenvalues --    2.79129   2.79819   2.80588   2.80765   2.81004
 Alpha virt. eigenvalues --    2.81640   2.82676   2.82990   2.83398   2.84205
 Alpha virt. eigenvalues --    2.84413   2.85173   2.85204   2.85866   2.86817
 Alpha virt. eigenvalues --    2.87543   2.87968   2.88265   2.88817   2.89069
 Alpha virt. eigenvalues --    2.89913   2.90323   2.90765   2.91466   2.92305
 Alpha virt. eigenvalues --    2.92906   2.93354   2.94078   2.94451   2.95023
 Alpha virt. eigenvalues --    2.95359   2.95677   2.97087   2.97611   2.98104
 Alpha virt. eigenvalues --    2.98433   2.98918   2.99478   2.99511   2.99899
 Alpha virt. eigenvalues --    3.00458   3.00780   3.02594   3.03214   3.03550
 Alpha virt. eigenvalues --    3.03681   3.04020   3.04122   3.05027   3.05227
 Alpha virt. eigenvalues --    3.05690   3.05813   3.06364   3.07386   3.07662
 Alpha virt. eigenvalues --    3.07842   3.07971   3.08720   3.09395   3.09978
 Alpha virt. eigenvalues --    3.10686   3.10864   3.11622   3.11934   3.12200
 Alpha virt. eigenvalues --    3.12880   3.13159   3.13317   3.14493   3.15069
 Alpha virt. eigenvalues --    3.15374   3.15477   3.15728   3.16424   3.16818
 Alpha virt. eigenvalues --    3.17761   3.17856   3.18665   3.19475   3.20400
 Alpha virt. eigenvalues --    3.20615   3.20738   3.21275   3.21436   3.22427
 Alpha virt. eigenvalues --    3.23074   3.23218   3.23467   3.23825   3.24682
 Alpha virt. eigenvalues --    3.25040   3.25462   3.25760   3.26385   3.26904
 Alpha virt. eigenvalues --    3.27271   3.27378   3.27980   3.28171   3.28691
 Alpha virt. eigenvalues --    3.28978   3.29334   3.30011   3.30333   3.30910
 Alpha virt. eigenvalues --    3.31914   3.32226   3.32595   3.33093   3.33487
 Alpha virt. eigenvalues --    3.34201   3.34223   3.34888   3.35671   3.35916
 Alpha virt. eigenvalues --    3.36279   3.36389   3.36880   3.37353   3.37797
 Alpha virt. eigenvalues --    3.37868   3.38491   3.39068   3.39293   3.39616
 Alpha virt. eigenvalues --    3.39856   3.40747   3.41006   3.41128   3.41471
 Alpha virt. eigenvalues --    3.42067   3.42733   3.43205   3.43508   3.44494
 Alpha virt. eigenvalues --    3.44804   3.45062   3.45381   3.45841   3.46070
 Alpha virt. eigenvalues --    3.46680   3.47595   3.48384   3.49137   3.49422
 Alpha virt. eigenvalues --    3.50208   3.50408   3.51185   3.52048   3.52230
 Alpha virt. eigenvalues --    3.53693   3.54620   3.55682   3.56352   3.56618
 Alpha virt. eigenvalues --    3.57952   3.58164   3.59406   3.60074   3.60764
 Alpha virt. eigenvalues --    3.62512   3.63057   3.63640   3.65112   3.65193
 Alpha virt. eigenvalues --    3.67203   3.68531   3.69205   3.69688   3.70904
 Alpha virt. eigenvalues --    3.71797   3.72504   3.73564   3.73794   3.75255
 Alpha virt. eigenvalues --    3.76856   3.77477   3.79126   3.80015   3.80193
 Alpha virt. eigenvalues --    3.80979   3.82003   3.82244   3.84340   3.85335
 Alpha virt. eigenvalues --    3.86191   3.86600   3.87655   3.88633   3.89056
 Alpha virt. eigenvalues --    3.89558   3.90683   3.91283   3.91971   3.92595
 Alpha virt. eigenvalues --    3.93892   3.94356   3.95331   3.96524   3.97067
 Alpha virt. eigenvalues --    3.97383   3.98956   3.99600   3.99681   4.00814
 Alpha virt. eigenvalues --    4.01666   4.02532   4.04243   4.04775   4.05117
 Alpha virt. eigenvalues --    4.05809   4.06114   4.06355   4.07814   4.08311
 Alpha virt. eigenvalues --    4.08541   4.09050   4.09720   4.10851   4.11164
 Alpha virt. eigenvalues --    4.12021   4.12082   4.12375   4.12910   4.13197
 Alpha virt. eigenvalues --    4.13881   4.14071   4.14985   4.15388   4.16479
 Alpha virt. eigenvalues --    4.16581   4.17909   4.18486   4.18805   4.19531
 Alpha virt. eigenvalues --    4.20130   4.21265   4.22539   4.23861   4.24213
 Alpha virt. eigenvalues --    4.25172   4.26528   4.28684   4.29076   4.31658
 Alpha virt. eigenvalues --    4.32173   4.33344   4.34079   4.35692   4.36176
 Alpha virt. eigenvalues --    4.38613   4.39796   4.41836   4.42927   4.45065
 Alpha virt. eigenvalues --    4.45380   4.45459   4.48043   4.48202   4.49134
 Alpha virt. eigenvalues --    4.51128   4.52357   4.53070   4.53699   4.55348
 Alpha virt. eigenvalues --    4.55835   4.56404   4.58584   4.61608   4.61953
 Alpha virt. eigenvalues --    4.64742   4.67568   4.67823   4.68699   4.70278
 Alpha virt. eigenvalues --    4.71658   4.73429   4.75408   4.76249   4.77345
 Alpha virt. eigenvalues --    4.77763   4.80876   4.81770   4.83744   4.85870
 Alpha virt. eigenvalues --    4.85968   4.87273   4.88705   4.90049   4.91029
 Alpha virt. eigenvalues --    4.92496   4.93662   4.95256   4.98328   5.00779
 Alpha virt. eigenvalues --    5.02355   5.04182   5.05338   5.06509   5.08491
 Alpha virt. eigenvalues --    5.10125   5.11586   5.13095   5.13164   5.14258
 Alpha virt. eigenvalues --    5.15444   5.17365   5.18617   5.20423   5.21717
 Alpha virt. eigenvalues --    5.23263   5.24687   5.26059   5.26831   5.29007
 Alpha virt. eigenvalues --    5.32065   5.32717   5.33379   5.36031   5.36564
 Alpha virt. eigenvalues --    5.38489   5.43465   5.43910   5.43952   5.45085
 Alpha virt. eigenvalues --    5.46669   5.47747   5.48852   5.50169   5.58694
 Alpha virt. eigenvalues --    5.59232   5.60900   5.62323   5.64212   5.65530
 Alpha virt. eigenvalues --    5.66035   5.69126   5.71575   5.72534   5.76206
 Alpha virt. eigenvalues --    5.86624   5.91846   5.98127   6.12301   6.13327
 Alpha virt. eigenvalues --    6.16358   6.21796   6.23669   6.25429   6.31149
 Alpha virt. eigenvalues --    6.35527   6.38366   6.49602   6.53866   6.59427
 Alpha virt. eigenvalues --    6.60004   6.62061   6.64689   6.71039   6.73492
 Alpha virt. eigenvalues --    6.80901   7.02510   7.08558   7.19815   7.27975
 Alpha virt. eigenvalues --   15.93021  21.97494  22.03843  22.05848  22.16019
 Alpha virt. eigenvalues --   22.20723  22.35241  22.35460  22.37279  22.38068
 Alpha virt. eigenvalues --   22.39819  22.42149  22.44139  22.46267  22.50172
 Alpha virt. eigenvalues --   22.50674  22.56303  22.62849  22.64594  22.66351
 Alpha virt. eigenvalues --   22.71713  22.83048  22.90687  23.01571  23.04486
 Alpha virt. eigenvalues --   23.11468  23.44558  32.98216  43.14982  43.21354
 Alpha virt. eigenvalues --   43.80995
          Condensed to atoms (all electrons):
 Mulliken charges:
               1
     1  C   -0.119553
     2  C   -0.167032
     3  C    0.075224
     4  C    0.118644
     5  C   -0.219117
     6  C   -0.127332
     7  C    0.229154
     8  C    0.118896
     9  C    0.074965
    10  C   -0.167234
    11  H    0.170104
    12  C   -0.119394
    13  C   -0.127652
    14  C   -0.219193
    15  H    0.160982
    16  H    0.169877
    17  H    0.171700
    18  H    0.156846
    19  H    0.160994
    20  H    0.156803
    21  H    0.171929
    22  N    0.337460
    23  C    0.024325
    24  C   -0.218648
    25  C   -0.245360
    26  C   -0.190295
    27  C   -0.240364
    28  C    0.092149
    29  H    0.140079
    30  H    0.131268
    31  H    0.147211
    32  H    0.148427
    33  C   -0.000175
    34  C   -0.209625
    35  C   -0.182868
    36  C   -0.236405
    37  H    0.151578
    38  C   -0.203676
    39  H    0.146772
    40  C    0.324417
    41  H    0.158367
    42  H    0.134226
    43  O   -0.202870
    44  C   -0.258980
    45  H    0.163317
    46  H    0.152486
    47  H    0.152527
    48  B    0.277297
    49  O   -0.419149
    50  H    0.346333
    51  O   -0.436127
    52  H    0.346689
 Sum of Mulliken charges =   1.00000
 Mulliken charges with hydrogens summed into heavy atoms:
               1
     1  C    0.041429
     2  C    0.002845
     3  C    0.075224
     4  C    0.118644
     5  C   -0.047417
     6  C    0.029514
     7  C    0.229154
     8  C    0.118896
     9  C    0.074965
    10  C    0.002870
    12  C    0.041600
    13  C    0.029151
    14  C   -0.047264
    22  N    0.337460
    23  C    0.024325
    24  C   -0.071437
    25  C   -0.096932
    26  C   -0.050216
    27  C   -0.109096
    28  C    0.092149
    33  C   -0.000175
    34  C   -0.058047
    35  C   -0.036095
    36  C   -0.078038
    38  C   -0.069450
    40  C    0.324417
    43  O   -0.202870
    44  C    0.209349
    48  B    0.277297
    49  O   -0.072816
    51  O   -0.089438
 Electronic spatial extent (au):  <R**2>=          17393.1497
 Charge=              1.0000 electrons
 Dipole moment (field-independent basis, Debye):
    X=              5.3383    Y=             -0.4566    Z=              0.2501  Tot=              5.3636
 Quadrupole moment (field-independent basis, Debye-Ang):
   XX=           -102.0092   YY=           -141.7696   ZZ=           -165.4852
   XY=              2.4967   XZ=            -21.4658   YZ=             -2.1957
 Traceless Quadrupole moment (field-independent basis, Debye-Ang):
   XX=             34.4122   YY=             -5.3483   ZZ=            -29.0639
   XY=              2.4967   XZ=            -21.4658   YZ=             -2.1957
 Octapole moment (field-independent basis, Debye-Ang**2):
  XXX=            228.7833  YYY=             -0.2784  ZZZ=             13.7369  XYY=              7.0445
  XXY=             -7.2578  XXZ=            -64.8314  XZZ=              5.8335  YZZ=             -3.8053
  YYZ=              1.7271  XYZ=             16.9808
 Hexadecapole moment (field-independent basis, Debye-Ang**3):
 XXXX=         -14682.8778 YYYY=          -2452.2722 ZZZZ=           -742.2164 XXXY=            -20.8693
 XXXZ=           -806.0688 YYYX=              1.4424 YYYZ=             45.3908 ZZZX=            -86.0686
 ZZZY=            -36.4193 XXYY=          -3678.9293 XXZZ=          -2959.2444 YYZZ=           -723.6846
 XXYZ=            -96.1070 YYXZ=            -13.6342 ZZXY=             27.5843
 N-N= 2.746994409002D+03 E-N=-8.514512982395D+03  KE= 1.301411152099D+03
 Leave Link  601 at Sat Mar 27 12:28:53 2021, MaxMem=  5242880000 cpu:         6.7
 (Enter /opt/nce/packages/global/g09/l9999.exe)
 1\1\GINC-CN058\SP\RPBEPBE TD-FC\Gen\C26H21B1N1O3(1+)\PNG4RJV\27-Mar-20
 21\0\\#p PBEPBE chkbasis geom=allcheck Guess=Read int=ultrafine scrf=(
 SMD,solvent=Acetonitrile) td=(NStates=30) EmpiricalDispersion=GD3BJ\\T
 itle\\1,1\C,0,1.0102597594,3.6178963977,0.2314235597\C,0,1.6948291384,
 2.4230444309,0.167478624\C,0,0.9786909348,1.2054139684,0.1076828885\C,
 0,-0.4575312247,1.2201112477,0.0934378373\C,0,-1.1188722982,2.47979946
 06,0.1862394184\C,0,-0.4043275554,3.6512098916,0.2514187702\C,0,-1.167
 4368796,0.0000853005,0.0141688386\C,0,-0.4508437187,-1.2174837895,-0.0
 386824603\C,0,0.9846205192,-1.198756337,0.0079350091\C,0,1.7059963095,
 -2.4144549247,-0.0196180855\H,0,2.7926534228,-2.3999252727,0.030952956
 1\C,0,1.0280436971,-3.6111488543,-0.1134003475\C,0,-0.3842093181,-3.64
 83289029,-0.1952654876\C,0,-1.1041319244,-2.4789249232,-0.1601276824\H
 ,0,1.5733894758,4.5512172324,0.2771010466\H,0,2.78276883,2.4109585791,
 0.1647960242\H,0,-2.20733944,2.4968814841,0.2110199896\H,0,-0.92368090
 57,4.6072528198,0.3234895864\H,0,1.5952027692,-4.542904179,-0.13434761
 73\H,0,-0.897230304,-4.6057411006,-0.2908350064\H,0,-2.1904593253,-2.4
 986325582,-0.2322245685\N,0,1.6467705462,0.0043588014,0.0723570364\C,0
 ,-2.6482614404,-0.0026741008,-0.0107157989\C,0,-3.3427856688,0.5315119
 648,-1.1079288712\C,0,-3.3737737502,-0.5401478289,1.0639801411\C,0,-4.
 7354164888,0.5141034702,-1.1277731821\C,0,-4.7670097151,-0.5283601359,
 1.0408569797\C,0,-5.4811665598,-0.0075298059,-0.053654266\H,0,-5.25767
 44233,0.920023446,-1.9962449439\H,0,-5.2939577302,-0.948488782,1.90225
 08096\H,0,-2.7843942932,0.9453148661,-1.9494509274\H,0,-2.8409790666,-
 0.9537001877,1.9219000118\C,0,3.0967543217,0.0053013932,0.1102356634\C
 ,0,3.8147679047,0.0311369065,-1.0810801174\C,0,3.7500705931,-0.0235394
 603,1.3448750822\C,0,5.2102944731,0.0277805731,-1.0511214547\H,0,3.285
 2002665,0.0532752306,-2.0347645855\C,0,5.137849659,-0.0271840859,1.381
 3313909\H,0,3.1697672481,-0.0436692772,2.2684268931\C,0,5.8780703271,-
 0.0021516381,0.1844803247\H,0,5.7640042388,0.0483141366,-1.9882923214\
 H,0,5.6699272197,-0.0500776014,2.3333573738\O,0,7.2274147613,-0.009269
 5999,0.323908794\C,0,8.0209121187,0.008310235,-0.8723984556\H,0,9.0634
 963033,-0.0038642391,-0.5353453631\H,0,7.8236794805,-0.8798546696,-1.4
 92620882\H,0,7.834168213,0.920728245,-1.4597367871\B,0,-7.0545713543,0
 .0037404193,-0.1012989568\O,0,-7.8633599834,-0.3456842317,0.9577124953
 \H,0,-7.3715355761,-0.5828924351,1.7651132657\O,0,-7.6627604242,0.3879
 030703,-1.2739045715\H,0,-8.6363131622,0.3731443509,-1.1982320706\\Ver
 sion=ES64L-G09RevE.01\State=1-A\HF=-1307.6287294\RMSD=7.417e-09\PG=C01
  [X(C26H21B1N1O3)]\\@


 MARY HAD A LITTLE LAMB
      HIS FEET WERE BLACK AS SOOT,
           AND EVERYWHERE THAT MARY WENT
                HIS SOOTY FOOT HE PUT.

                    -- NONAME
 Job cpu time:       1 days 11 hours  3 minutes 41.1 seconds.
 File lengths (MBytes):  RWF=   4678 Int=      0 D2E=      0 Chk=   1054 Scr=      1
 Normal termination of Gaussian 09 at Sat Mar 27 12:28:54 2021.
