 Entering Gaussian System, Link 0=g09
 Input=/home/png4rjv/fotokatalizis/benchmark/OPCs/BOH-Acr_o_TDHF_def2TZVP.gjf
 Output=/home/png4rjv/fotokatalizis/benchmark/OPCs/BOH-Acr_o_TDHF_def2TZVP.log
 Initial command:
 /opt/nce/packages/global/g09/l1.exe "/home/png4rjv/fotokatalizis/benchmark/OPCs/BOH-Acr_o_TDHF_def2TZVP/Gau-65291.inp" -scrdir="/home/png4rjv/fotokatalizis/benchmark/OPCs/BOH-Acr_o_TDHF_def2TZVP/"
 Default is to use a total of  12 processors:
                               12 via shared-memory
                                1 via Linda
 Entering Link 1 = /opt/nce/packages/global/g09/l1.exe PID=     65292.
  
 Copyright (c) 1988,1990,1992,1993,1995,1998,2003,2009,2015,
            Gaussian, Inc.  All Rights Reserved.
  
 This is part of the Gaussian(R) 09 program.  It is based on
 the Gaussian(R) 03 system (copyright 2003, Gaussian, Inc.),
 the Gaussian(R) 98 system (copyright 1998, Gaussian, Inc.),
 the Gaussian(R) 94 system (copyright 1995, Gaussian, Inc.),
 the Gaussian 92(TM) system (copyright 1992, Gaussian, Inc.),
 the Gaussian 90(TM) system (copyright 1990, Gaussian, Inc.),
 the Gaussian 88(TM) system (copyright 1988, Gaussian, Inc.),
 the Gaussian 86(TM) system (copyright 1986, Carnegie Mellon
 University), and the Gaussian 82(TM) system (copyright 1983,
 Carnegie Mellon University). Gaussian is a federally registered
 trademark of Gaussian, Inc.
  
 This software contains proprietary and confidential information,
 including trade secrets, belonging to Gaussian, Inc.
  
 This software is provided under written license and may be
 used, copied, transmitted, or stored only in accord with that
 written license.
  
 The following legend is applicable only to US Government
 contracts under FAR:
  
                    RESTRICTED RIGHTS LEGEND
  
 Use, reproduction and disclosure by the US Government is
 subject to restrictions as set forth in subparagraphs (a)
 and (c) of the Commercial Computer Software - Restricted
 Rights clause in FAR 52.227-19.
  
 Gaussian, Inc.
 340 Quinnipiac St., Bldg. 40, Wallingford CT 06492
  
  
 ---------------------------------------------------------------
 Warning -- This program may not be used in any manner that
 competes with the business of Gaussian, Inc. or will provide
 assistance to any competitor of Gaussian, Inc.  The licensee
 of this program is prohibited from giving any competitor of
 Gaussian, Inc. access to this program.  By using this program,
 the user acknowledges that Gaussian, Inc. is engaged in the
 business of creating and licensing software in the field of
 computational chemistry and represents and warrants to the
 licensee that it is not a competitor of Gaussian, Inc. and that
 it will not use this program in any manner prohibited above.
 ---------------------------------------------------------------
  

 Cite this work as:
 Gaussian 09, Revision E.01,
 M. J. Frisch, G. W. Trucks, H. B. Schlegel, G. E. Scuseria, 
 M. A. Robb, J. R. Cheeseman, G. Scalmani, V. Barone, B. Mennucci, 
 G. A. Petersson, H. Nakatsuji, M. Caricato, X. Li, H. P. Hratchian, 
 A. F. Izmaylov, J. Bloino, G. Zheng, J. L. Sonnenberg, M. Hada, 
 M. Ehara, K. Toyota, R. Fukuda, J. Hasegawa, M. Ishida, T. Nakajima, 
 Y. Honda, O. Kitao, H. Nakai, T. Vreven, J. A. Montgomery, Jr., 
 J. E. Peralta, F. Ogliaro, M. Bearpark, J. J. Heyd, E. Brothers, 
 K. N. Kudin, V. N. Staroverov, T. Keith, R. Kobayashi, J. Normand, 
 K. Raghavachari, A. Rendell, J. C. Burant, S. S. Iyengar, J. Tomasi, 
 M. Cossi, N. Rega, J. M. Millam, M. Klene, J. E. Knox, J. B. Cross, 
 V. Bakken, C. Adamo, J. Jaramillo, R. Gomperts, R. E. Stratmann, 
 O. Yazyev, A. J. Austin, R. Cammi, C. Pomelli, J. W. Ochterski, 
 R. L. Martin, K. Morokuma, V. G. Zakrzewski, G. A. Voth, 
 P. Salvador, J. J. Dannenberg, S. Dapprich, A. D. Daniels, 
 O. Farkas, J. B. Foresman, J. V. Ortiz, J. Cioslowski, 
 and D. J. Fox, Gaussian, Inc., Wallingford CT, 2013.
 
 ******************************************
 Gaussian 09:  ES64L-G09RevE.01 30-Nov-2015
                31-Mar-2021 
 ******************************************
 %chk=cp.chk
 Default route:  MaxDisk=500GB
 ----------------------------------------------------------------------
 #p hf/def2TZVP opt freq=noraman nosymm int=ultrafine scrf=(SMD,solvent
 =Acetonitrile)
 ----------------------------------------------------------------------
 1/14=-1,18=20,19=15,38=1/1,3;
 2/9=110,12=2,15=1,17=6,18=5,40=1/2;
 3/5=44,7=101,11=9,16=1,25=1,30=1,70=32201,71=1,72=2,75=-5/1,2,3;
 4//1;
 5/5=2,38=5,53=2/2;
 6/7=2,8=2,9=2,10=2,28=1/1;
 7/30=1/1,2,3,16;
 1/14=-1,18=20,19=15/3(2);
 2/9=110,15=1/2;
 99//99;
 2/9=110,15=1/2;
 3/5=44,7=101,11=9,16=1,25=1,30=1,70=32205,71=1,72=2,75=-5/1,2,3;
 4/5=5,16=3,69=1/1;
 5/5=2,38=5,53=2/2;
 7/30=1/1,2,3,16;
 1/14=-1,18=20,19=15/3(-5);
 2/9=110,15=1/2;
 6/7=2,8=2,9=2,10=2,19=2,28=1/1;
 99/9=1/99;
 Leave Link    1 at Wed Mar 31 12:21:39 2021, MaxMem=           0 cpu:         0.9
 (Enter /opt/nce/packages/global/g09/l101.exe)
 -----
 Title
 -----
 Symbolic Z-matrix:
 Charge =  1 Multiplicity = 1
 C                    -0.6469    3.72165   0.38323 
 C                    -1.27504   2.51563   0.154 
 C                    -0.503     1.3544   -0.10022 
 C                     0.92966   1.44814  -0.13535 
 C                     1.53448   2.7162    0.13158 
 C                     0.7667    3.82729   0.38241 
 C                     1.70098   0.28815  -0.3948 
 C                     1.04339  -0.94526  -0.62123 
 C                    -0.38954  -1.00783  -0.55451 
 C                    -1.0479   -2.24559  -0.7564 
 H                    -2.13284  -2.2954   -0.69789 
 C                    -0.30957  -3.37821  -1.0293 
 C                     1.10345  -3.3305   -1.12502 
 C                     1.76224  -2.14143  -0.92954 
 H                    -1.25327   4.60885   0.57803 
 H                    -2.36054   2.4475    0.16987 
 H                     2.62181   2.7823    0.13272 
 H                     1.24008   4.78962   0.584 
 H                    -0.82838  -4.32677  -1.1839 
 H                     1.66386  -4.23673  -1.36013 
 H                     2.84672  -2.09237  -1.01077 
 N                    -1.10962   0.1366   -0.29846 
 C                     3.18437   0.35429  -0.41315 
 C                     3.93742  -0.31087   0.58451 
 C                     3.8242    1.04051  -1.45757 
 C                     5.33795  -0.2696    0.48442 
 C                     5.21789   1.06701  -1.52792 
 C                     5.97625   0.41115  -0.55492 
 H                     5.70965   1.59408  -2.34828 
 H                     3.22812   1.53382  -2.22875 
 C                    -2.55496   0.05535  -0.23479 
 C                    -3.17854  -0.2025    0.98376 
 C                    -3.3105    0.23534  -1.39981 
 C                    -4.57076  -0.28339   1.05296 
 H                    -2.57734  -0.3428    1.88446 
 C                    -4.69432   0.15667  -1.33753 
 H                    -2.81057   0.43592  -2.34949 
 C                    -5.34108  -0.10364  -0.11106 
 H                    -5.04342  -0.48612   2.01281 
 H                    -5.30996   0.29248  -2.22779 
 O                    -6.67877  -0.1611   -0.15255 
 C                    -7.4114   -0.41961   1.03379 
 H                    -8.47005  -0.41808   0.74812 
 H                    -7.15189  -1.4038    1.45942 
 H                    -7.23882   0.36393   1.79104 
 H                     7.06693   0.42788  -0.60856 
 B                     3.26961  -1.05255   1.80739 
 O                     2.17837  -0.56384   2.47447 
 O                     3.80783  -2.23037   2.20333 
 H                     1.9285    0.33326   2.22617 
 H                     3.38389  -2.59384   2.99364 
 H                     5.93466  -0.78462   1.24044 
 
 NAtoms=     52 NQM=       52 NQMF=       0 NMMI=      0 NMMIF=      0
                NMic=       0 NMicF=      0.
                    Isotopes and Nuclear Properties:
 (Nuclear quadrupole moments (NQMom) in fm**2, nuclear magnetic moments (NMagM)
  in nuclear magnetons)

  Atom         1           2           3           4           5           6           7           8           9          10
 IAtWgt=          12          12          12          12          12          12          12          12          12          12
 AtmWgt=  12.0000000  12.0000000  12.0000000  12.0000000  12.0000000  12.0000000  12.0000000  12.0000000  12.0000000  12.0000000
 NucSpn=           0           0           0           0           0           0           0           0           0           0
 AtZEff=   0.0000000   0.0000000   0.0000000   0.0000000   0.0000000   0.0000000   0.0000000   0.0000000   0.0000000   0.0000000
 NQMom=    0.0000000   0.0000000   0.0000000   0.0000000   0.0000000   0.0000000   0.0000000   0.0000000   0.0000000   0.0000000
 NMagM=    0.0000000   0.0000000   0.0000000   0.0000000   0.0000000   0.0000000   0.0000000   0.0000000   0.0000000   0.0000000
 AtZNuc=   6.0000000   6.0000000   6.0000000   6.0000000   6.0000000   6.0000000   6.0000000   6.0000000   6.0000000   6.0000000

  Atom        11          12          13          14          15          16          17          18          19          20
 IAtWgt=           1          12          12          12           1           1           1           1           1           1
 AtmWgt=   1.0078250  12.0000000  12.0000000  12.0000000   1.0078250   1.0078250   1.0078250   1.0078250   1.0078250   1.0078250
 NucSpn=           1           0           0           0           1           1           1           1           1           1
 AtZEff=   0.0000000   0.0000000   0.0000000   0.0000000   0.0000000   0.0000000   0.0000000   0.0000000   0.0000000   0.0000000
 NQMom=    0.0000000   0.0000000   0.0000000   0.0000000   0.0000000   0.0000000   0.0000000   0.0000000   0.0000000   0.0000000
 NMagM=    2.7928460   0.0000000   0.0000000   0.0000000   2.7928460   2.7928460   2.7928460   2.7928460   2.7928460   2.7928460
 AtZNuc=   1.0000000   6.0000000   6.0000000   6.0000000   1.0000000   1.0000000   1.0000000   1.0000000   1.0000000   1.0000000

  Atom        21          22          23          24          25          26          27          28          29          30
 IAtWgt=           1          14          12          12          12          12          12          12           1           1
 AtmWgt=   1.0078250  14.0030740  12.0000000  12.0000000  12.0000000  12.0000000  12.0000000  12.0000000   1.0078250   1.0078250
 NucSpn=           1           2           0           0           0           0           0           0           1           1
 AtZEff=   0.0000000   0.0000000   0.0000000   0.0000000   0.0000000   0.0000000   0.0000000   0.0000000   0.0000000   0.0000000
 NQMom=    0.0000000   2.0440000   0.0000000   0.0000000   0.0000000   0.0000000   0.0000000   0.0000000   0.0000000   0.0000000
 NMagM=    2.7928460   0.4037610   0.0000000   0.0000000   0.0000000   0.0000000   0.0000000   0.0000000   2.7928460   2.7928460
 AtZNuc=   1.0000000   7.0000000   6.0000000   6.0000000   6.0000000   6.0000000   6.0000000   6.0000000   1.0000000   1.0000000

  Atom        31          32          33          34          35          36          37          38          39          40
 IAtWgt=          12          12          12          12           1          12           1          12           1           1
 AtmWgt=  12.0000000  12.0000000  12.0000000  12.0000000   1.0078250  12.0000000   1.0078250  12.0000000   1.0078250   1.0078250
 NucSpn=           0           0           0           0           1           0           1           0           1           1
 AtZEff=   0.0000000   0.0000000   0.0000000   0.0000000   0.0000000   0.0000000   0.0000000   0.0000000   0.0000000   0.0000000
 NQMom=    0.0000000   0.0000000   0.0000000   0.0000000   0.0000000   0.0000000   0.0000000   0.0000000   0.0000000   0.0000000
 NMagM=    0.0000000   0.0000000   0.0000000   0.0000000   2.7928460   0.0000000   2.7928460   0.0000000   2.7928460   2.7928460
 AtZNuc=   6.0000000   6.0000000   6.0000000   6.0000000   1.0000000   6.0000000   1.0000000   6.0000000   1.0000000   1.0000000

  Atom        41          42          43          44          45          46          47          48          49          50
 IAtWgt=          16          12           1           1           1           1          11          16          16           1
 AtmWgt=  15.9949146  12.0000000   1.0078250   1.0078250   1.0078250   1.0078250  11.0093053  15.9949146  15.9949146   1.0078250
 NucSpn=           0           0           1           1           1           1           3           0           0           1
 AtZEff=   0.0000000   0.0000000   0.0000000   0.0000000   0.0000000   0.0000000   0.0000000   0.0000000   0.0000000   0.0000000
 NQMom=    0.0000000   0.0000000   0.0000000   0.0000000   0.0000000   0.0000000   4.0590000   0.0000000   0.0000000   0.0000000
 NMagM=    0.0000000   0.0000000   2.7928460   2.7928460   2.7928460   2.7928460   2.6886370   0.0000000   0.0000000   2.7928460
 AtZNuc=   8.0000000   6.0000000   1.0000000   1.0000000   1.0000000   1.0000000   5.0000000   8.0000000   8.0000000   1.0000000

  Atom        51          52
 IAtWgt=           1           1
 AtmWgt=   1.0078250   1.0078250
 NucSpn=           1           1
 AtZEff=   0.0000000   0.0000000
 NQMom=    0.0000000   0.0000000
 NMagM=    2.7928460   2.7928460
 AtZNuc=   1.0000000   1.0000000
 Leave Link  101 at Wed Mar 31 12:21:39 2021, MaxMem=  5242880000 cpu:         4.3
 (Enter /opt/nce/packages/global/g09/l103.exe)

 GradGradGradGradGradGradGradGradGradGradGradGradGradGradGradGradGradGrad
 Berny optimization.
 Initialization pass.
                           ----------------------------
                           !    Initial Parameters    !
                           ! (Angstroms and Degrees)  !
 --------------------------                            --------------------------
 ! Name  Definition              Value          Derivative Info.                !
 --------------------------------------------------------------------------------
 ! R1    R(1,2)                  1.379          estimate D2E/DX2                !
 ! R2    R(1,6)                  1.4175         estimate D2E/DX2                !
 ! R3    R(1,15)                 1.0921         estimate D2E/DX2                !
 ! R4    R(2,3)                  1.4174         estimate D2E/DX2                !
 ! R5    R(2,16)                 1.0877         estimate D2E/DX2                !
 ! R6    R(3,4)                  1.4361         estimate D2E/DX2                !
 ! R7    R(3,22)                 1.3749         estimate D2E/DX2                !
 ! R8    R(4,5)                  1.43           estimate D2E/DX2                !
 ! R9    R(4,7)                  1.417          estimate D2E/DX2                !
 ! R10   R(5,6)                  1.3737         estimate D2E/DX2                !
 ! R11   R(5,17)                 1.0893         estimate D2E/DX2                !
 ! R12   R(6,18)                 1.0912         estimate D2E/DX2                !
 ! R13   R(7,8)                  1.416          estimate D2E/DX2                !
 ! R14   R(7,23)                 1.485          estimate D2E/DX2                !
 ! R15   R(8,9)                  1.4358         estimate D2E/DX2                !
 ! R16   R(8,14)                 1.4292         estimate D2E/DX2                !
 ! R17   R(9,10)                 1.4164         estimate D2E/DX2                !
 ! R18   R(9,22)                 1.3762         estimate D2E/DX2                !
 ! R19   R(10,11)                1.0877         estimate D2E/DX2                !
 ! R20   R(10,12)                1.3793         estimate D2E/DX2                !
 ! R21   R(12,13)                1.4171         estimate D2E/DX2                !
 ! R22   R(12,19)                1.0922         estimate D2E/DX2                !
 ! R23   R(13,14)                1.3734         estimate D2E/DX2                !
 ! R24   R(13,20)                1.0911         estimate D2E/DX2                !
 ! R25   R(14,21)                1.0886         estimate D2E/DX2                !
 ! R26   R(22,31)                1.449          estimate D2E/DX2                !
 ! R27   R(23,24)                1.4159         estimate D2E/DX2                !
 ! R28   R(23,25)                1.404          estimate D2E/DX2                !
 ! R29   R(24,26)                1.4047         estimate D2E/DX2                !
 ! R30   R(24,47)                1.5784         estimate D2E/DX2                !
 ! R31   R(25,27)                1.3957         estimate D2E/DX2                !
 ! R32   R(25,30)                1.0924         estimate D2E/DX2                !
 ! R33   R(26,28)                1.3968         estimate D2E/DX2                !
 ! R34   R(26,52)                1.0922         estimate D2E/DX2                !
 ! R35   R(27,28)                1.3971         estimate D2E/DX2                !
 ! R36   R(27,29)                1.0921         estimate D2E/DX2                !
 ! R37   R(28,46)                1.0921         estimate D2E/DX2                !
 ! R38   R(31,32)                1.3929         estimate D2E/DX2                !
 ! R39   R(31,33)                1.4002         estimate D2E/DX2                !
 ! R40   R(32,34)                1.3963         estimate D2E/DX2                !
 ! R41   R(32,35)                1.092          estimate D2E/DX2                !
 ! R42   R(33,36)                1.3875         estimate D2E/DX2                !
 ! R43   R(33,37)                1.0918         estimate D2E/DX2                !
 ! R44   R(34,38)                1.4074         estimate D2E/DX2                !
 ! R45   R(34,39)                1.089          estimate D2E/DX2                !
 ! R46   R(36,38)                1.4108         estimate D2E/DX2                !
 ! R47   R(36,40)                1.0909         estimate D2E/DX2                !
 ! R48   R(38,41)                1.3396         estimate D2E/DX2                !
 ! R49   R(41,42)                1.4181         estimate D2E/DX2                !
 ! R50   R(42,43)                1.0965         estimate D2E/DX2                !
 ! R51   R(42,44)                1.1032         estimate D2E/DX2                !
 ! R52   R(42,45)                1.1032         estimate D2E/DX2                !
 ! R53   R(47,48)                1.3692         estimate D2E/DX2                !
 ! R54   R(47,49)                1.3541         estimate D2E/DX2                !
 ! R55   R(48,50)                0.9638         estimate D2E/DX2                !
 ! R56   R(49,51)                0.9677         estimate D2E/DX2                !
 ! A1    A(2,1,6)              121.2867         estimate D2E/DX2                !
 ! A2    A(2,1,15)             119.1573         estimate D2E/DX2                !
 ! A3    A(6,1,15)             119.5535         estimate D2E/DX2                !
 ! A4    A(1,2,3)              119.881          estimate D2E/DX2                !
 ! A5    A(1,2,16)             120.4587         estimate D2E/DX2                !
 ! A6    A(3,2,16)             119.6601         estimate D2E/DX2                !
 ! A7    A(2,3,4)              119.6216         estimate D2E/DX2                !
 ! A8    A(2,3,22)             120.7428         estimate D2E/DX2                !
 ! A9    A(4,3,22)             119.6315         estimate D2E/DX2                !
 ! A10   A(3,4,5)              118.3734         estimate D2E/DX2                !
 ! A11   A(3,4,7)              119.6084         estimate D2E/DX2                !
 ! A12   A(5,4,7)              121.9961         estimate D2E/DX2                !
 ! A13   A(4,5,6)              120.9927         estimate D2E/DX2                !
 ! A14   A(4,5,17)             118.4352         estimate D2E/DX2                !
 ! A15   A(6,5,17)             120.5721         estimate D2E/DX2                !
 ! A16   A(1,6,5)              119.8151         estimate D2E/DX2                !
 ! A17   A(1,6,18)             119.8817         estimate D2E/DX2                !
 ! A18   A(5,6,18)             120.3029         estimate D2E/DX2                !
 ! A19   A(4,7,8)              119.3121         estimate D2E/DX2                !
 ! A20   A(4,7,23)             120.6347         estimate D2E/DX2                !
 ! A21   A(8,7,23)             120.0485         estimate D2E/DX2                !
 ! A22   A(7,8,9)              119.6036         estimate D2E/DX2                !
 ! A23   A(7,8,14)             122.0016         estimate D2E/DX2                !
 ! A24   A(9,8,14)             118.3922         estimate D2E/DX2                !
 ! A25   A(8,9,10)             119.6914         estimate D2E/DX2                !
 ! A26   A(8,9,22)             119.6432         estimate D2E/DX2                !
 ! A27   A(10,9,22)            120.6652         estimate D2E/DX2                !
 ! A28   A(9,10,11)            119.7363         estimate D2E/DX2                !
 ! A29   A(9,10,12)            119.7999         estimate D2E/DX2                !
 ! A30   A(11,10,12)           120.4636         estimate D2E/DX2                !
 ! A31   A(10,12,13)           121.2982         estimate D2E/DX2                !
 ! A32   A(10,12,19)           119.1383         estimate D2E/DX2                !
 ! A33   A(13,12,19)           119.5607         estimate D2E/DX2                !
 ! A34   A(12,13,14)           119.8584         estimate D2E/DX2                !
 ! A35   A(12,13,20)           119.9162         estimate D2E/DX2                !
 ! A36   A(14,13,20)           120.2241         estimate D2E/DX2                !
 ! A37   A(8,14,13)            120.9352         estimate D2E/DX2                !
 ! A38   A(8,14,21)            118.6489         estimate D2E/DX2                !
 ! A39   A(13,14,21)           120.4155         estimate D2E/DX2                !
 ! A40   A(3,22,9)             122.1785         estimate D2E/DX2                !
 ! A41   A(3,22,31)            118.9089         estimate D2E/DX2                !
 ! A42   A(9,22,31)            118.9126         estimate D2E/DX2                !
 ! A43   A(7,23,24)            120.1088         estimate D2E/DX2                !
 ! A44   A(7,23,25)            119.0916         estimate D2E/DX2                !
 ! A45   A(24,23,25)           120.7568         estimate D2E/DX2                !
 ! A46   A(23,24,26)           117.7911         estimate D2E/DX2                !
 ! A47   A(23,24,47)           122.7926         estimate D2E/DX2                !
 ! A48   A(26,24,47)           119.3955         estimate D2E/DX2                !
 ! A49   A(23,25,27)           120.1223         estimate D2E/DX2                !
 ! A50   A(23,25,30)           119.8146         estimate D2E/DX2                !
 ! A51   A(27,25,30)           120.047          estimate D2E/DX2                !
 ! A52   A(24,26,28)           121.5303         estimate D2E/DX2                !
 ! A53   A(24,26,52)           118.7862         estimate D2E/DX2                !
 ! A54   A(28,26,52)           119.6835         estimate D2E/DX2                !
 ! A55   A(25,27,28)           119.8672         estimate D2E/DX2                !
 ! A56   A(25,27,29)           119.7799         estimate D2E/DX2                !
 ! A57   A(28,27,29)           120.3511         estimate D2E/DX2                !
 ! A58   A(26,28,27)           119.9299         estimate D2E/DX2                !
 ! A59   A(26,28,46)           120.0246         estimate D2E/DX2                !
 ! A60   A(27,28,46)           120.0452         estimate D2E/DX2                !
 ! A61   A(22,31,32)           119.6936         estimate D2E/DX2                !
 ! A62   A(22,31,33)           119.6344         estimate D2E/DX2                !
 ! A63   A(32,31,33)           120.672          estimate D2E/DX2                !
 ! A64   A(31,32,34)           120.0305         estimate D2E/DX2                !
 ! A65   A(31,32,35)           119.9269         estimate D2E/DX2                !
 ! A66   A(34,32,35)           120.0425         estimate D2E/DX2                !
 ! A67   A(31,33,36)           119.574          estimate D2E/DX2                !
 ! A68   A(31,33,37)           120.0176         estimate D2E/DX2                !
 ! A69   A(36,33,37)           120.4084         estimate D2E/DX2                !
 ! A70   A(32,34,38)           119.8257         estimate D2E/DX2                !
 ! A71   A(32,34,39)           119.1607         estimate D2E/DX2                !
 ! A72   A(38,34,39)           121.0135         estimate D2E/DX2                !
 ! A73   A(33,36,38)           120.4462         estimate D2E/DX2                !
 ! A74   A(33,36,40)           121.2771         estimate D2E/DX2                !
 ! A75   A(38,36,40)           118.2767         estimate D2E/DX2                !
 ! A76   A(34,38,36)           119.4515         estimate D2E/DX2                !
 ! A77   A(34,38,41)           124.522          estimate D2E/DX2                !
 ! A78   A(36,38,41)           116.0265         estimate D2E/DX2                !
 ! A79   A(38,41,42)           119.8557         estimate D2E/DX2                !
 ! A80   A(41,42,43)           106.2951         estimate D2E/DX2                !
 ! A81   A(41,42,44)           111.3366         estimate D2E/DX2                !
 ! A82   A(41,42,45)           111.3417         estimate D2E/DX2                !
 ! A83   A(43,42,44)           109.2            estimate D2E/DX2                !
 ! A84   A(43,42,45)           109.1991         estimate D2E/DX2                !
 ! A85   A(44,42,45)           109.3887         estimate D2E/DX2                !
 ! A86   A(24,47,48)           123.1579         estimate D2E/DX2                !
 ! A87   A(24,47,49)           117.8437         estimate D2E/DX2                !
 ! A88   A(48,47,49)           118.9979         estimate D2E/DX2                !
 ! A89   A(47,48,50)           114.4153         estimate D2E/DX2                !
 ! A90   A(47,49,51)           113.0398         estimate D2E/DX2                !
 ! D1    D(6,1,2,3)             -0.5642         estimate D2E/DX2                !
 ! D2    D(6,1,2,16)           179.2407         estimate D2E/DX2                !
 ! D3    D(15,1,2,3)          -179.9901         estimate D2E/DX2                !
 ! D4    D(15,1,2,16)           -0.1852         estimate D2E/DX2                !
 ! D5    D(2,1,6,5)              0.8933         estimate D2E/DX2                !
 ! D6    D(2,1,6,18)          -178.9156         estimate D2E/DX2                !
 ! D7    D(15,1,6,5)          -179.683          estimate D2E/DX2                !
 ! D8    D(15,1,6,18)            0.508          estimate D2E/DX2                !
 ! D9    D(1,2,3,4)             -0.8661         estimate D2E/DX2                !
 ! D10   D(1,2,3,22)           178.3895         estimate D2E/DX2                !
 ! D11   D(16,2,3,4)           179.3275         estimate D2E/DX2                !
 ! D12   D(16,2,3,22)           -1.4169         estimate D2E/DX2                !
 ! D13   D(2,3,4,5)              1.9306         estimate D2E/DX2                !
 ! D14   D(2,3,4,7)           -179.7489         estimate D2E/DX2                !
 ! D15   D(22,3,4,5)          -177.3333         estimate D2E/DX2                !
 ! D16   D(22,3,4,7)             0.9871         estimate D2E/DX2                !
 ! D17   D(2,3,22,9)           179.639          estimate D2E/DX2                !
 ! D18   D(2,3,22,31)           -0.4025         estimate D2E/DX2                !
 ! D19   D(4,3,22,9)            -1.1055         estimate D2E/DX2                !
 ! D20   D(4,3,22,31)          178.853          estimate D2E/DX2                !
 ! D21   D(3,4,5,6)             -1.6278         estimate D2E/DX2                !
 ! D22   D(3,4,5,17)           178.313          estimate D2E/DX2                !
 ! D23   D(7,4,5,6)           -179.906          estimate D2E/DX2                !
 ! D24   D(7,4,5,17)             0.0349         estimate D2E/DX2                !
 ! D25   D(3,4,7,8)              0.2724         estimate D2E/DX2                !
 ! D26   D(3,4,7,23)          -178.9377         estimate D2E/DX2                !
 ! D27   D(5,4,7,8)            178.5298         estimate D2E/DX2                !
 ! D28   D(5,4,7,23)            -0.6802         estimate D2E/DX2                !
 ! D29   D(4,5,6,1)              0.2389         estimate D2E/DX2                !
 ! D30   D(4,5,6,18)          -179.9529         estimate D2E/DX2                !
 ! D31   D(17,5,6,1)          -179.7007         estimate D2E/DX2                !
 ! D32   D(17,5,6,18)            0.1075         estimate D2E/DX2                !
 ! D33   D(4,7,8,9)             -1.4104         estimate D2E/DX2                !
 ! D34   D(4,7,8,14)           177.9931         estimate D2E/DX2                !
 ! D35   D(23,7,8,9)           177.8044         estimate D2E/DX2                !
 ! D36   D(23,7,8,14)           -2.7921         estimate D2E/DX2                !
 ! D37   D(4,7,23,24)          112.8831         estimate D2E/DX2                !
 ! D38   D(4,7,23,25)          -69.4776         estimate D2E/DX2                !
 ! D39   D(8,7,23,24)          -66.3212         estimate D2E/DX2                !
 ! D40   D(8,7,23,25)          111.3181         estimate D2E/DX2                !
 ! D41   D(7,8,9,10)          -178.8443         estimate D2E/DX2                !
 ! D42   D(7,8,9,22)             1.3272         estimate D2E/DX2                !
 ! D43   D(14,8,9,10)            1.7307         estimate D2E/DX2                !
 ! D44   D(14,8,9,22)         -178.0978         estimate D2E/DX2                !
 ! D45   D(7,8,14,13)          178.9959         estimate D2E/DX2                !
 ! D46   D(7,8,14,21)           -1.2296         estimate D2E/DX2                !
 ! D47   D(9,8,14,13)           -1.5936         estimate D2E/DX2                !
 ! D48   D(9,8,14,21)          178.1809         estimate D2E/DX2                !
 ! D49   D(8,9,10,11)          179.4963         estimate D2E/DX2                !
 ! D50   D(8,9,10,12)           -0.6792         estimate D2E/DX2                !
 ! D51   D(22,9,10,11)          -0.6769         estimate D2E/DX2                !
 ! D52   D(22,9,10,12)         179.1475         estimate D2E/DX2                !
 ! D53   D(8,9,22,3)            -0.0503         estimate D2E/DX2                !
 ! D54   D(8,9,22,31)          179.9913         estimate D2E/DX2                !
 ! D55   D(10,9,22,3)         -179.8771         estimate D2E/DX2                !
 ! D56   D(10,9,22,31)           0.1644         estimate D2E/DX2                !
 ! D57   D(9,10,12,13)          -0.568          estimate D2E/DX2                !
 ! D58   D(9,10,12,19)        -179.952          estimate D2E/DX2                !
 ! D59   D(11,10,12,13)        179.2552         estimate D2E/DX2                !
 ! D60   D(11,10,12,19)         -0.1289         estimate D2E/DX2                !
 ! D61   D(10,12,13,14)          0.7274         estimate D2E/DX2                !
 ! D62   D(10,12,13,20)       -178.8722         estimate D2E/DX2                !
 ! D63   D(19,12,13,14)       -179.8911         estimate D2E/DX2                !
 ! D64   D(19,12,13,20)          0.5093         estimate D2E/DX2                !
 ! D65   D(12,13,14,8)           0.3867         estimate D2E/DX2                !
 ! D66   D(12,13,14,21)       -179.3839         estimate D2E/DX2                !
 ! D67   D(20,13,14,8)         179.9851         estimate D2E/DX2                !
 ! D68   D(20,13,14,21)          0.2145         estimate D2E/DX2                !
 ! D69   D(3,22,31,32)         -89.6901         estimate D2E/DX2                !
 ! D70   D(3,22,31,33)          90.3884         estimate D2E/DX2                !
 ! D71   D(9,22,31,32)          90.2698         estimate D2E/DX2                !
 ! D72   D(9,22,31,33)         -89.6517         estimate D2E/DX2                !
 ! D73   D(7,23,24,26)         177.0223         estimate D2E/DX2                !
 ! D74   D(7,23,24,47)          -4.6475         estimate D2E/DX2                !
 ! D75   D(25,23,24,26)         -0.5771         estimate D2E/DX2                !
 ! D76   D(25,23,24,47)        177.753          estimate D2E/DX2                !
 ! D77   D(7,23,25,27)        -177.2217         estimate D2E/DX2                !
 ! D78   D(7,23,25,30)           1.3202         estimate D2E/DX2                !
 ! D79   D(24,23,25,27)          0.4019         estimate D2E/DX2                !
 ! D80   D(24,23,25,30)        178.9437         estimate D2E/DX2                !
 ! D81   D(23,24,26,28)          0.4971         estimate D2E/DX2                !
 ! D82   D(23,24,26,52)       -179.4732         estimate D2E/DX2                !
 ! D83   D(47,24,26,28)       -177.8917         estimate D2E/DX2                !
 ! D84   D(47,24,26,52)          2.138          estimate D2E/DX2                !
 ! D85   D(23,24,47,48)        -39.3126         estimate D2E/DX2                !
 ! D86   D(23,24,47,49)        140.4376         estimate D2E/DX2                !
 ! D87   D(26,24,47,48)        138.9919         estimate D2E/DX2                !
 ! D88   D(26,24,47,49)        -41.2579         estimate D2E/DX2                !
 ! D89   D(23,25,27,28)         -0.1261         estimate D2E/DX2                !
 ! D90   D(23,25,27,29)        179.3915         estimate D2E/DX2                !
 ! D91   D(30,25,27,28)       -178.6645         estimate D2E/DX2                !
 ! D92   D(30,25,27,29)          0.8531         estimate D2E/DX2                !
 ! D93   D(24,26,28,27)         -0.2372         estimate D2E/DX2                !
 ! D94   D(24,26,28,46)        179.9606         estimate D2E/DX2                !
 ! D95   D(52,26,28,27)        179.7329         estimate D2E/DX2                !
 ! D96   D(52,26,28,46)         -0.0694         estimate D2E/DX2                !
 ! D97   D(25,27,28,26)          0.0425         estimate D2E/DX2                !
 ! D98   D(25,27,28,46)        179.8448         estimate D2E/DX2                !
 ! D99   D(29,27,28,26)       -179.4722         estimate D2E/DX2                !
 ! D100  D(29,27,28,46)          0.33           estimate D2E/DX2                !
 ! D101  D(22,31,32,34)       -179.9461         estimate D2E/DX2                !
 ! D102  D(22,31,32,35)         -0.0389         estimate D2E/DX2                !
 ! D103  D(33,31,32,34)         -0.0255         estimate D2E/DX2                !
 ! D104  D(33,31,32,35)        179.8817         estimate D2E/DX2                !
 ! D105  D(22,31,33,36)        179.9703         estimate D2E/DX2                !
 ! D106  D(22,31,33,37)         -0.016          estimate D2E/DX2                !
 ! D107  D(32,31,33,36)          0.0496         estimate D2E/DX2                !
 ! D108  D(32,31,33,37)       -179.9367         estimate D2E/DX2                !
 ! D109  D(31,32,34,38)         -0.0059         estimate D2E/DX2                !
 ! D110  D(31,32,34,39)        179.9693         estimate D2E/DX2                !
 ! D111  D(35,32,34,38)       -179.913          estimate D2E/DX2                !
 ! D112  D(35,32,34,39)          0.0623         estimate D2E/DX2                !
 ! D113  D(31,33,36,38)         -0.0423         estimate D2E/DX2                !
 ! D114  D(31,33,36,40)        179.9918         estimate D2E/DX2                !
 ! D115  D(37,33,36,38)        179.944          estimate D2E/DX2                !
 ! D116  D(37,33,36,40)         -0.0219         estimate D2E/DX2                !
 ! D117  D(32,34,38,36)          0.013          estimate D2E/DX2                !
 ! D118  D(32,34,38,41)       -179.9951         estimate D2E/DX2                !
 ! D119  D(39,34,38,36)       -179.9618         estimate D2E/DX2                !
 ! D120  D(39,34,38,41)          0.0301         estimate D2E/DX2                !
 ! D121  D(33,36,38,34)          0.0113         estimate D2E/DX2                !
 ! D122  D(33,36,38,41)       -179.9813         estimate D2E/DX2                !
 ! D123  D(40,36,38,34)        179.9782         estimate D2E/DX2                !
 ! D124  D(40,36,38,41)         -0.0143         estimate D2E/DX2                !
 ! D125  D(34,38,41,42)         -0.0608         estimate D2E/DX2                !
 ! D126  D(36,38,41,42)        179.9314         estimate D2E/DX2                !
 ! D127  D(38,41,42,43)       -179.9751         estimate D2E/DX2                !
 ! D128  D(38,41,42,44)        -61.157          estimate D2E/DX2                !
 ! D129  D(38,41,42,45)         61.205          estimate D2E/DX2                !
 ! D130  D(24,47,48,50)         -8.7867         estimate D2E/DX2                !
 ! D131  D(49,47,48,50)        171.4658         estimate D2E/DX2                !
 ! D132  D(24,47,49,51)        176.0594         estimate D2E/DX2                !
 ! D133  D(48,47,49,51)         -4.1797         estimate D2E/DX2                !
 --------------------------------------------------------------------------------
 Trust Radius=3.00D-01 FncErr=1.00D-07 GrdErr=1.00D-07
 Number of steps in this run=    289 maximum allowed number of steps=    312.
 GradGradGradGradGradGradGradGradGradGradGradGradGradGradGradGradGradGrad

 Leave Link  103 at Wed Mar 31 12:21:39 2021, MaxMem=  5242880000 cpu:         0.2
 (Enter /opt/nce/packages/global/g09/l202.exe)
 Symmetry turned off by external request.
 Stoichiometry    C26H21BNO3(1+)
 Framework group  C1[X(C26H21BNO3)]
 Deg. of freedom   150
 Full point group                 C1      NOp   1
                          Input orientation:                          
 ---------------------------------------------------------------------
 Center     Atomic      Atomic             Coordinates (Angstroms)
 Number     Number       Type             X           Y           Z
 ---------------------------------------------------------------------
      1          6           0       -0.646901    3.721652    0.383228
      2          6           0       -1.275038    2.515629    0.154004
      3          6           0       -0.502997    1.354404   -0.100218
      4          6           0        0.929656    1.448135   -0.135346
      5          6           0        1.534475    2.716196    0.131580
      6          6           0        0.766697    3.827290    0.382413
      7          6           0        1.700978    0.288147   -0.394804
      8          6           0        1.043387   -0.945260   -0.621226
      9          6           0       -0.389535   -1.007834   -0.554509
     10          6           0       -1.047902   -2.245585   -0.756400
     11          1           0       -2.132844   -2.295404   -0.697888
     12          6           0       -0.309572   -3.378206   -1.029301
     13          6           0        1.103447   -3.330502   -1.125021
     14          6           0        1.762243   -2.141426   -0.929535
     15          1           0       -1.253271    4.608851    0.578029
     16          1           0       -2.360536    2.447501    0.169872
     17          1           0        2.621806    2.782304    0.132719
     18          1           0        1.240084    4.789621    0.584003
     19          1           0       -0.828377   -4.326766   -1.183900
     20          1           0        1.663857   -4.236727   -1.360127
     21          1           0        2.846716   -2.092365   -1.010771
     22          7           0       -1.109617    0.136597   -0.298459
     23          6           0        3.184373    0.354287   -0.413151
     24          6           0        3.937422   -0.310873    0.584512
     25          6           0        3.824204    1.040508   -1.457573
     26          6           0        5.337947   -0.269600    0.484419
     27          6           0        5.217889    1.067011   -1.527920
     28          6           0        5.976246    0.411149   -0.554924
     29          1           0        5.709645    1.594079   -2.348282
     30          1           0        3.228115    1.533816   -2.228750
     31          6           0       -2.554964    0.055352   -0.234791
     32          6           0       -3.178542   -0.202502    0.983755
     33          6           0       -3.310504    0.235337   -1.399814
     34          6           0       -4.570761   -0.283392    1.052960
     35          1           0       -2.577336   -0.342801    1.884457
     36          6           0       -4.694321    0.156667   -1.337529
     37          1           0       -2.810567    0.435920   -2.349492
     38          6           0       -5.341076   -0.103641   -0.111062
     39          1           0       -5.043422   -0.486117    2.012807
     40          1           0       -5.309962    0.292484   -2.227793
     41          8           0       -6.678766   -0.161103   -0.152552
     42          6           0       -7.411398   -0.419612    1.033789
     43          1           0       -8.470052   -0.418075    0.748115
     44          1           0       -7.151885   -1.403804    1.459419
     45          1           0       -7.238820    0.363933    1.791042
     46          1           0        7.066928    0.427878   -0.608560
     47          5           0        3.269609   -1.052546    1.807387
     48          8           0        2.178367   -0.563843    2.474467
     49          8           0        3.807825   -2.230373    2.203326
     50          1           0        1.928497    0.333258    2.226167
     51          1           0        3.383889   -2.593842    2.993638
     52          1           0        5.934663   -0.784620    1.240442
 ---------------------------------------------------------------------
 Rotational constants (GHZ):      0.2978832      0.0890757      0.0788022
 Leave Link  202 at Wed Mar 31 12:21:39 2021, MaxMem=  5242880000 cpu:         0.1
 (Enter /opt/nce/packages/global/g09/l301.exe)
 Standard basis: def2TZVP (5D, 7F)
 Ernie: Thresh=  0.10000D-02 Tol=  0.10000D-05 Strict=F.
  1087 basis functions,  1749 primitive gaussians,  1242 cartesian basis functions
   106 alpha electrons      106 beta electrons
       nuclear repulsion energy      2874.9988380751 Hartrees.
 IExCor=    0 DFT=F Ex=HF Corr=None ExCW=0 ScaHFX=  1.000000
 ScaDFX=  1.000000  1.000000  1.000000  1.000000 ScalE2=  1.000000  1.000000
 IRadAn=      5 IRanWt=     -1 IRanGd=            0 ICorTp=0 IEmpDi=  4
 NAtoms=   52 NActive=   52 NUniq=   52 SFac= 1.00D+00 NAtFMM=   60 NAOKFM=F Big=F
 Integral buffers will be    131072 words long.
 Raffenetti 1 integral format.
 Two-electron integral symmetry is turned off.
 ------------------------------------------------------------------------------
 Polarizable Continuum Model (PCM)
 =================================
 Model                : PCM (using non-symmetric T matrix).
 Atomic radii         : SMD-Coulomb.
 Polarization charges : Total charges.
 Charge compensation  : None.
 Solution method      : On-the-fly selection.
 Cavity type          : VdW (van der Waals Surface) (Alpha=1.000).
 Cavity algorithm     : GePol (No added spheres)
                        Default sphere list used, NSphG=   52.
                        Lebedev-Laikov grids with approx.  5.0 points / Ang**2.
                        Smoothing algorithm: York/Karplus (Gamma=1.0000).
                        Polarization charges: spherical gaussians, with
                                              point-specific exponents (IZeta= 3).
                        Self-potential: point-specific (ISelfS= 7).
                        Self-field    : sphere-specific E.n sum rule (ISelfD= 2).
 1st derivatives      : Analytical E(r).r(x)/FMM algorithm (CHGder, D1EAlg=3).
                        Cavity 1st derivative terms included.
 Solvent              : Acetonitrile, Eps=  35.688000 Eps(inf)=   1.806874
 ------------------------------------------------------------------------------
 GePol: Number of generator spheres                  =      52
 GePol: Total number of spheres                      =      52
 GePol: Number of exposed spheres                    =      50 ( 96.15%)
 GePol: Number of points                             =    3793
 GePol: Average weight of points                     =       0.12
 GePol: Minimum weight of points                     =   0.96D-11
 GePol: Maximum weight of points                     =    0.21559
 GePol: Number of points with low weight             =     233
 GePol: Fraction of low-weight points (<1% of avg)   =       6.14%
 GePol: Cavity surface area                          =    438.989 Ang**2
 GePol: Cavity volume                                =    445.444 Ang**3
 ------------------------------------------------------------------------------
 Atomic radii for non-electrostatic terms: SMD-CDS.
 ------------------------------------------------------------------------------
 PCM non-electrostatic energy =        -0.0084817840 Hartrees.
 Nuclear repulsion after PCM non-electrostatic terms =     2874.9903562910 Hartrees.
 Leave Link  301 at Wed Mar 31 12:21:39 2021, MaxMem=  5242880000 cpu:         1.7
 (Enter /opt/nce/packages/global/g09/l302.exe)
 NPDir=0 NMtPBC=     1 NCelOv=     1 NCel=       1 NClECP=     1 NCelD=      1
         NCelK=      1 NCelE2=     1 NClLst=     1 CellRange=     0.0.
 One-electron integrals computed using PRISM.
   1 Symmetry operations used in ECPInt.
 ECPInt:  NShTT=   90525 NPrTT=  279376 LenC2=   73614 LenP2D=  155946.
 LDataN:  DoStor=T MaxTD1= 6 Len=  172
 NBasis=  1087 RedAO= T EigKep=  4.68D-06  NBF=  1087
 NBsUse=  1087 1.00D-06 EigRej= -1.00D+00 NBFU=  1087
 Leave Link  302 at Wed Mar 31 12:21:42 2021, MaxMem=  5242880000 cpu:        27.6
 (Enter /opt/nce/packages/global/g09/l303.exe)
 DipDrv:  MaxL=1.
 Leave Link  303 at Wed Mar 31 12:21:42 2021, MaxMem=  5242880000 cpu:         3.0
 (Enter /opt/nce/packages/global/g09/l401.exe)
 ExpMin= 6.06D-02 ExpMax= 2.70D+04 ExpMxC= 9.22D+02 IAcc=3 IRadAn=         5 AccDes= 0.00D+00
 Harris functional with IExCor=  205 and IRadAn=       5 diagonalized for initial guess.
 HarFok:  IExCor=  205 AccDes= 0.00D+00 IRadAn=         5 IDoV= 1 UseB2=F ITyADJ=14
 ICtDFT=  3500011 ScaDFX=  1.000000  1.000000  1.000000  1.000000
 FoFCou: FMM=F IPFlag=           0 FMFlag=      100000 FMFlg1=           0
         NFxFlg=           0 DoJE=T BraDBF=F KetDBF=T FulRan=T
         wScrn=  0.000000 ICntrl=     500 IOpCl=  0 I1Cent=   200000004 NGrid=           0
         NMat0=    1 NMatS0=      1 NMatT0=    0 NMatD0=    1 NMtDS0=    0 NMtDT0=    0
 Symmetry not used in FoFCou.
 Harris En= -1302.51445817262    
 JPrj=0 DoOrth=F DoCkMO=F.
 Leave Link  401 at Wed Mar 31 12:21:49 2021, MaxMem=  5242880000 cpu:        85.0
 (Enter /opt/nce/packages/global/g09/l502.exe)
 Closed shell SCF:
 Using DIIS extrapolation, IDIIS=  1040.
 Two-electron integral symmetry not used.
 IVT=     4668702 IEndB=     4668702 NGot=  5242880000 MDV=  5239771745
 LenX=  5239771745 LenY=  5238227939
 Requested convergence on RMS density matrix=1.00D-08 within 128 cycles.
 Requested convergence on MAX density matrix=1.00D-06.
 Requested convergence on             energy=1.00D-06.
 No special actions if energy rises.
 Fock matrices will be formed incrementally for  20 cycles.

 Cycle   1  Pass 1  IDiag  1:
 FoFJK:  IHMeth= 1 ICntrl=       0 DoSepK=F KAlg= 0 I1Cent=   0 FoldK=F
 IRaf= 700000000 NMat=   1 IRICut=       1 DoRegI=T DoRafI=F ISym2E= 0.
 FoFCou: FMM=F IPFlag=           0 FMFlag=      100000 FMFlg1=           0
         NFxFlg=           0 DoJE=F BraDBF=F KetDBF=F FulRan=T
         wScrn=  0.000000 ICntrl=       0 IOpCl=  0 I1Cent=           0 NGrid=           0
         NMat0=    1 NMatS0=      1 NMatT0=    0 NMatD0=    1 NMtDS0=    0 NMtDT0=    0
 Symmetry not used in FoFCou.
 Inv3:  Mode=1 IEnd=    43160547.
 Iteration    1 A*A^-1 deviation from unit magnitude is 7.99D-15 for   3783.
 Iteration    1 A*A^-1 deviation from orthogonality  is 4.31D-15 for   1249    678.
 Iteration    1 A^-1*A deviation from unit magnitude is 7.77D-15 for   3783.
 Iteration    1 A^-1*A deviation from orthogonality  is 1.54D-12 for   1858   1787.
 E= -1299.81912851853    
 DIIS: error= 2.27D-02 at cycle   1 NSaved=   1.
 NSaved= 1 IEnMin= 1 EnMin= -1299.81912851853     IErMin= 1 ErrMin= 2.27D-02
 ErrMax= 2.27D-02  0.00D+00 EMaxC= 1.00D-01 BMatC= 2.54D+00 BMatP= 2.54D+00
 IDIUse=3 WtCom= 7.73D-01 WtEn= 2.27D-01
 Coeff-Com:  0.100D+01
 Coeff-En:   0.100D+01
 Coeff:      0.100D+01
 Gap=     0.318 Goal=   None    Shift=    0.000
 GapD=    0.318 DampG=1.000 DampE=0.500 DampFc=0.5000 IDamp=-1.
 Damping current iteration by 5.00D-01
 RMSDP=1.83D-03 MaxDP=2.10D-01              OVMax= 1.81D-01

 Cycle   2  Pass 1  IDiag  1:
 RMSU=  8.99D-04    CP:  9.66D-01
 E= -1300.43339431004     Delta-E=       -0.614265791506 Rises=F Damp=T
 DIIS: error= 1.14D-02 at cycle   2 NSaved=   2.
 NSaved= 2 IEnMin= 2 EnMin= -1300.43339431004     IErMin= 2 ErrMin= 1.14D-02
 ErrMax= 1.14D-02  0.00D+00 EMaxC= 1.00D-01 BMatC= 5.90D-01 BMatP= 2.54D+00
 IDIUse=3 WtCom= 8.86D-01 WtEn= 1.14D-01
 Coeff-Com: -0.733D+00 0.173D+01
 Coeff-En:   0.000D+00 0.100D+01
 Coeff:     -0.650D+00 0.165D+01
 Gap=     0.327 Goal=   None    Shift=    0.000
 RMSDP=1.05D-03 MaxDP=9.61D-02 DE=-6.14D-01 OVMax= 8.63D-02

 Cycle   3  Pass 1  IDiag  1:
 RMSU=  7.45D-04    CP:  9.23D-01  1.79D+00
 E= -1300.98563181272     Delta-E=       -0.552237502680 Rises=F Damp=F
 DIIS: error= 5.64D-03 at cycle   3 NSaved=   3.
 NSaved= 3 IEnMin= 3 EnMin= -1300.98563181272     IErMin= 3 ErrMin= 5.64D-03
 ErrMax= 5.64D-03  0.00D+00 EMaxC= 1.00D-01 BMatC= 2.86D-02 BMatP= 5.90D-01
 IDIUse=3 WtCom= 9.44D-01 WtEn= 5.64D-02
 Coeff-Com: -0.251D+00 0.469D+00 0.782D+00
 Coeff-En:   0.000D+00 0.000D+00 0.100D+01
 Coeff:     -0.237D+00 0.442D+00 0.794D+00
 Gap=     0.311 Goal=   None    Shift=    0.000
 RMSDP=2.02D-04 MaxDP=3.07D-02 DE=-5.52D-01 OVMax= 4.57D-02

 Cycle   4  Pass 1  IDiag  1:
 RMSU=  1.63D-04    CP:  9.24D-01  1.91D+00  9.29D-01
 E= -1301.01019417402     Delta-E=       -0.024562361301 Rises=F Damp=F
 DIIS: error= 1.09D-03 at cycle   4 NSaved=   4.
 NSaved= 4 IEnMin= 4 EnMin= -1301.01019417402     IErMin= 4 ErrMin= 1.09D-03
 ErrMax= 1.09D-03  0.00D+00 EMaxC= 1.00D-01 BMatC= 1.75D-03 BMatP= 2.86D-02
 IDIUse=3 WtCom= 9.89D-01 WtEn= 1.09D-02
 Coeff-Com: -0.433D-01 0.695D-01 0.240D+00 0.734D+00
 Coeff-En:   0.000D+00 0.000D+00 0.000D+00 0.100D+01
 Coeff:     -0.428D-01 0.688D-01 0.237D+00 0.737D+00
 Gap=     0.306 Goal=   None    Shift=    0.000
 RMSDP=5.10D-05 MaxDP=7.89D-03 DE=-2.46D-02 OVMax= 7.52D-03

 Cycle   5  Pass 1  IDiag  1:
 RMSU=  4.59D-05    CP:  9.23D-01  1.90D+00  9.56D-01  9.52D-01
 E= -1301.01200218192     Delta-E=       -0.001808007893 Rises=F Damp=F
 DIIS: error= 6.72D-04 at cycle   5 NSaved=   5.
 NSaved= 5 IEnMin= 5 EnMin= -1301.01200218192     IErMin= 5 ErrMin= 6.72D-04
 ErrMax= 6.72D-04  0.00D+00 EMaxC= 1.00D-01 BMatC= 1.03D-04 BMatP= 1.75D-03
 IDIUse=3 WtCom= 9.93D-01 WtEn= 6.72D-03
 Coeff-Com:  0.158D-01-0.303D-01-0.418D-01 0.100D-01 0.105D+01
 Coeff-En:   0.000D+00 0.000D+00 0.000D+00 0.000D+00 0.100D+01
 Coeff:      0.157D-01-0.301D-01-0.415D-01 0.994D-02 0.105D+01
 Gap=     0.308 Goal=   None    Shift=    0.000
 RMSDP=3.06D-05 MaxDP=3.44D-03 DE=-1.81D-03 OVMax= 1.01D-02

 Cycle   6  Pass 1  IDiag  1:
 RMSU=  1.85D-05    CP:  9.22D-01  1.91D+00  9.74D-01  1.03D+00  1.33D+00
 E= -1301.01237272993     Delta-E=       -0.000370548015 Rises=F Damp=F
 DIIS: error= 3.48D-04 at cycle   6 NSaved=   6.
 NSaved= 6 IEnMin= 6 EnMin= -1301.01237272993     IErMin= 6 ErrMin= 3.48D-04
 ErrMax= 3.48D-04  0.00D+00 EMaxC= 1.00D-01 BMatC= 4.32D-05 BMatP= 1.03D-04
 IDIUse=3 WtCom= 9.97D-01 WtEn= 3.48D-03
 Coeff-Com:  0.949D-02-0.163D-01-0.427D-01-0.135D+00 0.246D+00 0.938D+00
 Coeff-En:   0.000D+00 0.000D+00 0.000D+00 0.000D+00 0.000D+00 0.100D+01
 Coeff:      0.945D-02-0.163D-01-0.425D-01-0.134D+00 0.245D+00 0.938D+00
 Gap=     0.309 Goal=   None    Shift=    0.000
 RMSDP=1.80D-05 MaxDP=2.73D-03 DE=-3.71D-04 OVMax= 5.55D-03

 Cycle   7  Pass 1  IDiag  1:
 RMSU=  1.19D-05    CP:  9.23D-01  1.91D+00  9.80D-01  1.08D+00  1.50D+00
                    CP:  1.25D+00
 E= -1301.01251628093     Delta-E=       -0.000143551001 Rises=F Damp=F
 DIIS: error= 2.90D-04 at cycle   7 NSaved=   7.
 NSaved= 7 IEnMin= 7 EnMin= -1301.01251628093     IErMin= 7 ErrMin= 2.90D-04
 ErrMax= 2.90D-04  0.00D+00 EMaxC= 1.00D-01 BMatC= 9.69D-06 BMatP= 4.32D-05
 IDIUse=3 WtCom= 9.97D-01 WtEn= 2.90D-03
 Coeff-Com: -0.459D-02 0.867D-02 0.165D-01 0.224D-04-0.237D+00-0.198D+00
 Coeff-Com:  0.141D+01
 Coeff-En:   0.000D+00 0.000D+00 0.000D+00 0.000D+00 0.000D+00 0.000D+00
 Coeff-En:   0.100D+01
 Coeff:     -0.457D-02 0.864D-02 0.164D-01 0.224D-04-0.236D+00-0.198D+00
 Coeff:      0.141D+01
 Gap=     0.310 Goal=   None    Shift=    0.000
 RMSDP=1.21D-05 MaxDP=1.14D-03 DE=-1.44D-04 OVMax= 6.54D-03

 Cycle   8  Pass 1  IDiag  1:
 RMSU=  5.62D-06    CP:  9.23D-01  1.91D+00  9.80D-01  1.09D+00  1.60D+00
                    CP:  1.64D+00  1.51D+00
 E= -1301.01258519504     Delta-E=       -0.000068914113 Rises=F Damp=F
 DIIS: error= 1.27D-04 at cycle   8 NSaved=   8.
 NSaved= 8 IEnMin= 8 EnMin= -1301.01258519504     IErMin= 8 ErrMin= 1.27D-04
 ErrMax= 1.27D-04  0.00D+00 EMaxC= 1.00D-01 BMatC= 2.75D-06 BMatP= 9.69D-06
 IDIUse=3 WtCom= 9.99D-01 WtEn= 1.27D-03
 Coeff-Com: -0.328D-02 0.578D-02 0.145D-01 0.343D-01-0.688D-01-0.328D+00
 Coeff-Com:  0.145D+00 0.120D+01
 Coeff-En:   0.000D+00 0.000D+00 0.000D+00 0.000D+00 0.000D+00 0.000D+00
 Coeff-En:   0.000D+00 0.100D+01
 Coeff:     -0.328D-02 0.577D-02 0.145D-01 0.342D-01-0.687D-01-0.328D+00
 Coeff:      0.145D+00 0.120D+01
 Gap=     0.311 Goal=   None    Shift=    0.000
 RMSDP=7.58D-06 MaxDP=1.11D-03 DE=-6.89D-05 OVMax= 3.67D-03

 Cycle   9  Pass 1  IDiag  1:
 RMSU=  2.52D-06    CP:  9.23D-01  1.91D+00  9.80D-01  1.10D+00  1.63D+00
                    CP:  1.77D+00  1.98D+00  1.57D+00
 E= -1301.01260347369     Delta-E=       -0.000018278641 Rises=F Damp=F
 DIIS: error= 7.17D-05 at cycle   9 NSaved=   9.
 NSaved= 9 IEnMin= 9 EnMin= -1301.01260347369     IErMin= 9 ErrMin= 7.17D-05
 ErrMax= 7.17D-05  0.00D+00 EMaxC= 1.00D-01 BMatC= 4.47D-07 BMatP= 2.75D-06
 IDIUse=1 WtCom= 1.00D+00 WtEn= 0.00D+00
 Coeff-Com:  0.284D-03-0.609D-03-0.822D-03 0.400D-02 0.372D-01-0.200D-01
 Coeff-Com: -0.230D+00 0.163D+00 0.105D+01
 Coeff:      0.284D-03-0.609D-03-0.822D-03 0.400D-02 0.372D-01-0.200D-01
 Coeff:     -0.230D+00 0.163D+00 0.105D+01
 Gap=     0.311 Goal=   None    Shift=    0.000
 RMSDP=2.76D-06 MaxDP=2.67D-04 DE=-1.83D-05 OVMax= 1.56D-03

 Cycle  10  Pass 1  IDiag  1:
 RMSU=  1.30D-06    CP:  9.23D-01  1.91D+00  9.80D-01  1.10D+00  1.63D+00
                    CP:  1.79D+00  2.09D+00  1.88D+00  1.41D+00
 E= -1301.01260647959     Delta-E=       -0.000003005905 Rises=F Damp=F
 DIIS: error= 2.96D-05 at cycle  10 NSaved=  10.
 NSaved=10 IEnMin=10 EnMin= -1301.01260647959     IErMin=10 ErrMin= 2.96D-05
 ErrMax= 2.96D-05  0.00D+00 EMaxC= 1.00D-01 BMatC= 1.15D-07 BMatP= 4.47D-07
 IDIUse=1 WtCom= 1.00D+00 WtEn= 0.00D+00
 Coeff-Com:  0.804D-03-0.141D-02-0.365D-02-0.959D-02 0.135D-01 0.839D-01
 Coeff-Com: -0.299D-02-0.356D+00-0.891D-01 0.136D+01
 Coeff:      0.804D-03-0.141D-02-0.365D-02-0.959D-02 0.135D-01 0.839D-01
 Coeff:     -0.299D-02-0.356D+00-0.891D-01 0.136D+01
 Gap=     0.311 Goal=   None    Shift=    0.000
 RMSDP=1.91D-06 MaxDP=2.52D-04 DE=-3.01D-06 OVMax= 9.11D-04

 Cycle  11  Pass 1  IDiag  1:
 RMSU=  6.07D-07    CP:  9.23D-01  1.91D+00  9.80D-01  1.10D+00  1.63D+00
                    CP:  1.79D+00  2.16D+00  2.04D+00  1.85D+00  1.56D+00
 E= -1301.01260733719     Delta-E=       -0.000000857600 Rises=F Damp=F
 DIIS: error= 1.06D-05 at cycle  11 NSaved=  11.
 NSaved=11 IEnMin=11 EnMin= -1301.01260733719     IErMin=11 ErrMin= 1.06D-05
 ErrMax= 1.06D-05  0.00D+00 EMaxC= 1.00D-01 BMatC= 1.45D-08 BMatP= 1.15D-07
 IDIUse=1 WtCom= 1.00D+00 WtEn= 0.00D+00
 Coeff-Com:  0.429D-04-0.570D-04-0.131D-03-0.147D-02-0.499D-02 0.969D-02
 Coeff-Com:  0.454D-01-0.599D-01-0.179D+00 0.658D-01 0.112D+01
 Coeff:      0.429D-04-0.570D-04-0.131D-03-0.147D-02-0.499D-02 0.969D-02
 Coeff:      0.454D-01-0.599D-01-0.179D+00 0.658D-01 0.112D+01
 Gap=     0.311 Goal=   None    Shift=    0.000
 RMSDP=6.14D-07 MaxDP=3.85D-05 DE=-8.58D-07 OVMax= 2.69D-04

 Cycle  12  Pass 1  IDiag  1:
 RMSU=  1.99D-07    CP:  9.23D-01  1.91D+00  9.80D-01  1.10D+00  1.63D+00
                    CP:  1.79D+00  2.17D+00  2.07D+00  1.96D+00  1.81D+00
                    CP:  1.51D+00
 E= -1301.01260743376     Delta-E=       -0.000000096573 Rises=F Damp=F
 DIIS: error= 3.82D-06 at cycle  12 NSaved=  12.
 NSaved=12 IEnMin=12 EnMin= -1301.01260743376     IErMin=12 ErrMin= 3.82D-06
 ErrMax= 3.82D-06  0.00D+00 EMaxC= 1.00D-01 BMatC= 2.08D-09 BMatP= 1.45D-08
 IDIUse=1 WtCom= 1.00D+00 WtEn= 0.00D+00
 Coeff-Com: -0.104D-03 0.185D-03 0.536D-03 0.127D-02-0.222D-02-0.125D-01
 Coeff-Com:  0.301D-02 0.471D-01 0.879D-02-0.207D+00 0.682D-01 0.109D+01
 Coeff:     -0.104D-03 0.185D-03 0.536D-03 0.127D-02-0.222D-02-0.125D-01
 Coeff:      0.301D-02 0.471D-01 0.879D-02-0.207D+00 0.682D-01 0.109D+01
 Gap=     0.311 Goal=   None    Shift=    0.000
 RMSDP=2.40D-07 MaxDP=1.97D-05 DE=-9.66D-08 OVMax= 1.02D-04

 Cycle  13  Pass 1  IDiag  1:
 RMSU=  9.13D-08    CP:  9.23D-01  1.91D+00  9.80D-01  1.10D+00  1.63D+00
                    CP:  1.79D+00  2.18D+00  2.07D+00  1.98D+00  1.86D+00
                    CP:  1.77D+00  1.26D+00
 E= -1301.01260744573     Delta-E=       -0.000000011965 Rises=F Damp=F
 DIIS: error= 1.13D-06 at cycle  13 NSaved=  13.
 NSaved=13 IEnMin=13 EnMin= -1301.01260744573     IErMin=13 ErrMin= 1.13D-06
 ErrMax= 1.13D-06  0.00D+00 EMaxC= 1.00D-01 BMatC= 2.92D-10 BMatP= 2.08D-09
 IDIUse=1 WtCom= 1.00D+00 WtEn= 0.00D+00
 Coeff-Com:  0.504D-05-0.118D-04-0.167D-04 0.422D-04 0.937D-03-0.432D-03
 Coeff-Com: -0.558D-02 0.274D-02 0.220D-01 0.542D-02-0.145D+00-0.843D-01
 Coeff-Com:  0.120D+01
 Coeff:      0.504D-05-0.118D-04-0.167D-04 0.422D-04 0.937D-03-0.432D-03
 Coeff:     -0.558D-02 0.274D-02 0.220D-01 0.542D-02-0.145D+00-0.843D-01
 Coeff:      0.120D+01
 Gap=     0.311 Goal=   None    Shift=    0.000
 RMSDP=8.44D-08 MaxDP=5.66D-06 DE=-1.20D-08 OVMax= 3.37D-05

 Cycle  14  Pass 1  IDiag  1:
 RMSU=  2.79D-08    CP:  9.23D-01  1.91D+00  9.80D-01  1.10D+00  1.63D+00
                    CP:  1.79D+00  2.18D+00  2.07D+00  1.99D+00  1.87D+00
                    CP:  1.84D+00  1.39D+00  1.55D+00
 E= -1301.01260744733     Delta-E=       -0.000000001599 Rises=F Damp=F
 DIIS: error= 3.54D-07 at cycle  14 NSaved=  14.
 NSaved=14 IEnMin=14 EnMin= -1301.01260744733     IErMin=14 ErrMin= 3.54D-07
 ErrMax= 3.54D-07  0.00D+00 EMaxC= 1.00D-01 BMatC= 6.42D-11 BMatP= 2.92D-10
 IDIUse=1 WtCom= 1.00D+00 WtEn= 0.00D+00
 Coeff-Com:  0.213D-04-0.383D-04-0.105D-03-0.260D-03 0.623D-03 0.234D-02
 Coeff-Com: -0.132D-02-0.882D-02 0.229D-02 0.410D-01-0.335D-01-0.226D+00
 Coeff-Com:  0.209D+00 0.101D+01
 Coeff:      0.213D-04-0.383D-04-0.105D-03-0.260D-03 0.623D-03 0.234D-02
 Coeff:     -0.132D-02-0.882D-02 0.229D-02 0.410D-01-0.335D-01-0.226D+00
 Coeff:      0.209D+00 0.101D+01
 Gap=     0.311 Goal=   None    Shift=    0.000
 RMSDP=3.44D-08 MaxDP=3.90D-06 DE=-1.60D-09 OVMax= 7.97D-06

 Cycle  15  Pass 1  IDiag  1:
 RMSU=  1.22D-08    CP:  9.23D-01  1.91D+00  9.80D-01  1.10D+00  1.63D+00
                    CP:  1.79D+00  2.18D+00  2.08D+00  1.99D+00  1.86D+00
                    CP:  1.85D+00  1.41D+00  1.83D+00  1.40D+00
 E= -1301.01260744755     Delta-E=       -0.000000000224 Rises=F Damp=F
 DIIS: error= 2.14D-07 at cycle  15 NSaved=  15.
 NSaved=15 IEnMin=15 EnMin= -1301.01260744755     IErMin=15 ErrMin= 2.14D-07
 ErrMax= 2.14D-07  0.00D+00 EMaxC= 1.00D-01 BMatC= 9.41D-12 BMatP= 6.42D-11
 IDIUse=1 WtCom= 1.00D+00 WtEn= 0.00D+00
 Coeff-Com: -0.373D-05 0.712D-05 0.189D-04 0.286D-04-0.219D-03-0.259D-03
 Coeff-Com:  0.109D-02 0.645D-03-0.376D-02-0.739D-02 0.304D-01 0.414D-01
 Coeff-Com: -0.200D+00-0.199D+00 0.134D+01
 Coeff:     -0.373D-05 0.712D-05 0.189D-04 0.286D-04-0.219D-03-0.259D-03
 Coeff:      0.109D-02 0.645D-03-0.376D-02-0.739D-02 0.304D-01 0.414D-01
 Coeff:     -0.200D+00-0.199D+00 0.134D+01
 Gap=     0.311 Goal=   None    Shift=    0.000
 RMSDP=1.40D-08 MaxDP=9.59D-07 DE=-2.24D-10 OVMax= 5.33D-06

 Cycle  16  Pass 1  IDiag  1:
 RMSU=  5.21D-09    CP:  9.23D-01  1.91D+00  9.80D-01  1.10D+00  1.63D+00
                    CP:  1.79D+00  2.18D+00  2.08D+00  1.99D+00  1.86D+00
                    CP:  1.84D+00  1.41D+00  1.90D+00  1.66D+00  1.48D+00
 E= -1301.01260744763     Delta-E=       -0.000000000083 Rises=F Damp=F
 DIIS: error= 7.38D-08 at cycle  16 NSaved=  16.
 NSaved=16 IEnMin=16 EnMin= -1301.01260744763     IErMin=16 ErrMin= 7.38D-08
 ErrMax= 7.38D-08  0.00D+00 EMaxC= 1.00D-01 BMatC= 2.15D-12 BMatP= 9.41D-12
 IDIUse=1 WtCom= 1.00D+00 WtEn= 0.00D+00
 Coeff-Com: -0.331D-05 0.597D-05 0.166D-04 0.430D-04-0.103D-03-0.381D-03
 Coeff-Com:  0.166D-03 0.145D-02-0.154D-03-0.702D-02 0.506D-02 0.342D-01
 Coeff-Com: -0.206D-01-0.202D+00-0.954D-02 0.120D+01
 Coeff:     -0.331D-05 0.597D-05 0.166D-04 0.430D-04-0.103D-03-0.381D-03
 Coeff:      0.166D-03 0.145D-02-0.154D-03-0.702D-02 0.506D-02 0.342D-01
 Coeff:     -0.206D-01-0.202D+00-0.954D-02 0.120D+01
 Gap=     0.311 Goal=   None    Shift=    0.000
 RMSDP=5.54D-09 MaxDP=9.29D-07 DE=-8.28D-11 OVMax= 2.36D-06

 Error on total polarization charges =  0.05424
 SCF Done:  E(RHF) =  -1301.01260745     A.U. after   16 cycles
            NFock= 16  Conv=0.55D-08     -V/T= 2.0017
 KE= 1.298861653556D+03 PE=-8.762579201422D+03 EE= 3.287714584127D+03
 SMD-CDS (non-electrostatic) energy       (kcal/mol) =      -5.32
 (included in total energy above)
 Leave Link  502 at Wed Mar 31 12:56:38 2021, MaxMem=  5242880000 cpu:     25035.8
 (Enter /opt/nce/packages/global/g09/l601.exe)
 Copying SCF densities to generalized density rwf, IOpCl= 0 IROHF=0.

 **********************************************************************

            Population analysis using the SCF density.

 **********************************************************************

 Alpha  occ. eigenvalues --  -20.58986 -20.57042 -20.56732 -15.66404 -11.33593
 Alpha  occ. eigenvalues --  -11.33522 -11.32387 -11.31552 -11.28163 -11.27805
 Alpha  occ. eigenvalues --  -11.27741 -11.27690 -11.26998 -11.26950 -11.26702
 Alpha  occ. eigenvalues --  -11.26488 -11.26402 -11.25533 -11.25449 -11.25056
 Alpha  occ. eigenvalues --  -11.25050 -11.24926 -11.24759 -11.24742 -11.24574
 Alpha  occ. eigenvalues --  -11.24524 -11.24283 -11.23979 -11.23863 -11.23405
 Alpha  occ. eigenvalues --   -7.64558  -1.42341  -1.38759  -1.34880  -1.34765
 Alpha  occ. eigenvalues --   -1.20036  -1.18013  -1.16321  -1.14849  -1.11465
 Alpha  occ. eigenvalues --   -1.05908  -1.04397  -1.04146  -1.03216  -1.02547
 Alpha  occ. eigenvalues --   -1.02363  -1.00438  -0.94676  -0.92462  -0.89285
 Alpha  occ. eigenvalues --   -0.87882  -0.85005  -0.84069  -0.83590  -0.82938
 Alpha  occ. eigenvalues --   -0.79695  -0.77647  -0.76741  -0.76688  -0.73921
 Alpha  occ. eigenvalues --   -0.73714  -0.71772  -0.70425  -0.69031  -0.68582
 Alpha  occ. eigenvalues --   -0.66816  -0.66211  -0.65643  -0.65575  -0.64415
 Alpha  occ. eigenvalues --   -0.63118  -0.62619  -0.62387  -0.61862  -0.61772
 Alpha  occ. eigenvalues --   -0.61245  -0.60910  -0.59955  -0.58859  -0.58209
 Alpha  occ. eigenvalues --   -0.57596  -0.56599  -0.56266  -0.55637  -0.55497
 Alpha  occ. eigenvalues --   -0.53469  -0.52698  -0.52534  -0.52287  -0.52016
 Alpha  occ. eigenvalues --   -0.51822  -0.50829  -0.50465  -0.49272  -0.49064
 Alpha  occ. eigenvalues --   -0.47939  -0.47537  -0.47370  -0.42615  -0.37472
 Alpha  occ. eigenvalues --   -0.35350  -0.34875  -0.34793  -0.34091  -0.32508
 Alpha  occ. eigenvalues --   -0.31391
 Alpha virt. eigenvalues --   -0.00333   0.07378   0.08808   0.09740   0.11307
 Alpha virt. eigenvalues --    0.12000   0.12607   0.12957   0.13617   0.14762
 Alpha virt. eigenvalues --    0.15086   0.15966   0.16477   0.17006   0.17158
 Alpha virt. eigenvalues --    0.17704   0.17889   0.18365   0.18786   0.19170
 Alpha virt. eigenvalues --    0.19549   0.19944   0.20077   0.20782   0.21324
 Alpha virt. eigenvalues --    0.21544   0.21919   0.22444   0.22710   0.23276
 Alpha virt. eigenvalues --    0.23477   0.24066   0.24487   0.24903   0.25661
 Alpha virt. eigenvalues --    0.26361   0.27048   0.27971   0.28307   0.28876
 Alpha virt. eigenvalues --    0.29421   0.29791   0.29963   0.30549   0.31690
 Alpha virt. eigenvalues --    0.31786   0.32036   0.32380   0.32814   0.33125
 Alpha virt. eigenvalues --    0.33226   0.33710   0.34281   0.34486   0.34644
 Alpha virt. eigenvalues --    0.35017   0.35647   0.36002   0.36017   0.36768
 Alpha virt. eigenvalues --    0.36909   0.37600   0.38062   0.38416   0.38828
 Alpha virt. eigenvalues --    0.38904   0.39486   0.39824   0.40115   0.40435
 Alpha virt. eigenvalues --    0.40905   0.41393   0.41593   0.42217   0.42664
 Alpha virt. eigenvalues --    0.42723   0.43044   0.43745   0.44047   0.44152
 Alpha virt. eigenvalues --    0.44802   0.45364   0.45798   0.45929   0.46296
 Alpha virt. eigenvalues --    0.46747   0.47472   0.47863   0.48010   0.48710
 Alpha virt. eigenvalues --    0.49298   0.49507   0.50166   0.50313   0.50811
 Alpha virt. eigenvalues --    0.51070   0.51412   0.51689   0.51966   0.52055
 Alpha virt. eigenvalues --    0.52311   0.52892   0.53351   0.53647   0.53896
 Alpha virt. eigenvalues --    0.54245   0.54636   0.54970   0.55295   0.55349
 Alpha virt. eigenvalues --    0.55670   0.55948   0.56254   0.56337   0.56581
 Alpha virt. eigenvalues --    0.56769   0.57010   0.57492   0.57765   0.58006
 Alpha virt. eigenvalues --    0.58596   0.58901   0.59080   0.59847   0.60283
 Alpha virt. eigenvalues --    0.60494   0.60941   0.61274   0.61541   0.61598
 Alpha virt. eigenvalues --    0.62388   0.62561   0.62948   0.63504   0.63627
 Alpha virt. eigenvalues --    0.64089   0.64407   0.64561   0.64965   0.65529
 Alpha virt. eigenvalues --    0.65985   0.66182   0.66570   0.66938   0.67192
 Alpha virt. eigenvalues --    0.67391   0.67724   0.68027   0.68593   0.68838
 Alpha virt. eigenvalues --    0.69438   0.70242   0.70424   0.71206   0.71600
 Alpha virt. eigenvalues --    0.72262   0.72575   0.73091   0.74116   0.75089
 Alpha virt. eigenvalues --    0.75277   0.75731   0.76084   0.76738   0.76839
 Alpha virt. eigenvalues --    0.77279   0.77519   0.78837   0.78969   0.79240
 Alpha virt. eigenvalues --    0.80437   0.80729   0.81332   0.81674   0.81729
 Alpha virt. eigenvalues --    0.81910   0.82178   0.82471   0.83486   0.83829
 Alpha virt. eigenvalues --    0.84035   0.84364   0.84872   0.85040   0.85909
 Alpha virt. eigenvalues --    0.86388   0.87022   0.87447   0.88074   0.88413
 Alpha virt. eigenvalues --    0.88807   0.89360   0.89715   0.90129   0.90490
 Alpha virt. eigenvalues --    0.90908   0.91151   0.91660   0.92085   0.92653
 Alpha virt. eigenvalues --    0.92711   0.92838   0.93257   0.93757   0.94429
 Alpha virt. eigenvalues --    0.94714   0.95264   0.95412   0.95776   0.96321
 Alpha virt. eigenvalues --    0.96791   0.97244   0.97608   0.97895   0.99029
 Alpha virt. eigenvalues --    0.99155   0.99514   1.00230   1.00471   1.01195
 Alpha virt. eigenvalues --    1.01675   1.02142   1.03189   1.03381   1.04031
 Alpha virt. eigenvalues --    1.04217   1.05141   1.05425   1.05677   1.05955
 Alpha virt. eigenvalues --    1.06845   1.07058   1.08075   1.08220   1.08312
 Alpha virt. eigenvalues --    1.09416   1.09610   1.09896   1.10117   1.10570
 Alpha virt. eigenvalues --    1.11462   1.12507   1.12769   1.13237   1.13507
 Alpha virt. eigenvalues --    1.14413   1.14785   1.15237   1.16592   1.17263
 Alpha virt. eigenvalues --    1.17754   1.17958   1.18802   1.18940   1.20789
 Alpha virt. eigenvalues --    1.21137   1.21691   1.22715   1.23535   1.24269
 Alpha virt. eigenvalues --    1.24582   1.25332   1.26288   1.27173   1.27397
 Alpha virt. eigenvalues --    1.28159   1.28349   1.29499   1.30234   1.30632
 Alpha virt. eigenvalues --    1.30999   1.31600   1.32370   1.32788   1.33364
 Alpha virt. eigenvalues --    1.33373   1.34331   1.35139   1.36126   1.36347
 Alpha virt. eigenvalues --    1.37241   1.38157   1.38815   1.39037   1.39419
 Alpha virt. eigenvalues --    1.40581   1.41196   1.42475   1.42949   1.43492
 Alpha virt. eigenvalues --    1.44026   1.44336   1.44881   1.45667   1.45997
 Alpha virt. eigenvalues --    1.46511   1.46985   1.47405   1.47646   1.48003
 Alpha virt. eigenvalues --    1.48406   1.48790   1.49721   1.50291   1.50444
 Alpha virt. eigenvalues --    1.51276   1.52412   1.52740   1.53688   1.53851
 Alpha virt. eigenvalues --    1.54088   1.54454   1.55081   1.56546   1.56764
 Alpha virt. eigenvalues --    1.57113   1.57760   1.57926   1.59901   1.60620
 Alpha virt. eigenvalues --    1.61047   1.63581   1.64560   1.65211   1.65843
 Alpha virt. eigenvalues --    1.66816   1.67335   1.67798   1.68805   1.69787
 Alpha virt. eigenvalues --    1.70369   1.70975   1.71642   1.72473   1.72610
 Alpha virt. eigenvalues --    1.73362   1.73480   1.73779   1.73841   1.75843
 Alpha virt. eigenvalues --    1.76301   1.76395   1.76843   1.77526   1.78006
 Alpha virt. eigenvalues --    1.78471   1.78633   1.78952   1.79347   1.80229
 Alpha virt. eigenvalues --    1.80669   1.81352   1.81369   1.81733   1.81912
 Alpha virt. eigenvalues --    1.83142   1.83315   1.83734   1.84225   1.84783
 Alpha virt. eigenvalues --    1.84956   1.85918   1.86383   1.87094   1.87683
 Alpha virt. eigenvalues --    1.88360   1.88578   1.88996   1.89163   1.90087
 Alpha virt. eigenvalues --    1.90382   1.91037   1.91941   1.92550   1.92828
 Alpha virt. eigenvalues --    1.93536   1.94488   1.95205   1.95487   1.95995
 Alpha virt. eigenvalues --    1.96571   1.97152   1.97543   1.97982   1.98496
 Alpha virt. eigenvalues --    1.98817   1.99358   1.99676   2.00466   2.00998
 Alpha virt. eigenvalues --    2.01859   2.02275   2.02387   2.02717   2.03506
 Alpha virt. eigenvalues --    2.03758   2.04214   2.04513   2.05061   2.05603
 Alpha virt. eigenvalues --    2.05994   2.06048   2.06722   2.08055   2.08891
 Alpha virt. eigenvalues --    2.09675   2.11092   2.11813   2.12270   2.12671
 Alpha virt. eigenvalues --    2.13866   2.14577   2.15182   2.15684   2.16013
 Alpha virt. eigenvalues --    2.16480   2.17063   2.17351   2.18045   2.18699
 Alpha virt. eigenvalues --    2.19088   2.19316   2.20952   2.21999   2.22859
 Alpha virt. eigenvalues --    2.23149   2.23302   2.24505   2.25872   2.26059
 Alpha virt. eigenvalues --    2.26878   2.27460   2.27907   2.28879   2.29356
 Alpha virt. eigenvalues --    2.29563   2.30573   2.31263   2.31795   2.32268
 Alpha virt. eigenvalues --    2.33751   2.34697   2.35047   2.35669   2.36207
 Alpha virt. eigenvalues --    2.37196   2.37896   2.38061   2.39247   2.39783
 Alpha virt. eigenvalues --    2.40018   2.41663   2.42592   2.43154   2.44318
 Alpha virt. eigenvalues --    2.44654   2.45788   2.46226   2.46477   2.47431
 Alpha virt. eigenvalues --    2.48050   2.48290   2.48726   2.49538   2.49957
 Alpha virt. eigenvalues --    2.51101   2.51753   2.52589   2.53087   2.53901
 Alpha virt. eigenvalues --    2.54398   2.55987   2.56604   2.56980   2.57379
 Alpha virt. eigenvalues --    2.57534   2.58194   2.58812   2.58929   2.60166
 Alpha virt. eigenvalues --    2.60314   2.61866   2.62972   2.63138   2.63533
 Alpha virt. eigenvalues --    2.63817   2.64519   2.65280   2.65454   2.66204
 Alpha virt. eigenvalues --    2.67197   2.69439   2.69919   2.70431   2.71291
 Alpha virt. eigenvalues --    2.71669   2.72091   2.72826   2.74078   2.74616
 Alpha virt. eigenvalues --    2.75603   2.76522   2.77537   2.78289   2.78836
 Alpha virt. eigenvalues --    2.78942   2.79551   2.80352   2.81481   2.81491
 Alpha virt. eigenvalues --    2.82786   2.83654   2.83809   2.84025   2.84589
 Alpha virt. eigenvalues --    2.85048   2.85874   2.87223   2.88476   2.88929
 Alpha virt. eigenvalues --    2.88993   2.89433   2.90412   2.90841   2.91025
 Alpha virt. eigenvalues --    2.92013   2.92106   2.92246   2.92888   2.93568
 Alpha virt. eigenvalues --    2.94620   2.95206   2.95369   2.95943   2.96172
 Alpha virt. eigenvalues --    2.96981   2.97632   2.98530   2.98747   2.99107
 Alpha virt. eigenvalues --    2.99636   2.99907   3.00553   3.00847   3.00863
 Alpha virt. eigenvalues --    3.01438   3.01606   3.02135   3.02300   3.02832
 Alpha virt. eigenvalues --    3.03045   3.03873   3.04117   3.04207   3.04745
 Alpha virt. eigenvalues --    3.05089   3.05254   3.05901   3.06873   3.07167
 Alpha virt. eigenvalues --    3.07505   3.07687   3.08106   3.08516   3.08884
 Alpha virt. eigenvalues --    3.09442   3.10165   3.10263   3.10921   3.11428
 Alpha virt. eigenvalues --    3.12212   3.12484   3.13805   3.14200   3.14485
 Alpha virt. eigenvalues --    3.14958   3.15413   3.15567   3.15973   3.16274
 Alpha virt. eigenvalues --    3.16707   3.16942   3.17949   3.18891   3.19295
 Alpha virt. eigenvalues --    3.19491   3.19725   3.20261   3.20495   3.21687
 Alpha virt. eigenvalues --    3.22451   3.23300   3.23592   3.24110   3.25012
 Alpha virt. eigenvalues --    3.25576   3.25685   3.26218   3.27045   3.27975
 Alpha virt. eigenvalues --    3.28449   3.28699   3.29480   3.29790   3.31064
 Alpha virt. eigenvalues --    3.31629   3.32495   3.32870   3.33193   3.33594
 Alpha virt. eigenvalues --    3.34757   3.35197   3.36144   3.36883   3.37809
 Alpha virt. eigenvalues --    3.37937   3.38751   3.39172   3.39226   3.39533
 Alpha virt. eigenvalues --    3.40340   3.40578   3.40881   3.41282   3.42324
 Alpha virt. eigenvalues --    3.42531   3.43413   3.43524   3.44328   3.44561
 Alpha virt. eigenvalues --    3.45008   3.45276   3.46196   3.46703   3.47451
 Alpha virt. eigenvalues --    3.47767   3.48296   3.48466   3.48963   3.49051
 Alpha virt. eigenvalues --    3.49632   3.49748   3.50282   3.51055   3.51770
 Alpha virt. eigenvalues --    3.51882   3.52447   3.53126   3.53682   3.54395
 Alpha virt. eigenvalues --    3.54667   3.55337   3.56141   3.56739   3.57106
 Alpha virt. eigenvalues --    3.57653   3.57900   3.58189   3.59494   3.59827
 Alpha virt. eigenvalues --    3.60114   3.61271   3.61509   3.61951   3.62332
 Alpha virt. eigenvalues --    3.62649   3.62926   3.64063   3.64388   3.64562
 Alpha virt. eigenvalues --    3.64860   3.65267   3.65452   3.65919   3.66537
 Alpha virt. eigenvalues --    3.67280   3.67391   3.68018   3.68459   3.68677
 Alpha virt. eigenvalues --    3.69631   3.69824   3.70478   3.71048   3.71194
 Alpha virt. eigenvalues --    3.71302   3.71984   3.72242   3.72891   3.73168
 Alpha virt. eigenvalues --    3.73526   3.74046   3.74320   3.74927   3.76030
 Alpha virt. eigenvalues --    3.76528   3.76849   3.77353   3.77623   3.78789
 Alpha virt. eigenvalues --    3.79069   3.79753   3.79776   3.80132   3.80918
 Alpha virt. eigenvalues --    3.81213   3.81367   3.82451   3.82593   3.82890
 Alpha virt. eigenvalues --    3.83154   3.83539   3.84617   3.85083   3.85535
 Alpha virt. eigenvalues --    3.85921   3.86392   3.86800   3.87200   3.87559
 Alpha virt. eigenvalues --    3.87904   3.88117   3.88560   3.89253   3.89420
 Alpha virt. eigenvalues --    3.90768   3.91087   3.91473   3.91982   3.93124
 Alpha virt. eigenvalues --    3.93187   3.93811   3.94251   3.95328   3.96837
 Alpha virt. eigenvalues --    3.97163   3.97613   3.98140   3.99138   3.99937
 Alpha virt. eigenvalues --    4.00670   4.01244   4.02773   4.03337   4.03550
 Alpha virt. eigenvalues --    4.04262   4.06288   4.07310   4.08568   4.08668
 Alpha virt. eigenvalues --    4.10485   4.12043   4.12534   4.13032   4.13257
 Alpha virt. eigenvalues --    4.14884   4.15327   4.18213   4.18322   4.19242
 Alpha virt. eigenvalues --    4.21381   4.21890   4.22575   4.23013   4.23826
 Alpha virt. eigenvalues --    4.23878   4.25184   4.26662   4.28734   4.29521
 Alpha virt. eigenvalues --    4.30731   4.30877   4.31998   4.32557   4.33876
 Alpha virt. eigenvalues --    4.35206   4.36217   4.37022   4.37712   4.37946
 Alpha virt. eigenvalues --    4.40246   4.41401   4.41832   4.42548   4.43295
 Alpha virt. eigenvalues --    4.43758   4.44082   4.44462   4.45547   4.46103
 Alpha virt. eigenvalues --    4.47507   4.48180   4.49218   4.49445   4.50157
 Alpha virt. eigenvalues --    4.50397   4.51410   4.51575   4.52424   4.53174
 Alpha virt. eigenvalues --    4.54761   4.55633   4.56157   4.56440   4.56648
 Alpha virt. eigenvalues --    4.56987   4.57227   4.57800   4.58226   4.58957
 Alpha virt. eigenvalues --    4.59540   4.60132   4.60455   4.61080   4.61520
 Alpha virt. eigenvalues --    4.62871   4.63197   4.64205   4.65436   4.66866
 Alpha virt. eigenvalues --    4.67822   4.69188   4.70164   4.70433   4.71316
 Alpha virt. eigenvalues --    4.72103   4.73238   4.73976   4.74776   4.75372
 Alpha virt. eigenvalues --    4.77900   4.79490   4.80667   4.82045   4.84621
 Alpha virt. eigenvalues --    4.85398   4.86365   4.87271   4.88978   4.90283
 Alpha virt. eigenvalues --    4.91072   4.92582   4.93551   4.94490   4.96228
 Alpha virt. eigenvalues --    4.97075   4.97675   4.98949   5.01542   5.01818
 Alpha virt. eigenvalues --    5.03426   5.04564   5.05848   5.07786   5.08951
 Alpha virt. eigenvalues --    5.09700   5.11176   5.14824   5.15727   5.16988
 Alpha virt. eigenvalues --    5.18012   5.19949   5.21755   5.22617   5.24393
 Alpha virt. eigenvalues --    5.24668   5.25815   5.30053   5.31730   5.33680
 Alpha virt. eigenvalues --    5.33786   5.35159   5.36377   5.38741   5.40173
 Alpha virt. eigenvalues --    5.42582   5.43777   5.44974   5.50037   5.50587
 Alpha virt. eigenvalues --    5.52635   5.53943   5.55763   5.57311   5.57648
 Alpha virt. eigenvalues --    5.59747   5.60434   5.63923   5.65240   5.66330
 Alpha virt. eigenvalues --    5.67706   5.67783   5.71268   5.71997   5.73826
 Alpha virt. eigenvalues --    5.75302   5.75698   5.78900   5.79064   5.79506
 Alpha virt. eigenvalues --    5.83146   5.83263   5.85559   5.89564   5.90936
 Alpha virt. eigenvalues --    5.91053   5.91893   5.94384   5.94899   5.97376
 Alpha virt. eigenvalues --    5.98189   6.01575   6.07572   6.08327   6.10188
 Alpha virt. eigenvalues --    6.11464   6.15220   6.16640   6.17916   6.20277
 Alpha virt. eigenvalues --    6.22173   6.24381   6.26782   6.30562   6.40147
 Alpha virt. eigenvalues --    6.46071   6.47073   6.52875   6.67461   6.79430
 Alpha virt. eigenvalues --    6.81068   6.83445   6.84400   6.85032   6.95941
 Alpha virt. eigenvalues --    7.03020   7.05010   7.15468   7.23116   7.25194
 Alpha virt. eigenvalues --    7.28781   7.30316   7.30483   7.38461   7.40159
 Alpha virt. eigenvalues --    7.48971   7.70075   7.76166   7.83296   7.94471
 Alpha virt. eigenvalues --   17.01719  23.31743  23.39854  23.44755  23.52750
 Alpha virt. eigenvalues --   23.57332  23.69168  23.72125  23.72624  23.74362
 Alpha virt. eigenvalues --   23.76148  23.78050  23.79972  23.82738  23.87017
 Alpha virt. eigenvalues --   23.88352  23.95768  23.99694  24.02043  24.04307
 Alpha virt. eigenvalues --   24.09526  24.19845  24.25826  24.42128  24.47223
 Alpha virt. eigenvalues --   24.48937  24.83620  34.66820  45.16137  45.32727
 Alpha virt. eigenvalues --   45.81437
          Condensed to atoms (all electrons):
 Mulliken charges:
               1
     1  C   -0.050765
     2  C   -0.321531
     3  C    0.282829
     4  C    0.064067
     5  C   -0.261755
     6  C   -0.191280
     7  C    0.209476
     8  C    0.189761
     9  C    0.214323
    10  C   -0.307353
    11  H    0.193537
    12  C   -0.066578
    13  C   -0.174188
    14  C   -0.275578
    15  H    0.188492
    16  H    0.193468
    17  H    0.200042
    18  H    0.181120
    19  H    0.187756
    20  H    0.181146
    21  H    0.199936
    22  N    0.124366
    23  C    0.059367
    24  C   -0.169735
    25  C   -0.347548
    26  C   -0.205486
    27  C   -0.126256
    28  C   -0.176636
    29  H    0.175447
    30  H    0.179978
[...]
 Alpha virt. eigenvalues --    0.66570   0.67088   0.67184   0.67607   0.67784
 Alpha virt. eigenvalues --    0.68049   0.68744   0.68770   0.69218   0.69426
 Alpha virt. eigenvalues --    0.69875   0.70291   0.70934   0.71838   0.72083
 Alpha virt. eigenvalues --    0.72568   0.73378   0.74177   0.74620   0.75335
 Alpha virt. eigenvalues --    0.76177   0.76275   0.76855   0.77157   0.77317
 Alpha virt. eigenvalues --    0.77623   0.78095   0.78793   0.79655   0.80224
 Alpha virt. eigenvalues --    0.80884   0.81175   0.81562   0.81842   0.82280
 Alpha virt. eigenvalues --    0.82600   0.83103   0.83345   0.83616   0.84480
 Alpha virt. eigenvalues --    0.84763   0.85278   0.85697   0.85951   0.86573
 Alpha virt. eigenvalues --    0.87416   0.87993   0.88137   0.88746   0.89505
 Alpha virt. eigenvalues --    0.89662   0.90176   0.90570   0.90937   0.90988
 Alpha virt. eigenvalues --    0.91436   0.92353   0.92564   0.92918   0.93163
 Alpha virt. eigenvalues --    0.93381   0.93933   0.94359   0.94544   0.94772
 Alpha virt. eigenvalues --    0.95530   0.95979   0.96631   0.96987   0.97100
 Alpha virt. eigenvalues --    0.97408   0.97583   0.97882   0.98460   0.98681
 Alpha virt. eigenvalues --    0.99171   1.00528   1.00696   1.01248   1.02154
 Alpha virt. eigenvalues --    1.02409   1.02533   1.03297   1.03917   1.04296
 Alpha virt. eigenvalues --    1.04564   1.05424   1.05875   1.06424   1.06685
 Alpha virt. eigenvalues --    1.07035   1.07985   1.08365   1.08894   1.08999
 Alpha virt. eigenvalues --    1.09403   1.10154   1.10564   1.10850   1.11454
 Alpha virt. eigenvalues --    1.12145   1.12329   1.13320   1.13453   1.14267
 Alpha virt. eigenvalues --    1.15136   1.15557   1.15705   1.16586   1.17693
 Alpha virt. eigenvalues --    1.17991   1.18223   1.19211   1.19952   1.20774
 Alpha virt. eigenvalues --    1.21553   1.22874   1.23209   1.24249   1.24775
 Alpha virt. eigenvalues --    1.24815   1.25566   1.26519   1.26773   1.27301
 Alpha virt. eigenvalues --    1.28169   1.28589   1.29109   1.30071   1.30750
 Alpha virt. eigenvalues --    1.31508   1.31788   1.32259   1.33028   1.33296
 Alpha virt. eigenvalues --    1.34026   1.34751   1.35702   1.36843   1.37814
 Alpha virt. eigenvalues --    1.38129   1.39044   1.39088   1.39769   1.40584
 Alpha virt. eigenvalues --    1.40791   1.41542   1.42225   1.43467   1.44227
 Alpha virt. eigenvalues --    1.45055   1.45409   1.45647   1.46051   1.46837
 Alpha virt. eigenvalues --    1.47165   1.47653   1.47955   1.48444   1.48647
 Alpha virt. eigenvalues --    1.48833   1.50185   1.50638   1.50911   1.51647
 Alpha virt. eigenvalues --    1.52100   1.52207   1.53224   1.54001   1.54578
 Alpha virt. eigenvalues --    1.54833   1.55784   1.56375   1.57181   1.57881
 Alpha virt. eigenvalues --    1.58450   1.58587   1.59769   1.61126   1.61401
 Alpha virt. eigenvalues --    1.63210   1.64333   1.64832   1.65830   1.66620
 Alpha virt. eigenvalues --    1.67666   1.67978   1.69661   1.70026   1.70645
 Alpha virt. eigenvalues --    1.71351   1.71870   1.72348   1.72781   1.73410
 Alpha virt. eigenvalues --    1.73844   1.74189   1.74627   1.75117   1.75412
 Alpha virt. eigenvalues --    1.76715   1.76792   1.77977   1.78321   1.78649
 Alpha virt. eigenvalues --    1.79279   1.79789   1.80260   1.80805   1.81776
 Alpha virt. eigenvalues --    1.82061   1.82234   1.82449   1.82749   1.82819
 Alpha virt. eigenvalues --    1.83632   1.84130   1.85259   1.85621   1.85920
 Alpha virt. eigenvalues --    1.86591   1.86964   1.87597   1.87837   1.88012
 Alpha virt. eigenvalues --    1.88964   1.89366   1.89469   1.89956   1.90354
 Alpha virt. eigenvalues --    1.91325   1.91645   1.92221   1.92922   1.93479
 Alpha virt. eigenvalues --    1.94428   1.94915   1.95060   1.95448   1.96531
 Alpha virt. eigenvalues --    1.97186   1.97604   1.98342   1.99413   1.99931
 Alpha virt. eigenvalues --    2.00157   2.00487   2.00716   2.01491   2.01856
 Alpha virt. eigenvalues --    2.02791   2.03159   2.03309   2.03992   2.04269
 Alpha virt. eigenvalues --    2.04894   2.05159   2.05557   2.05801   2.06364
 Alpha virt. eigenvalues --    2.06589   2.06937   2.07162   2.08560   2.09294
 Alpha virt. eigenvalues --    2.10243   2.11216   2.12103   2.13788   2.14112
 Alpha virt. eigenvalues --    2.15092   2.15516   2.15693   2.16413   2.16883
 Alpha virt. eigenvalues --    2.17552   2.17995   2.18813   2.19138   2.19262
 Alpha virt. eigenvalues --    2.20392   2.20990   2.22417   2.22880   2.23351
 Alpha virt. eigenvalues --    2.24162   2.24591   2.25712   2.26590   2.26989
 Alpha virt. eigenvalues --    2.27909   2.28318   2.30163   2.30372   2.31100
 Alpha virt. eigenvalues --    2.31365   2.31644   2.32836   2.33189   2.33476
 Alpha virt. eigenvalues --    2.34878   2.35450   2.35862   2.36711   2.36828
 Alpha virt. eigenvalues --    2.38267   2.38993   2.39289   2.40279   2.41174
 Alpha virt. eigenvalues --    2.41402   2.41975   2.43925   2.44406   2.44878
 Alpha virt. eigenvalues --    2.45556   2.46260   2.47311   2.48002   2.48541
 Alpha virt. eigenvalues --    2.48735   2.49134   2.50217   2.50705   2.51061
 Alpha virt. eigenvalues --    2.52818   2.53840   2.54171   2.55055   2.55580
 Alpha virt. eigenvalues --    2.56351   2.56755   2.58129   2.58547   2.59065
 Alpha virt. eigenvalues --    2.59186   2.60351   2.60630   2.61239   2.61379
 Alpha virt. eigenvalues --    2.61835   2.62657   2.63712   2.63881   2.64417
 Alpha virt. eigenvalues --    2.65455   2.65658   2.66330   2.67066   2.68001
 Alpha virt. eigenvalues --    2.69523   2.70240   2.70902   2.71565   2.72160
 Alpha virt. eigenvalues --    2.72886   2.73246   2.74146   2.75019   2.75696
 Alpha virt. eigenvalues --    2.77039   2.77456   2.77612   2.78189   2.79103
 Alpha virt. eigenvalues --    2.79887   2.80340   2.81432   2.82926   2.83975
 Alpha virt. eigenvalues --    2.84328   2.85198   2.85349   2.85754   2.86776
 Alpha virt. eigenvalues --    2.87134   2.87677   2.88548   2.89133   2.89518
 Alpha virt. eigenvalues --    2.90312   2.91138   2.91493   2.93205   2.93663
 Alpha virt. eigenvalues --    2.93807   2.94304   2.94380   2.95077   2.96159
 Alpha virt. eigenvalues --    2.96574   2.97057   2.97670   2.97816   2.98041
 Alpha virt. eigenvalues --    2.98564   2.99410   2.99765   3.00189   3.01181
 Alpha virt. eigenvalues --    3.01433   3.01601   3.02440   3.02712   3.02986
 Alpha virt. eigenvalues --    3.03242   3.03449   3.03814   3.04344   3.04647
 Alpha virt. eigenvalues --    3.04758   3.05233   3.05249   3.05762   3.06151
 Alpha virt. eigenvalues --    3.06338   3.07042   3.07736   3.08236   3.08639
 Alpha virt. eigenvalues --    3.09083   3.09411   3.09820   3.10172   3.10453
 Alpha virt. eigenvalues --    3.10958   3.11320   3.12527   3.12837   3.13263
 Alpha virt. eigenvalues --    3.14157   3.14645   3.15124   3.16298   3.16462
 Alpha virt. eigenvalues --    3.16699   3.16974   3.17783   3.17905   3.18713
 Alpha virt. eigenvalues --    3.18993   3.19158   3.19852   3.20182   3.20484
 Alpha virt. eigenvalues --    3.20922   3.21489   3.22142   3.22815   3.23384
 Alpha virt. eigenvalues --    3.23843   3.25072   3.25436   3.26067   3.26472
 Alpha virt. eigenvalues --    3.26968   3.27689   3.27948   3.28469   3.28982
 Alpha virt. eigenvalues --    3.29991   3.30356   3.30708   3.30967   3.31810
 Alpha virt. eigenvalues --    3.32030   3.32940   3.33805   3.34114   3.34620
 Alpha virt. eigenvalues --    3.35205   3.36611   3.37184   3.38100   3.38265
 Alpha virt. eigenvalues --    3.38775   3.39340   3.40251   3.40581   3.40856
 Alpha virt. eigenvalues --    3.41218   3.41921   3.42026   3.42520   3.43234
 Alpha virt. eigenvalues --    3.43434   3.44235   3.44491   3.44594   3.44797
 Alpha virt. eigenvalues --    3.45654   3.45921   3.46956   3.47014   3.47777
 Alpha virt. eigenvalues --    3.48838   3.48967   3.49212   3.49704   3.50079
 Alpha virt. eigenvalues --    3.50431   3.51281   3.51521   3.51902   3.52495
 Alpha virt. eigenvalues --    3.52570   3.53404   3.54001   3.54824   3.55141
 Alpha virt. eigenvalues --    3.56047   3.56640   3.57708   3.57868   3.58350
 Alpha virt. eigenvalues --    3.58700   3.59206   3.59503   3.60061   3.60958
 Alpha virt. eigenvalues --    3.61159   3.61494   3.61920   3.62841   3.63204
 Alpha virt. eigenvalues --    3.64055   3.64648   3.65268   3.65359   3.65788
 Alpha virt. eigenvalues --    3.66318   3.66657   3.67325   3.67551   3.68449
 Alpha virt. eigenvalues --    3.68641   3.68973   3.69164   3.69402   3.70579
 Alpha virt. eigenvalues --    3.71029   3.71281   3.71966   3.72259   3.72938
 Alpha virt. eigenvalues --    3.73047   3.73844   3.74117   3.74403   3.75093
 Alpha virt. eigenvalues --    3.75378   3.75775   3.75897   3.76235   3.77224
 Alpha virt. eigenvalues --    3.77613   3.78415   3.79190   3.79956   3.80526
 Alpha virt. eigenvalues --    3.80798   3.81412   3.81873   3.82291   3.82420
 Alpha virt. eigenvalues --    3.82991   3.83500   3.83734   3.84793   3.85236
 Alpha virt. eigenvalues --    3.85803   3.86333   3.86651   3.86983   3.87504
 Alpha virt. eigenvalues --    3.87866   3.88377   3.88718   3.89118   3.89470
 Alpha virt. eigenvalues --    3.89966   3.90452   3.91077   3.91139   3.91836
 Alpha virt. eigenvalues --    3.92405   3.93041   3.93305   3.94130   3.95093
 Alpha virt. eigenvalues --    3.95608   3.95677   3.96548   3.98444   3.98753
 Alpha virt. eigenvalues --    3.99233   3.99785   4.00097   4.00940   4.01307
 Alpha virt. eigenvalues --    4.02876   4.03711   4.04196   4.04653   4.05706
 Alpha virt. eigenvalues --    4.06068   4.08206   4.08510   4.09567   4.10848
 Alpha virt. eigenvalues --    4.12941   4.13431   4.13909   4.16282   4.16481
 Alpha virt. eigenvalues --    4.17695   4.18867   4.20338   4.21418   4.22280
 Alpha virt. eigenvalues --    4.24261   4.24990   4.26084   4.26178   4.26693
 Alpha virt. eigenvalues --    4.27071   4.29059   4.29145   4.32433   4.32953
 Alpha virt. eigenvalues --    4.33436   4.33811   4.34950   4.35962   4.38091
 Alpha virt. eigenvalues --    4.39039   4.39911   4.40924   4.41758   4.42187
 Alpha virt. eigenvalues --    4.44276   4.44826   4.45107   4.45715   4.46123
 Alpha virt. eigenvalues --    4.46819   4.47568   4.48419   4.48846   4.49903
 Alpha virt. eigenvalues --    4.50421   4.51434   4.51970   4.52736   4.54523
 Alpha virt. eigenvalues --    4.54954   4.55374   4.55662   4.56661   4.56969
 Alpha virt. eigenvalues --    4.57585   4.58936   4.59320   4.59633   4.60519
 Alpha virt. eigenvalues --    4.61172   4.61447   4.61736   4.62221   4.62853
 Alpha virt. eigenvalues --    4.63510   4.64034   4.64755   4.64992   4.66230
 Alpha virt. eigenvalues --    4.66772   4.67593   4.68242   4.68697   4.71325
 Alpha virt. eigenvalues --    4.71616   4.72986   4.73546   4.74818   4.75894
 Alpha virt. eigenvalues --    4.76642   4.77980   4.78651   4.79126   4.79582
 Alpha virt. eigenvalues --    4.81952   4.83276   4.83710   4.87173   4.88402
 Alpha virt. eigenvalues --    4.89588   4.90834   4.91590   4.92634   4.94121
 Alpha virt. eigenvalues --    4.95363   4.97292   4.97486   4.98091   5.00209
 Alpha virt. eigenvalues --    5.01506   5.02121   5.03987   5.04873   5.06077
 Alpha virt. eigenvalues --    5.06663   5.08259   5.08383   5.10801   5.11966
 Alpha virt. eigenvalues --    5.13151   5.13493   5.18349   5.19151   5.19586
 Alpha virt. eigenvalues --    5.22393   5.24153   5.24880   5.26019   5.27426
 Alpha virt. eigenvalues --    5.28570   5.31389   5.33275   5.34088   5.36193
 Alpha virt. eigenvalues --    5.36511   5.38709   5.39801   5.42299   5.43498
 Alpha virt. eigenvalues --    5.46941   5.47132   5.47433   5.56391   5.57584
 Alpha virt. eigenvalues --    5.57959   5.59222   5.60803   5.61655   5.63194
 Alpha virt. eigenvalues --    5.64066   5.65032   5.67342   5.67946   5.71161
 Alpha virt. eigenvalues --    5.71680   5.72849   5.73472   5.73954   5.75413
 Alpha virt. eigenvalues --    5.76190   5.79823   5.80542   5.81003   5.82260
 Alpha virt. eigenvalues --    5.84208   5.85607   5.87030   5.90153   5.91393
 Alpha virt. eigenvalues --    5.95204   5.96900   5.97758   5.98718   5.99783
 Alpha virt. eigenvalues --    6.00668   6.04829   6.09688   6.11392   6.12429
 Alpha virt. eigenvalues --    6.14538   6.18296   6.21192   6.22055   6.24480
 Alpha virt. eigenvalues --    6.24760   6.28523   6.30756   6.32985   6.42823
 Alpha virt. eigenvalues --    6.49524   6.52047   6.56154   6.71735   6.82416
 Alpha virt. eigenvalues --    6.87626   6.88114   6.91457   6.91943   6.95645
 Alpha virt. eigenvalues --    7.04494   7.07827   7.16413   7.22820   7.26927
 Alpha virt. eigenvalues --    7.29191   7.30002   7.31364   7.39521   7.39998
 Alpha virt. eigenvalues --    7.49530   7.71821   7.77894   7.83001   7.95736
 Alpha virt. eigenvalues --   17.01072  23.38892  23.43637  23.55240  23.57465
 Alpha virt. eigenvalues --   23.63649  23.78196  23.78345  23.79759  23.84901
 Alpha virt. eigenvalues --   23.85676  23.91443  23.92414  23.93681  23.94878
 Alpha virt. eigenvalues --   23.96400  24.05197  24.08550  24.11781  24.15050
 Alpha virt. eigenvalues --   24.21834  24.27662  24.38270  24.54716  24.57963
 Alpha virt. eigenvalues --   24.61057  24.94202  34.71153  45.12043  45.27788
 Alpha virt. eigenvalues --   45.83420
          Condensed to atoms (all electrons):
 Mulliken charges:
               1
     1  C   -0.042842
     2  C   -0.332040
     3  C    0.319345
     4  C    0.034100
     5  C   -0.282575
     6  C   -0.171060
     7  C    0.329441
     8  C    0.134489
     9  C    0.263107
    10  C   -0.325491
    11  H    0.183157
    12  C   -0.050771
    13  C   -0.160396
    14  C   -0.298341
    15  H    0.180455
    16  H    0.182907
    17  H    0.188755
    18  H    0.175075
    19  H    0.180114
    20  H    0.174903
    21  H    0.187115
    22  N    0.122893
    23  C    0.005153
    24  C   -0.126043
    25  C   -0.334559
    26  C   -0.204354
    27  C   -0.128562
    28  C   -0.171730
    29  H    0.167611
    30  H    0.168088
    31  C    0.137930
    32  C   -0.265234
    33  C   -0.245839
    34  C   -0.251344
    35  H    0.172464
    36  C   -0.213915
    37  H    0.169841
    38  C    0.424425
    39  H    0.172019
    40  H    0.157180
    41  O   -0.381188
    42  C   -0.152713
    43  H    0.149109
    44  H    0.130467
    45  H    0.130423
    46  H    0.165502
    47  B    0.554075
    48  O   -0.558903
    49  O   -0.578837
    50  H    0.376783
    51  H    0.378602
    52  H    0.161209
 Sum of Mulliken charges =   1.00000
 Mulliken charges with hydrogens summed into heavy atoms:
               1
     1  C    0.137614
     2  C   -0.149133
     3  C    0.319345
     4  C    0.034100
     5  C   -0.093819
     6  C    0.004014
     7  C    0.329441
     8  C    0.134489
     9  C    0.263107
    10  C   -0.142334
    12  C    0.129343
    13  C    0.014507
    14  C   -0.111226
    22  N    0.122893
    23  C    0.005153
    24  C   -0.126043
    25  C   -0.166471
    26  C   -0.043144
    27  C    0.039048
    28  C   -0.006228
    31  C    0.137930
    32  C   -0.092770
    33  C   -0.075999
    34  C   -0.079325
    36  C   -0.056736
    38  C    0.424425
    41  O   -0.381188
    42  C    0.257286
    47  B    0.554075
    48  O   -0.182120
    49  O   -0.200235
 Electronic spatial extent (au):  <R**2>=          13634.6887
 Charge=              1.0000 electrons
 Dipole moment (field-independent basis, Debye):
    X=             -2.4036    Y=              1.8062    Z=             -0.1140  Tot=              3.0088
 Quadrupole moment (field-independent basis, Debye-Ang):
   XX=           -120.5424   YY=           -143.7564   ZZ=           -163.7125
   XY=              8.0100   XZ=            -16.8597   YZ=              1.6786
 Traceless Quadrupole moment (field-independent basis, Debye-Ang):
   XX=             22.1280   YY=             -1.0859   ZZ=            -21.0421
   XY=              8.0100   XZ=            -16.8597   YZ=              1.6786
 Octapole moment (field-independent basis, Debye-Ang**2):
  XXX=           -132.5496  YYY=              6.4388  ZZZ=             30.0042  XYY=            -13.4011
  XXY=             13.4667  XXZ=             70.8456  XZZ=             -9.1606  YZZ=            -10.9409
  YYZ=              4.5043  XYZ=             -2.6347
 Hexadecapole moment (field-independent basis, Debye-Ang**3):
 XXXX=         -11006.9780 YYYY=          -2485.3157 ZZZZ=          -1398.9682 XXXY=            260.8985
 XXXZ=           -801.5265 YYYX=            -22.9926 YYYZ=            109.7271 ZZZX=             82.1056
 ZZZY=           -134.8375 XXYY=          -2852.8236 XXZZ=          -2181.1603 YYZZ=           -799.6630
 XXYZ=            -83.1052 YYXZ=             14.2149 ZZXY=            -17.6517
 N-N= 2.883029168061D+03 E-N=-8.779843294607D+03  KE= 1.300687344504D+03
 Leave Link  601 at Thu Apr  1 07:44:56 2021, MaxMem=  5242880000 cpu:         6.3
 (Enter /opt/nce/packages/global/g09/l9999.exe)
 1\1\GINC-CN028\SP\RTD-FC\Gen\C26H21B1N1O3(1+)\PNG4RJV\01-Apr-2021\0\\#
 p hf chkbasis geom=allcheck Guess=Read int=ultrafine scrf=(SMD,solvent
 =Acetonitrile) td=(NStates=30)\\Title\\1,1\C,0,-0.6121752779,3.6106582
 271,0.5390786837\C,0,-1.2499790061,2.4467134577,0.2725333023\C,0,-0.50
 12200696,1.2835450384,-0.0288955092\C,0,0.9090754984,1.3614937159,-0.0
 534908689\C,0,1.5319107889,2.6123263671,0.2445299007\C,0,0.7991366667,
 3.7048420387,0.5315382391\C,0,1.6548590683,0.2160756424,-0.3530571977\
 C,0,0.9899931554,-0.9827272665,-0.6322242369\C,0,-0.4215334066,-1.0178
 919126,-0.5897596366\C,0,-1.0889406441,-2.2349185403,-0.8673237681\H,0
 ,-2.1550008363,-2.2839498635,-0.835179233\C,0,-0.3739434364,-3.3419430
 61,-1.1772967134\C,0,1.0389926651,-3.3225641657,-1.2378124021\C,0,1.69
 52795301,-2.17697893,-0.9736184623\H,0,-1.1953391521,4.4832375108,0.76
 5175906\H,0,-2.3169201606,2.4105407389,0.291257539\H,0,2.6002089701,2.
 6700419929,0.2390761741\H,0,1.273503052,4.6404970555,0.7543085064\H,0,
 -0.8961860995,-4.256412941,-1.386312599\H,0,1.5751065627,-4.2150898308
 ,-1.4949131326\H,0,2.7635648348,-2.1487227535,-1.0220183953\N,0,-1.121
 1659159,0.1052718634,-0.2888600172\C,0,3.1521284888,0.280555284,-0.406
 3470654\C,0,3.9530938616,-0.1850493378,0.6384849235\C,0,3.7203161466,0
 .7915704115,-1.562058453\C,0,5.334208012,-0.1083185294,0.4723391786\C,
 0,5.0930063448,0.8614439318,-1.6959302269\C,0,5.9044516007,0.414315129
 4,-0.6719149662\H,0,5.5214679699,1.2605746578,-2.5959952792\H,0,3.0885
 361418,1.1322488802,-2.3608809726\C,0,-2.5665702466,0.0450934227,-0.24
 5406185\C,0,-3.2014125276,-0.2586620976,0.9321566345\C,0,-3.2982939549
 ,0.2958129005,-1.3916109565\C,0,-4.5842857866,-0.3168454548,0.98543624
 47\H,0,-2.6276030062,-0.4530763119,1.8187459718\C,0,-4.6696838071,0.24
 1055455,-1.3495071225\H,0,-2.7954195923,0.532726968,-2.3103327186\C,0,
 -5.3247909837,-0.0656516906,-0.1584996053\H,0,-5.0595619708,-0.5563236
 863,1.9142171318\H,0,-5.251238917,0.4341154688,-2.2304679108\O,0,-6.65
 84971548,-0.0945407577,-0.2136266796\C,0,-7.4069677756,-0.3952538648,0
 .9399266505\H,0,-8.4437195594,-0.355237074,0.6431390724\H,0,-7.1781199
 736,-1.3883925789,1.3076662542\H,0,-7.2307812299,0.3329633611,1.722617
 3877\H,0,6.9730363309,0.4646918151,-0.7657785646\B,0,3.4222323106,-0.8
 085221351,2.0004232685\O,0,2.4209361881,-0.2890412649,2.7525604101\O,0
 ,4.0410754311,-1.9225509693,2.4550851149\H,0,2.0718368203,0.5417682641
 ,2.4724178178\H,0,3.7263558963,-2.2184545469,3.2968583369\H,0,5.975037
 1554,-0.4658730336,1.2563982292\\Version=ES64L-G09RevE.01\State=1-A\HF
 =-1301.0293254\RMSD=6.228e-09\PG=C01 [X(C26H21B1N1O3)]\\@


 The mind is not a vessel to be filled but a fire to be kindled.
                                  -- Plutarch
 Job cpu time:       2 days 20 hours 38 minutes 14.2 seconds.
 File lengths (MBytes):  RWF=   5854 Int=      0 D2E=      0 Chk=   1053 Scr=      1
 Normal termination of Gaussian 09 at Thu Apr  1 07:44:57 2021.
